   * xtb version 6.7.1 (edcfbbe) compiled by 'albert@albert-system' on 2024-07-22

   ID    Z sym.   atoms
    1    6 C      1-5, 7-15, 17-36, 38-43, 45, 46, 48-56
    2    7 N      6, 16, 37
    3    8 O      44, 47
    4    1 H      57-93

          program call               : xtb data2507/gas/DDBP/DDBP.xyz --gfn 2 --ohess vtight --parallel 40 --molden --ceasefiles --namespace data2507/gas/DDBP/DDBP_gas_S0_preOpt
          :  Hamiltonian                  GFN2-xTB          :
 * total energy  :  -144.9923146 Eh     change       -0.3412026E-08 Eh
 * total energy  :  -145.0078187 Eh     change       -0.1550408E-01 Eh
 * total energy  :  -145.0127325 Eh     change       -0.4913724E-02 Eh
 * total energy  :  -145.0141118 Eh     change       -0.1379355E-02 Eh
 * total energy  :  -145.0150170 Eh     change       -0.9052391E-03 Eh
 * total energy  :  -145.0154941 Eh     change       -0.4770488E-03 Eh
 * total energy  :  -145.0158629 Eh     change       -0.3688423E-03 Eh
 * total energy  :  -145.0162018 Eh     change       -0.3388345E-03 Eh
 * total energy  :  -145.0165224 Eh     change       -0.3206425E-03 Eh
 * total energy  :  -145.0168409 Eh     change       -0.3184665E-03 Eh
 * total energy  :  -145.0254440 Eh     change       -0.1011396E-05 Eh
 * total energy  :  -145.0254448 Eh     change       -0.8868163E-06 Eh
 * total energy  :  -145.0254457 Eh     change       -0.8558889E-06 Eh
 * total energy  :  -145.0254465 Eh     change       -0.7928977E-06 Eh
 * total energy  :  -145.0254472 Eh     change       -0.7550088E-06 Eh
 * total energy  :  -145.0254480 Eh     change       -0.7933747E-06 Eh
 * total energy  :  -145.0254488 Eh     change       -0.7656776E-06 Eh
 * total energy  :  -145.0254495 Eh     change       -0.6829079E-06 Eh
 * total energy  :  -145.0254495 Eh     change       -0.4110376E-08 Eh
   *** GEOMETRY OPTIMIZATION CONVERGED AFTER 122 ITERATIONS ***

 final structure:
================
93
 xtb: 6.7.1 (edcfbbe)
C           -8.19772671331968       -4.60350588306413       -0.22432406344588
C           -8.49471665979345       -3.28157126867109       -0.51288829415854
C           -7.51828610081643       -2.30820173523421       -0.41649339600882
C           -6.22654907484626       -2.64767825093720       -0.01873398379125
C           -5.16526586475939       -1.65860912754344        0.09067314140353
N           -3.86344105334951       -2.02846009257415       -0.06204511882218
C           -3.13550191614794       -0.94561100700359        0.03794413470569
C           -1.68133977321528       -0.88933763435398       -0.00786553961534
C           -1.00134546309655       -0.09036196666152        0.88577585517158
C            0.39078944307584       -0.01280328276094        0.86686654989623
C            1.13438318051864       -0.73480596690696       -0.03698102946910
C            2.60334853126978       -0.65018569064229        0.01583530356041
C            3.24035876332033        0.58414470501351       -0.07981093317709
C            4.61443637717751        0.68156810675350       -0.00624744276880
C            5.39390366051235       -0.46093365550220        0.17427778753599
N            6.78786833725280       -0.36717587131747        0.24731524679472
C            7.47026651882436        0.53876000990153       -0.57141413691075
C            8.59576004946218        1.21340011429275       -0.09825915762983
C            9.26923145809461        2.10147345228183       -0.91394868883034
C            8.83088526376109        2.33969094174254       -2.20631498458330
C            7.71015746668417        1.67700215278154       -2.67931307728336
C            7.03477661575820        0.78063654076629       -1.87443052929962
C            7.49603088375356       -1.18137289616049        1.13827607382105
C            8.74051928832995       -1.70315105106777        0.78575789613922
C            9.43718359048153       -2.50079989565273        1.67237795113715
C            8.90538387327760       -2.79915306994645        2.91624372661794
C            7.66695657357038       -2.28853319860777        3.26900448892411
C            6.96631888831623       -1.48286985852834        2.39290369646181
C            4.75877486298408       -1.69829211026316        0.28440842637595
C            3.38472366133439       -1.78797199270993        0.20639768311807
C            0.46916947091492       -1.55786172718143       -0.98547692980302
C            1.17747375342877       -2.26379402003260       -1.98204973813953
C            0.52623623774271       -3.05726015677366       -2.88384887077205
C           -0.86912689863333       -3.17783365282220       -2.83612015035597
C           -1.58914114018600       -2.48378003179970       -1.90452524325625
C           -0.94914535357449       -1.65280352293959       -0.96146954669820
N           -3.92769118808247        0.15486406679605        0.25770903299556
C           -3.50829754073993        1.48877185010180        0.39525547565710
C           -3.92380990732558        2.24766928604462        1.48540705997135
C           -3.48349792975700        3.54790212211924        1.62151201160452
C           -2.63008611072346        4.10884648911686        0.67997281878957
C           -2.24309203170300        3.35713747057774       -0.43560523847449
C           -2.68193081600637        2.04835214347059       -0.56918173878358
O           -1.44507661893535        3.87403656894250       -1.42035745645690
C           -1.32771378112468        5.27902007447723       -1.36671394184856
C           -1.08429566507375        5.73241924380985        0.07165466593062
O           -2.18689234089456        5.39000254087943        0.88164946512896
C           -5.23063100519094       -0.29131499407008        0.30136956458870
C           -6.36217141124597        0.59617445317166        0.53319006553032
C           -7.31776612865979        0.26808542521072        1.49435259993717
C           -8.39074611768979        1.10662880381709        1.72597649068646
C           -8.52429353045019        2.28347452624747        1.00656330969653
C           -7.58122990945530        2.61457535474830        0.04825737393016
C           -6.50607062046957        1.77899801183268       -0.18964200969491
C           -5.93071270152309       -3.98345135741800        0.25117049173051
C           -6.91031098915153       -4.95174845814592        0.15116186166144
H           -8.96540166295683       -5.35994028000853       -0.29960633590679
H           -9.49369438224733       -3.00745115997072       -0.82087839318697
H           -7.75425124164842       -1.28365738318609       -0.66282058530452
H           -1.54285223735647        0.46782456352132        1.63561708336362
H            0.89414557617110        0.60595139796106        1.59615547347731
H            2.64657772750615        1.47545879497585       -0.22318178642421
H            5.09604922677321        1.64545596718134       -0.08466992198543
H            8.93449875699419        1.03732832776727        0.91227434058611
H           10.13864084907035        2.61783321054760       -0.53406178515762
H            9.35874174314519        3.03619715246163       -2.83989353265687
H            7.36357885496541        1.85196717778714       -3.68736084387343
H            6.16735909717217        0.25775810149285       -2.25005523649971
H            9.15331834609043       -1.48072305090810       -0.18741611436809
H           10.39926952478186       -2.89958772041708        1.38580766419632
H            9.45175745286388       -3.42515481957878        3.60522730382931
H            7.24596041683975       -2.51187102643280        4.23836692204469
H            6.00514450866253       -1.07822022411166        2.67458108081960
H            5.35276933942876       -2.58884510205480        0.42925169291945
H            2.90462323764644       -2.75085147329812        0.30408491756111
H            2.25104936375573       -2.15819818861940       -2.03054955767616
H            1.08358502543514       -3.59062813011152       -3.64035590060336
H           -1.37389149168609       -3.81341877299858       -3.54879869170550
H           -2.66280891662495       -2.57353180627214       -1.86509088540333
H           -4.57540331443801        1.81429933028241        2.22764998188652
H           -3.78064511239332        4.15033822062820        2.46437888886227
H           -2.36666012227660        1.48034848998844       -1.42994842878909
H           -0.49183500000888        5.54474533639958       -2.01508510858839
H           -2.24895772798925        5.74599017602690       -1.74127860450614
H           -0.17470040069787        5.24862658516899        0.45347386249296
H           -0.97793794771173        6.81613793615888        0.13474086474437
H           -7.20875736031771       -0.64901767847370        2.05468186780789
H           -9.12474568956485        0.84341980947492        2.47341352657410
H           -9.36269548509060        2.93875516343023        1.19060010836324
H           -7.68477532757288        3.52751119195200       -0.51987165222035
H           -5.78060702930284        2.03531172636385       -0.94832911074510
H           -4.92212820612862       -4.23923345795669        0.53704541080880
H           -6.67135578520034       -5.98333041274530        0.36670347590407

          :  Hamiltonian                  GFN2-xTB          :
         :: gradient norm              0.000047092777 Eh/a0 ::
         :: HOMO-LUMO gap              2.247383936044 eV    ::
         :: SCC energy              -147.599442144716 Eh    ::
         :: -> dispersion             -0.131856522278 Eh    ::
         :: repulsion energy           2.573992655577 Eh    ::

    * Orbital Energies and Occupations

         #    Occupation            Energy/Eh            Energy/eV
      -------------------------------------------------------------
         1        2.0000           -0.7394060             -20.1203
       ...           ...                  ...                  ...
       122        2.0000           -0.4059478             -11.0464
       123        2.0000           -0.4053174             -11.0292
       124        2.0000           -0.4043611             -11.0032
       125        2.0000           -0.4033611             -10.9760
       126        2.0000           -0.4009166             -10.9095
       127        2.0000           -0.3972459             -10.8096
       128        2.0000           -0.3965724             -10.7913
       129        2.0000           -0.3922233             -10.6729
       130        2.0000           -0.3843718             -10.4593
       131        2.0000           -0.3747222             -10.1967
       132        2.0000           -0.3694907             -10.0544
       133        2.0000           -0.3556494              -9.6777
       134        2.0000           -0.3472018              -9.4478 (HOMO)
       135                         -0.2646120              -7.2005 (LUMO)
       136                         -0.2451159              -6.6699
       137                         -0.2378279              -6.4716
       138                         -0.2317088              -6.3051
       139                         -0.2295523              -6.2464
       140                         -0.2284689              -6.2170
       141                         -0.2266944              -6.1687
       142                         -0.2244616              -6.1079
       143                         -0.2235484              -6.0831
       144                         -0.2211016              -6.0165
       145                         -0.2207001              -6.0056
       ...                                ...                  ...
       261                          0.7132435              19.4083
      -------------------------------------------------------------
                  HL-Gap            0.0825898 Eh            2.2474 eV

     #   Z          covCN         q      C6AA      α(0)
     1   6 C        2.920    -0.033    28.812     8.802
     2   6 C        2.919    -0.031    28.763     8.795
     3   6 C        2.923    -0.038    28.935     8.821
     4   6 C        2.974     0.010    27.779     8.645
     5   6 C        3.163     0.051    26.537     8.420
     6   7 N        1.914    -0.289    28.341     7.893
     7   6 C        3.151     0.123    25.053     8.187
     8   6 C        2.970    -0.007    28.181     8.708
     9   6 C        2.921    -0.037    28.917     8.818
    10   6 C        2.922    -0.037    28.930     8.820
    11   6 C        2.975     0.004    27.919     8.667
    12   6 C        2.978     0.005    27.914     8.666
    13   6 C        2.924    -0.034    28.851     8.809
    14   6 C        2.921    -0.048    29.203     8.862
    15   6 C        2.924     0.063    26.584     8.455
    16   7 N        2.752    -0.076    22.719     7.079
    17   6 C        2.924     0.065    26.539     8.448
    18   6 C        2.922    -0.048    29.193     8.860
    19   6 C        2.920    -0.029    28.737     8.791
    20   6 C        2.919    -0.039    28.969     8.826
    21   6 C        2.919    -0.029    28.737     8.791
    22   6 C        2.922    -0.048    29.191     8.860
    23   6 C        2.924     0.065    26.542     8.449
    24   6 C        2.922    -0.048    29.186     8.859
    25   6 C        2.920    -0.029    28.733     8.790
    26   6 C        2.919    -0.039    28.958     8.825
    27   6 C        2.920    -0.029    28.731     8.790
    28   6 C        2.922    -0.048    29.187     8.860
    29   6 C        2.921    -0.049    29.207     8.862
    30   6 C        2.923    -0.032    28.809     8.802
    31   6 C        2.987     0.009    27.807     8.650
    32   6 C        2.919    -0.036    28.890     8.814
    33   6 C        2.915    -0.030    28.752     8.793
    34   6 C        2.916    -0.029    28.722     8.788
    35   6 C        2.918    -0.035    28.867     8.811
    36   6 C        2.987     0.014    27.696     8.633
    37   7 N        2.854    -0.033    21.876     6.947
    38   6 C        2.913     0.059    26.688     8.471
    39   6 C        2.921    -0.050    29.247     8.869
    40   6 C        2.919    -0.055    29.369     8.887
    41   6 C        2.886     0.113    25.500     8.279
    42   6 C        2.886     0.118    25.404     8.263
    43   6 C        2.922    -0.067    29.675     8.933
    44   8 O        1.705    -0.271    18.496     5.807
    45   6 C        3.715     0.073    19.482     6.306
    46   6 C        3.716     0.073    19.480     6.305
    47   8 O        1.704    -0.272    18.512     5.809
    48   6 C        3.066     0.013    27.665     8.625
    49   6 C        2.972     0.009    27.807     8.650
    50   6 C        2.925    -0.033    28.810     8.802
    51   6 C        2.919    -0.028    28.711     8.787
    52   6 C        2.920    -0.031    28.776     8.797
    53   6 C        2.919    -0.029    28.731     8.790
    54   6 C        2.924    -0.034    28.851     8.808
    55   6 C        2.927    -0.030    28.758     8.794
    56   6 C        2.918    -0.030    28.748     8.792
    57   1 H        0.926     0.026     2.640     2.541
    58   1 H        0.926     0.026     2.650     2.546
    59   1 H        0.926     0.025     2.654     2.548
    60   1 H        0.926     0.024     2.669     2.555
    61   1 H        0.926     0.028     2.611     2.527
    62   1 H        0.926     0.031     2.573     2.508
    63   1 H        0.926     0.031     2.567     2.505
    64   1 H        0.926     0.031     2.568     2.506
    65   1 H        0.926     0.031     2.575     2.509
    66   1 H        0.926     0.029     2.595     2.519
    67   1 H        0.926     0.031     2.575     2.509
    68   1 H        0.926     0.031     2.573     2.508
    69   1 H        0.926     0.031     2.566     2.505
    70   1 H        0.926     0.031     2.570     2.507
    71   1 H        0.926     0.030     2.587     2.515
    72   1 H        0.926     0.031     2.569     2.506
    73   1 H        0.926     0.031     2.573     2.508
    74   1 H        0.926     0.033     2.546     2.495
    75   1 H        0.926     0.036     2.505     2.475
    76   1 H        0.926     0.033     2.546     2.495
    77   1 H        0.926     0.029     2.604     2.523
    78   1 H        0.926     0.032     2.562     2.503
    79   1 H        0.926     0.057     2.235     2.338
    80   1 H        0.926     0.051     2.307     2.375
    81   1 H        0.926     0.061     2.187     2.313
    82   1 H        0.926     0.061     2.189     2.314
    83   1 H        0.924     0.058     2.224     2.332
    84   1 H        0.923     0.044     2.393     2.419
    85   1 H        0.923     0.044     2.400     2.423
    86   1 H        0.924     0.058     2.227     2.333
    87   1 H        0.926     0.034     2.531     2.488
    88   1 H        0.926     0.032     2.556     2.500
    89   1 H        0.926     0.031     2.575     2.510
    90   1 H        0.926     0.029     2.596     2.520
    91   1 H        0.926     0.025     2.661     2.551
    92   1 H        0.926     0.050     2.323     2.384
    93   1 H        0.926     0.028     2.609     2.526

molecular dipole:
                 x           y           z       tot (Debye)
 q only:        0.585       1.199      -0.043
   full:        0.576       1.796      -0.006       4.793

 projected vibrational frequencies (cm⁻¹)
eigval :       -0.00    -0.00    -0.00     0.00     0.00     0.00
eigval :        7.12     8.56    13.83    17.93    21.99    28.99
eigval :       31.65    33.31    37.25    42.13    50.55    51.95
eigval :       56.87    67.14    70.19    72.15    77.85    96.49
eigval :      101.41   110.36   113.04   121.26   129.67   148.74
eigval :      159.17   172.96   183.20   191.62   202.25   209.00
eigval :      225.43   232.74   237.53   242.61   258.32   263.26
eigval :      303.75   308.24   314.21   325.86   328.53   350.33
eigval :      364.42   371.02   376.59   377.94   378.58   381.36
eigval :      387.43   396.40   404.22   411.93   421.51   431.42
eigval :      437.59   441.83   464.37   466.62   475.34   478.59
eigval :      486.74   494.06   504.73   508.15   528.16   538.44
eigval :      551.66   571.11   581.68   586.26   587.30   587.73
eigval :      590.64   594.28   599.15   603.23   620.93   628.05
eigval :      645.38   652.90   657.89   659.40   660.51   666.26
eigval :      672.35   673.16   680.28   687.58   691.65   694.32
eigval :      730.62   731.41   737.04   756.70   760.97   762.17
eigval :      764.72   774.46   781.25   782.88   817.75   830.31
eigval :      846.72   858.63   871.23   872.71   874.17   876.27
eigval :      877.80   878.65   882.14   891.18   891.79   900.74
eigval :      901.63   902.18   905.53   910.17   914.23   918.17
eigval :      921.89   922.69   927.30   928.03   928.62   929.14
eigval :      929.23   929.93   930.20   931.44   931.97   932.15
eigval :      937.36   948.34   952.38   955.02   981.37   987.99
eigval :     1004.92  1021.83  1026.30  1040.46  1057.80  1073.59
eigval :     1082.19  1083.37  1083.79  1084.35  1090.76  1105.07
eigval :     1115.79  1119.22  1121.33  1122.08  1124.40  1126.41
eigval :     1133.69  1139.84  1165.03  1176.67  1180.76  1180.86
eigval :     1181.82  1182.04  1182.93  1186.72  1187.24  1193.45
eigval :     1195.97  1196.90  1198.23  1201.31  1207.93  1215.50
eigval :     1217.24  1223.62  1234.06  1249.61  1264.98  1269.55
eigval :     1273.99  1277.51  1278.75  1282.94  1284.68  1287.98
eigval :     1304.06  1309.91  1312.11  1316.34  1317.40  1320.96
eigval :     1322.12  1323.25  1325.56  1327.77  1335.80  1337.08
eigval :     1368.76  1374.50  1383.17  1397.95  1406.51  1414.60
eigval :     1428.97  1434.09  1436.40  1441.87  1443.14  1446.80
eigval :     1455.16  1455.86  1457.27  1472.73  1477.27  1487.05
eigval :     1489.80  1491.49  1509.90  1529.15  1556.05  1560.27
eigval :     1562.64  1572.90  1577.00  1578.90  1579.45  1581.14
eigval :     1582.86  1595.41  1596.25  1596.94  1597.90  1600.09
eigval :     1602.15  1608.69  2895.47  2912.58  3001.20  3005.05
eigval :     3068.00  3071.81  3072.46  3072.87  3072.92  3074.77
eigval :     3075.33  3075.72  3076.11  3076.39  3076.85  3078.62
eigval :     3082.81  3082.99  3084.14  3085.43  3085.72  3086.43
eigval :     3087.30  3088.12  3088.77  3089.48  3090.38  3092.05
eigval :     3092.44  3094.64  3096.88  3097.52  3103.27  3104.19
eigval :     3113.17  3113.45  3118.27

   temp. (K)  partition function   enthalpy   heat capacity  entropy
                                   cal/mol     cal/K/mol   cal/K/mol   J/K/mol
 298.15  VIB  0.146E+23            26755.435    165.686    168.999
         ROT  0.155E+09              888.752      2.981     40.462
         INT  0.226E+31            27644.187    168.667    209.461
         TR   0.188E+29             1481.254      4.968     45.598
         TOT                       29125.4409   173.6347   255.0584  1067.1643

       T/K    H(0)-H(T)+PV         H(T)/Eh          T*S/Eh         G(T)/Eh
   ------------------------------------------------------------------------
    298.15    0.464143E-01    0.767278E+00    0.121186E+00    0.646091E+00
   ------------------------------------------------------------------------

         :::::::::::::::::::::::::::::::::::::::::::::::::::::
         ::                  THERMODYNAMIC                  ::
         :::::::::::::::::::::::::::::::::::::::::::::::::::::
         :: total free energy        -144.379358252141 Eh   ::
         ::.................................................::
         :: total energy             -145.025449489138 Eh   ::
         :: zero point energy           0.720863363834 Eh   ::
         :: G(RRHO) w/o ZPVE           -0.074772126837 Eh   ::
         :: G(RRHO) contrib.            0.646091236997 Eh   ::
         :::::::::::::::::::::::::::::::::::::::::::::::::::::

           -------------------------------------------------
          | TOTAL ENERGY             -145.025449489138 Eh   |
          | TOTAL ENTHALPY           -144.258171780870 Eh   |
          | TOTAL FREE ENERGY        -144.379358252141 Eh   |
          | GRADIENT NORM               0.000047098080 Eh/α |
          | HOMO-LUMO GAP               2.247383653951 eV   |
           -------------------------------------------------

 * finished run on 2025/09/12 at 18:58:58.602
