   * xtb version 6.7.1 (edcfbbe) compiled by 'albert@albert-system' on 2024-07-22

   ID    Z sym.   atoms
    1    6 C      1-5, 7-15, 17-36, 38-43, 45, 46, 48-56
    2    7 N      6, 16, 37
    3    8 O      44, 47
    4    1 H      57-93

          program call               : xtb data2507/gas/DDBP/DDBP_gas_S0_finalOpt.xtbopt.xyz --gfn 2 --spinpol --tblite --uhf 2 --ohess vtight --parallel 40 --molden --ceasefiles --namespace data2507/gas/DDBP/DDBP_gas_T1_preOpt
 * total energy  :  -144.9369083 Eh     change       -0.5583465E-07 Eh
 * total energy  :  -144.9441358 Eh     change       -0.7227548E-02 Eh
 * total energy  :  -144.9468743 Eh     change       -0.2738415E-02 Eh
 * total energy  :  -144.9476687 Eh     change       -0.7944354E-03 Eh
 * total energy  :  -144.9487122 Eh     change       -0.1043553E-02 Eh
 * total energy  :  -144.9494058 Eh     change       -0.6935328E-03 Eh
 * total energy  :  -144.9499121 Eh     change       -0.5062947E-03 Eh
 * total energy  :  -144.9502240 Eh     change       -0.3119268E-03 Eh
 * total energy  :  -144.9504645 Eh     change       -0.2405242E-03 Eh
 * total energy  :  -144.9506822 Eh     change       -0.2176712E-03 Eh
 * total energy  :  -144.9525292 Eh     change       -0.7528923E-06 Eh
 * total energy  :  -144.9525298 Eh     change       -0.6312349E-06 Eh
 * total energy  :  -144.9525304 Eh     change       -0.5713504E-06 Eh
 * total energy  :  -144.9525309 Eh     change       -0.4898444E-06 Eh
 * total energy  :  -144.9525313 Eh     change       -0.4585290E-06 Eh
 * total energy  :  -144.9525317 Eh     change       -0.4099278E-06 Eh
 * total energy  :  -144.9525321 Eh     change       -0.3604652E-06 Eh
 * total energy  :  -144.9525321 Eh     change        0.1848022E-07 Eh
 * total energy  :  -144.9525321 Eh     change       -0.2112657E-07 Eh
   *** GEOMETRY OPTIMIZATION CONVERGED AFTER 95 ITERATIONS ***

 final structure:
================
93
 xtb: 6.7.1 (edcfbbe)
C           -7.65278292800962       -5.10373917509663        0.19980277092179
C           -6.68102732273156       -5.17734818975232       -0.78543463899476
C           -5.72969047411949       -4.18266041064247       -0.89648932348124
C           -5.74113810411839       -3.09283553077621       -0.02593737227304
C           -4.71701088426652       -2.06995134421727       -0.17097114744500
N           -3.50560342230792       -2.37595699208266       -0.66045945292905
C           -2.78135525208414       -1.25614453788156       -0.66679702614484
C           -1.45270909890507       -1.18506129696745       -1.12341661522285
C           -0.65609789217341       -2.37549007905218       -1.05739053024103
C            0.69465432682028       -2.29848614806017       -1.08032091097841
C            1.37148274362280       -1.03733789459327       -1.17172399396871
C            2.74917615735130       -0.93048419584872       -0.81739333668835
C            3.26226569729623        0.24257763152019       -0.21514508953242
C            4.57717098364134        0.34956715041484        0.15113822368387
C            5.47094105019348       -0.70960076979198       -0.06547814982927
N            6.81254944914089       -0.59427939193809        0.29052413466010
C            7.46878015994862        0.63301747636688        0.15470545901078
C            8.41709855633941        1.03688766149438        1.09561207787801
C            9.06359615414770        2.24882289568754        0.95427057473768
C            8.77388262524411        3.07883059267491       -0.11690734263765
C            7.83038053942342        2.68413282130545       -1.05193267693529
C            7.18269160906923        1.47148031994794       -0.92369051861538
C            7.50536178578942       -1.70475286545500        0.78344657084357
C            8.84248819240095       -1.91297201536224        0.44259951490575
C            9.52172682568115       -3.01023163430368        0.93395275859577
C            8.88291866911889       -3.91812057937759        1.76333783660489
C            7.55422088859648       -3.71765929155397        2.10189080991649
C            6.86742403147056       -2.62038554847863        1.62135031579223
C            4.97697697075437       -1.88862167993971       -0.64039574460207
C            3.65772108423348       -1.99907699060932       -0.99320225759164
C            0.59578671279876        0.09022920644224       -1.62438810141835
C            1.19401778608076        1.22837724049858       -2.17455093540025
C            0.43416673960910        2.26382377108436       -2.69806351815329
C           -0.94116514656144        2.15139149440876       -2.75431350545500
C           -1.55705276599904        1.01269813706294       -2.25662945427751
C           -0.81972995405249        0.00257958899971       -1.64082682513586
N           -3.52571765774559       -0.20650552099194       -0.13009857467080
C           -3.04782235107541        1.07738927494714        0.17011090633575
C           -1.85059586864697        1.22061669788209        0.86699819488097
C           -1.33869814074067        2.47849604248107        1.10055316773578
C           -2.01682174821786        3.60942244945629        0.66371447384764
C           -3.25052705351381        3.46803213004105        0.01980057971959
C           -3.75367891939744        2.20166304239299       -0.23591179988509
O           -3.98879801596690        4.54758350673594       -0.38730626855779
C           -3.55022744497512        5.76760976715354        0.16763260953141
C           -2.02664530473996        5.85943563789735        0.09841052207620
O           -1.44525194146903        4.83761558927384        0.87638394207250
C           -4.76712865138376       -0.71053048603270        0.17345164666772
C           -5.84732263408677        0.08047568180088        0.73022915988809
C           -5.63670922380016        0.93800514485248        1.81226809130651
C           -6.68089241435879        1.68355430931952        2.32387831937918
C           -7.94661265972265        1.59066188106196        1.76815666732354
C           -8.16650380737468        0.73700392410936        0.69803808480377
C           -7.12928474743523       -0.01320922937523        0.18185120435795
C           -6.70883941698139       -3.03651031235786        0.97597472083876
C           -7.65775902164682       -4.03557263745477        1.08213393736770
H           -8.39923716895018       -5.87995694338242        0.28545836551912
H           -6.66727512260527       -6.01450426516462       -1.46838268810123
H           -4.96325622419266       -4.22643879898091       -1.65464149325230
H           -1.17223626775573       -3.30769542265153       -0.89322524770890
H            1.28111235311673       -3.19118163818955       -0.92853283337367
H            2.58210938838123        1.04862580527740        0.01631374754582
H            4.93402774339384        1.24730625048355        0.63567767958936
H            8.63579880812482        0.39670252882133        1.93774209404843
H            9.79341839285387        2.55131172761096        1.69069432546133
H            9.28004056577125        4.02624775983903       -0.22231500089764
H            7.60318588273276        3.32209351949654       -1.89325282073084
H            6.45731524569502        1.15879498529384       -1.66028142007843
H            9.33863214511989       -1.21278184773099       -0.21349101061498
H           10.55543421288358       -3.16212086436681        0.66041054568757
H            9.41688080707611       -4.77573469626043        2.14313875496675
H            7.05052868078967       -4.41713928509824        2.75255805290119
H            5.83551592123698       -2.45809799564061        1.89587000319800
H            5.65680800806857       -2.70820996360102       -0.82480602608190
H            3.32243273321995       -2.90501931604285       -1.47385146405804
H            2.27050452984391        1.28884830079386       -2.22782289981118
H            0.92710490522218        3.14030561313245       -3.09347687077611
H           -1.53947511756780        2.93163159346886       -3.20166449274912
H           -2.62384124457021        0.89562353099332       -2.37063173601918
H           -1.31844621203936        0.34514849763360        1.20484144266950
H           -0.40174898101939        2.61175782460103        1.61622861700796
H           -4.69066129131620        2.11584341028764       -0.76249296912556
H           -4.02448123131416        6.56042530358385       -0.41249508836136
H           -3.86834542899798        5.83714531720708        1.21703394208742
H           -1.70597138268110        5.76088254303766       -0.94784567635769
H           -1.66598762366472        6.80453689070009        0.50655052037278
H           -4.65704050489646        1.00119901874645        2.26317928370965
H           -6.50671475654243        2.33894285845992        3.16489178874082
H           -8.75924817573000        2.17802028147253        2.16895167574661
H           -9.15157624256626        0.65994627662329        0.26167457106665
H           -7.29732181643697       -0.67386535637536       -0.65604269269752
H           -6.70743416117621       -2.21912574398573        1.68153019785068
H           -8.40371139563819       -3.98314927765614        1.86218341652003

 projected vibrational frequencies (cm⁻¹)
eigval :       -0.00    -0.00    -0.00     0.00     0.00     0.00
eigval :        7.74     9.54    11.27    19.68    21.68    28.57
eigval :       32.17    36.41    40.71    47.93    52.04    56.73
eigval :       59.13    62.45    72.33    80.43    81.67    95.54
eigval :      106.36   112.64   115.50   126.89   138.10   149.29
eigval :      164.80   169.48   187.78   197.71   213.76   216.99
eigval :      218.79   232.05   238.65   251.49   255.43   259.29
eigval :      293.14   303.04   310.25   315.74   321.57   347.40
eigval :      357.88   361.23   371.19   377.80   378.00   379.94
eigval :      383.66   390.52   396.43   408.86   411.40   426.95
eigval :      438.28   453.83   457.68   467.70   469.14   472.79
eigval :      479.51   495.95   502.25   505.14   519.33   526.72
eigval :      534.31   549.00   573.86   579.29   584.17   585.70
eigval :      588.22   588.66   593.02   600.88   611.43   616.90
eigval :      637.59   642.36   652.84   654.81   658.80   660.71
eigval :      664.10   670.12   674.75   678.41   680.58   691.53
eigval :      707.68   724.17   733.20   756.40   760.03   760.19
eigval :      764.03   768.38   772.48   774.39   783.28   813.31
eigval :      830.57   843.64   850.69   869.50   872.75   874.61
eigval :      875.83   877.10   877.67   888.92   890.74   892.48
eigval :      898.87   899.30   903.09   903.42   906.27   909.31
eigval :      913.37   915.18   921.53   927.17   928.13   928.64
eigval :      928.84   929.15   929.63   929.68   931.15   931.39
eigval :      939.66   941.83   948.18   953.72   979.34   983.23
eigval :     1003.52  1011.01  1011.80  1040.85  1047.50  1073.05
eigval :     1081.01  1082.03  1082.89  1083.14  1087.30  1096.79
eigval :     1106.77  1115.71  1118.70  1121.77  1121.79  1123.91
eigval :     1124.04  1140.17  1145.64  1152.62  1172.64  1177.15
eigval :     1180.14  1180.26  1180.96  1181.34  1181.53  1184.80
eigval :     1188.64  1193.75  1196.19  1197.18  1201.28  1207.63
eigval :     1217.53  1219.86  1231.90  1242.68  1255.39  1266.86
eigval :     1271.14  1274.92  1277.09  1279.29  1280.99  1284.39
eigval :     1301.40  1303.32  1304.23  1312.53  1316.16  1318.00
eigval :     1318.23  1319.11  1322.81  1327.17  1327.75  1335.50
eigval :     1338.81  1342.64  1362.65  1379.54  1400.00  1414.38
eigval :     1426.39  1430.12  1431.13  1433.28  1435.52  1439.78
eigval :     1441.57  1443.69  1454.55  1456.17  1457.83  1467.21
eigval :     1469.58  1476.57  1485.59  1490.49  1493.75  1519.83
eigval :     1534.23  1537.72  1561.75  1566.83  1569.64  1571.50
eigval :     1576.04  1577.42  1578.77  1588.35  1588.96  1594.43
eigval :     1595.58  1596.40  2894.12  2911.06  2999.01  3003.00
eigval :     3067.89  3069.75  3072.94  3073.24  3074.73  3075.46
eigval :     3076.38  3077.34  3077.85  3078.10  3079.01  3079.47
eigval :     3084.19  3085.44  3087.21  3087.52  3088.25  3088.31
eigval :     3088.49  3090.62  3091.26  3091.47  3092.89  3093.63
eigval :     3094.69  3097.30  3098.77  3099.28  3100.90  3104.25
eigval :     3108.09  3113.41  3117.09

   temp. (K)  partition function   enthalpy   heat capacity  entropy
                                   cal/mol     cal/K/mol   cal/K/mol   J/K/mol
 298.15  VIB  0.796E+22            26864.855    167.494    169.114
         ROT  0.151E+09              888.752      2.981     40.410
         INT  0.120E+31            27753.607    170.475    209.524
         TR   0.188E+29             1481.254      4.968     45.598
         TOT                       29234.8609   175.4434   255.1219  1067.4300

       T/K    H(0)-H(T)+PV         H(T)/Eh          T*S/Eh         G(T)/Eh
   ------------------------------------------------------------------------
    298.15    0.465887E-01    0.764333E+00    0.121217E+00    0.643116E+00
   ------------------------------------------------------------------------

         :::::::::::::::::::::::::::::::::::::::::::::::::::::
         ::                  THERMODYNAMIC                  ::
         :::::::::::::::::::::::::::::::::::::::::::::::::::::
         :: total free energy        -144.309415786566 Eh   ::
         ::.................................................::
         :: total energy             -144.952531989177 Eh   ::
         :: zero point energy           0.717744127283 Eh   ::
         :: G(RRHO) w/o ZPVE           -0.074627924672 Eh   ::
         :: G(RRHO) contrib.            0.643116202611 Eh   ::
         :::::::::::::::::::::::::::::::::::::::::::::::::::::

           -------------------------------------------------
          | TOTAL ENERGY             -144.952531989177 Eh   |
          | TOTAL ENTHALPY           -144.188199145624 Eh   |
          | TOTAL FREE ENERGY        -144.309415786566 Eh   |
          | GRADIENT NORM               0.000063835938 Eh/α |
           -------------------------------------------------

 * finished run on 2025/09/12 at 19:09:07.004
