   * xtb version 6.7.1 (edcfbbe) compiled by 'albert@albert-system' on 2024-07-22

   ID    Z sym.   atoms
    1    6 C      1-4, 6-13, 15-28, 30-44, 46-53
    2    7 N      5, 14, 29, 45
    3    1 H      54-85

          program call               : xtb data2507/toluene/DCbz-Ph-Bz/DCbz-Ph-Bz_toluene_T1_crest.xyz --gfn 2 --uhf 2 --gbsa toluene --ohess vtight --parallel 40 --molden --ceasefiles --namespace data2507/toluene/DCbz-Ph-Bz/DCbz-Ph-Bz_toluene_T1_finalOpt
      * Solvation model:               GBSA
        Solvent                        toluene
        Solvent mass                       9.2140E+01 g/mol
          :  Hamiltonian                  GFN2-xTB          :
 * total energy  :  -133.0065560 Eh     change       -0.1527781E-08 Eh
 * total energy  :  -133.0066037 Eh     change       -0.4771685E-04 Eh
 * total energy  :  -133.0066263 Eh     change       -0.2261596E-04 Eh
 * total energy  :  -133.0066338 Eh     change       -0.7553091E-05 Eh
 * total energy  :  -133.0066413 Eh     change       -0.7482875E-05 Eh
 * total energy  :  -133.0066479 Eh     change       -0.6544308E-05 Eh
 * total energy  :  -133.0066540 Eh     change       -0.6172874E-05 Eh
 * total energy  :  -133.0066597 Eh     change       -0.5666519E-05 Eh
 * total energy  :  -133.0066642 Eh     change       -0.4503085E-05 Eh
 * total energy  :  -133.0066677 Eh     change       -0.3437732E-05 Eh
 * total energy  :  -133.0067067 Eh     change       -0.6540096E-06 Eh
 * total energy  :  -133.0067074 Eh     change       -0.7311040E-06 Eh
 * total energy  :  -133.0067079 Eh     change       -0.5139940E-06 Eh
 * total energy  :  -133.0067083 Eh     change       -0.3297243E-06 Eh
 * total energy  :  -133.0067085 Eh     change       -0.2502015E-06 Eh
 * total energy  :  -133.0067087 Eh     change       -0.2244830E-06 Eh
 * total energy  :  -133.0067089 Eh     change       -0.1933647E-06 Eh
 * total energy  :  -133.0067091 Eh     change       -0.1452568E-06 Eh
 * total energy  :  -133.0067092 Eh     change       -0.9065766E-07 Eh
   *** GEOMETRY OPTIMIZATION CONVERGED AFTER 39 ITERATIONS ***

 final structure:
================
85
 xtb: 6.7.1 (edcfbbe)
C            6.03854548006220        3.90983020895767        0.47604004469561
C            6.72101977612839        3.38133719074196       -0.60780331917254
C            6.75692989593156        2.01351298033795       -0.81072276039854
C            6.10426004343281        1.16407848947792        0.07854836748976
N            6.17102198158507       -0.22586829296907       -0.10355769169228
C            5.13036369267562       -1.16654060942827       -0.03157684682209
C            3.75896186773376       -0.90774736439920       -0.09632066881752
C            2.85158986563640       -1.98092066245393        0.18376013454472
C            1.50838319521534       -1.79819754667748        0.17525208376897
C            0.92033506418692       -0.53230927493508       -0.12206798548546
C           -0.49428330287003       -0.32709037198476       -0.09605718844125
C           -1.04969284427028        0.96769668828556        0.02599911879845
C           -2.41533343258737        1.16441472766264        0.05795185430705
N           -2.93240721592044        2.46485166437261        0.17775405985207
C           -2.59067410305279        3.54158317703420       -0.61412922561778
C           -1.73301887122235        3.59888240240813       -1.70467483556949
C           -1.58695443573065        4.81405117885531       -2.34719512706634
C           -2.27995926126370        5.94688534295620       -1.92554962161402
C           -3.15267697879197        5.89043891359478       -0.85450604248489
C           -3.31646771671349        4.68106234942380       -0.19370811640317
C           -4.12955049300302        4.25914418771392        0.91515941347939
C           -5.02816152059604        4.91373909523203        1.74567830339679
C           -5.63791159002654        4.19567406122450        2.75796614286108
C           -5.35041836541394        2.84669416222654        2.95458126156962
C           -4.45884549845532        2.17308795732676        2.14078871674299
C           -3.86107968682005        2.88307305275156        1.10784147838481
C           -3.29772157961458        0.08343683932389       -0.02326742121735
C           -2.76737325124625       -1.20453408368208       -0.14258365583552
N           -3.63937284234167       -2.30233066705470       -0.22171147603965
C           -4.70307166272370       -2.43098585748130       -1.09038452505956
C           -5.13935050484155       -1.56928487711867       -2.08828577290782
C           -6.23450723004861       -1.95388168574840       -2.83923851287500
C           -6.87820830354457       -3.16911869076992       -2.61641262739965
C           -6.43265293681196       -4.04286115227839       -1.64142525080503
C           -5.33595281314867       -3.67813981468248       -0.87362369099506
C           -4.60797837318790       -4.32577851004906        0.18453011718673
C           -4.75183435014405       -5.54037253770072        0.84015277638881
C           -3.86690290414356       -5.85342632710452        1.85558627205664
C           -2.86005963663235       -4.96577191497202        2.22905522925373
C           -2.69679275890655       -3.75058803953042        1.59066752773187
C           -3.56696083493076       -3.44154455100417        0.55350306515543
C           -1.40274624392276       -1.40700714816904       -0.18315498148323
C            1.82552741046814        0.51516384007589       -0.46375871914695
C            3.17247320733539        0.34345978533017       -0.46210846801291
N            5.62308510519900       -2.42638150670558        0.02496283264909
C            6.95276126798796       -2.32061490227966       -0.05373259962282
C            7.93781375152610       -3.32156973343918       -0.04989599196393
C            9.25510139499092       -2.92743839465690       -0.09899244471626
C            9.61893854259879       -1.57694983232865       -0.14535948204989
C            8.66734484595657       -0.56493663216844       -0.15933316395866
C            7.34085577449119       -0.94439260608900       -0.13096752590203
C            5.42380392546846        1.69586662111312        1.17325340157056
C            5.38920225061746        3.06398219314473        1.36233131257437
H            6.01178422155932        4.97793225228913        0.62986861668592
H            7.22502261219356        4.03633375221402       -1.30305768270881
H            7.27271279213890        1.59679746445483       -1.66345054404792
H            3.28573436622035       -2.93725312899793        0.42959035387462
H            0.87155128124410       -2.62855267134574        0.43779104223197
H           -0.40312066202298        1.82172208946061        0.14665380491934
H           -1.20461685629587        2.72184899957401       -2.04665143406123
H           -0.92328670496217        4.88583261226243       -3.19644828024693
H           -2.13667866028532        6.87944710979460       -2.45115609184087
H           -3.70018704789128        6.76588925148775       -0.53935156352917
H           -5.24120732034851        5.96264828651144        1.60459088493741
H           -6.34128990176707        4.68652076358363        3.41426227817807
H           -5.83102935722927        2.31627916833712        3.76347637326782
H           -4.22844633718061        1.13249901362602        2.31184512816002
H           -4.36371878469964        0.23940071888070        0.00749014935416
H           -4.63540393404509       -0.63456925761791       -2.28142014561077
H           -6.59575123767890       -1.29987730886263       -3.61924351404931
H           -7.73172898913031       -3.43353909667721       -3.22298695352299
H           -6.92293299138619       -4.99123712066465       -1.48135225056526
H           -5.54163410007922       -6.22240764056837        0.56354961253143
H           -3.95993509445527       -6.79527198493882        2.37578393781791
H           -2.19356406763111       -5.23168112547315        3.03632652654138
H           -1.92381577217561       -3.06189627643161        1.89636857623919
H           -1.03522309779485       -2.40938558861532       -0.33033046267154
H            1.43059023650102        1.46722644950020       -0.78432766483835
H            3.80965196627013        1.15175845165201       -0.78548399352459
H            7.65044956212625       -4.36003555491626       -0.00595299600798
H           10.03474752310891       -3.67539017666376       -0.09629128113249
H           10.66605319730192       -1.31442634201792       -0.16937371128984
H            8.95964944853594        0.47416422806410       -0.18277188419587
H            4.92526457326403        1.02897599507554        1.86159200502662
H            4.85909831299466        3.47102976761056        2.21048733349087

          :  Hamiltonian                  GFN2-xTB          :
         :: gradient norm              0.000038038876 Eh/a0 ::
         :: HOMO-LUMO gap              0.847281901132 eV    ::
         :: SCC energy              -135.486225096972 Eh    ::
         :: -> dispersion             -0.119778743886 Eh    ::
         :: -> Gsolv                  -0.056827110196 Eh    ::
         :: repulsion energy           2.479515938764 Eh    ::

    * Orbital Energies and Occupations

         #    Occupation            Energy/Eh            Energy/eV
      -------------------------------------------------------------
         1        2.0000           -0.6827069             -18.5774
       ...           ...                  ...                  ...
       113        2.0000           -0.4106274             -11.1737
       114        2.0000           -0.4104002             -11.1676
       115        2.0000           -0.4092539             -11.1364
       116        2.0000           -0.4051529             -11.0248
       117        2.0000           -0.3991150             -10.8605
       118        2.0000           -0.3841732             -10.4539
       119        2.0000           -0.3839639             -10.4482
       120        2.0000           -0.3814965             -10.3810
       121        2.0000           -0.3760146             -10.2319
       122        1.9772           -0.3695525             -10.0560
       123        1.8560           -0.3676771             -10.0050
       124        1.1668           -0.3644556              -9.9173
       125        1.0000           -0.2822144              -7.6794 (HOMO)
       126                         -0.2510766              -6.8321 (LUMO)
       127                         -0.2502655              -6.8101
       128                         -0.2425447              -6.6000
       129                         -0.2364166              -6.4332
       130                         -0.2340842              -6.3698
       131                         -0.2332903              -6.3482
       132                         -0.2277660              -6.1978
       133                         -0.2275960              -6.1932
       134                         -0.2140883              -5.8256
       135                         -0.2103070              -5.7227
       136                         -0.2050559              -5.5799
       ...                                ...                  ...
       244                          0.7395209              20.1234
      -------------------------------------------------------------
                  HL-Gap            0.0311378 Eh            0.8473 eV

     #   Z          covCN         q      C6AA      α(0)
     1   6 C        2.919    -0.033    28.828     8.805
     2   6 C        2.919    -0.028    28.706     8.786
     3   6 C        2.921    -0.043    29.078     8.843
     4   6 C        2.913     0.065    26.534     8.447
     5   7 N        2.807    -0.073    22.657     7.070
     6   6 C        3.130     0.132    24.922     8.173
     7   6 C        2.967    -0.014    28.348     8.733
     8   6 C        2.918    -0.034    28.852     8.808
     9   6 C        2.913    -0.038    28.942     8.822
    10   6 C        2.970     0.001    27.997     8.679
    11   6 C        2.968     0.010    27.801     8.649
    12   6 C        2.925    -0.056    29.382     8.889
    13   6 C        2.907     0.062    26.611     8.459
    14   7 N        2.804    -0.033    21.870     6.946
    15   6 C        3.075     0.048    26.856     8.497
    16   6 C        2.909    -0.048    29.187     8.859
    17   6 C        2.923    -0.033    28.825     8.804
    18   6 C        2.920    -0.038    28.957     8.824
    19   6 C        2.912    -0.032    28.802     8.800
    20   6 C        3.066    -0.015    28.330     8.728
    21   6 C        3.066    -0.015    28.328     8.728
    22   6 C        2.912    -0.032    28.800     8.800
    23   6 C        2.920    -0.038    28.951     8.824
    24   6 C        2.923    -0.033    28.822     8.804
    25   6 C        2.909    -0.048    29.181     8.858
    26   6 C        3.075     0.048    26.851     8.496
    27   6 C        2.922    -0.065    29.608     8.923
    28   6 C        2.907     0.062    26.611     8.459
    29   7 N        2.804    -0.031    21.848     6.942
    30   6 C        3.074     0.048    26.852     8.496
    31   6 C        2.909    -0.047    29.174     8.857
    32   6 C        2.923    -0.033    28.821     8.804
    33   6 C        2.920    -0.038    28.944     8.822
    34   6 C        2.912    -0.032    28.795     8.799
    35   6 C        3.066    -0.015    28.320     8.726
    36   6 C        3.066    -0.015    28.324     8.727
    37   6 C        2.912    -0.032    28.795     8.799
    38   6 C        2.920    -0.038    28.943     8.822
    39   6 C        2.923    -0.033    28.816     8.803
    40   6 C        2.909    -0.047    29.177     8.857
    41   6 C        3.075     0.048    26.857     8.497
    42   6 C        2.925    -0.055    29.376     8.888
    43   6 C        2.914    -0.037    28.910     8.817
    44   6 C        2.909    -0.041    29.025     8.834
    45   7 N        1.878    -0.329    29.383     8.035
    46   6 C        3.149     0.086    25.830     8.313
    47   6 C        2.908    -0.055    29.372     8.887
    48   6 C        2.918    -0.039    28.979     8.828
    49   6 C        2.924    -0.036    28.901     8.816
    50   6 C        2.905    -0.061    29.526     8.910
    51   6 C        3.061     0.049    26.853     8.498
    52   6 C        2.921    -0.040    28.994     8.830
    53   6 C        2.919    -0.027    28.680     8.782
    54   1 H        0.926     0.042     2.417     2.431
    55   1 H        0.926     0.042     2.417     2.431
    56   1 H        0.926     0.039     2.464     2.455
    57   1 H        0.926     0.046     2.374     2.409
    58   1 H        0.926     0.035     2.510     2.477
    59   1 H        0.926     0.046     2.371     2.408
    60   1 H        0.926     0.034     2.523     2.484
    61   1 H        0.926     0.034     2.524     2.484
    62   1 H        0.926     0.033     2.540     2.492
    63   1 H        0.926     0.036     2.504     2.475
    64   1 H        0.926     0.036     2.503     2.474
    65   1 H        0.926     0.034     2.537     2.491
    66   1 H        0.926     0.035     2.518     2.481
    67   1 H        0.926     0.035     2.520     2.482
    68   1 H        0.926     0.048     2.345     2.395
    69   1 H        0.926     0.035     2.516     2.480
    70   1 H        0.926     0.035     2.515     2.480
    71   1 H        0.926     0.034     2.532     2.488
    72   1 H        0.926     0.036     2.497     2.471
    73   1 H        0.926     0.036     2.498     2.472
    74   1 H        0.926     0.034     2.532     2.488
    75   1 H        0.926     0.035     2.511     2.478
    76   1 H        0.926     0.036     2.506     2.476
    77   1 H        0.926     0.047     2.360     2.402
    78   1 H        0.926     0.033     2.539     2.492
    79   1 H        0.926     0.024     2.672     2.556
    80   1 H        0.926     0.037     2.492     2.469
    81   1 H        0.926     0.034     2.528     2.486
    82   1 H        0.926     0.036     2.506     2.475
    83   1 H        0.926     0.030     2.589     2.516
    84   1 H        0.926     0.034     2.524     2.484
    85   1 H        0.926     0.043     2.415     2.430

molecular dipole:
                 x           y           z       tot (Debye)
 q only:       -1.815       1.243       0.053
   full:       -1.473       1.516       0.025       5.374

 projected vibrational frequencies (cm⁻¹)
eigval :       -0.00    -0.00    -0.00     0.00     0.00     0.00
eigval :        9.67    12.42    15.90    19.19    20.79    22.56
eigval :       33.09    39.79    56.40    60.91    68.78    69.62
eigval :       79.01    94.18    96.97   104.26   114.76   125.60
eigval :      138.13   140.48   146.70   155.87   179.70   205.77
eigval :      218.24   218.82   230.64   236.97   247.14   252.28
eigval :      267.35   269.59   270.32   300.01   302.72   311.71
eigval :      355.20   361.59   365.36   376.81   381.47   391.33
eigval :      394.22   395.70   403.58   415.10   420.92   422.30
eigval :      430.77   434.87   435.13   471.74   483.72   501.31
eigval :      515.25   515.42   516.96   522.84   536.19   537.20
eigval :      539.16   543.56   555.77   571.73   583.07   584.72
eigval :      585.81   586.89   600.22   604.69   613.10   620.11
eigval :      627.93   634.22   651.52   663.55   665.40   671.31
eigval :      673.16   674.69   698.18   703.70   708.13   709.00
eigval :      747.49   747.84   752.89   757.72   766.14   767.16
eigval :      768.05   777.06   777.77   789.16   799.16   804.64
eigval :      807.54   842.25   844.28   851.05   858.07   869.59
eigval :      870.99   871.45   872.82   873.26   874.14   879.07
eigval :      895.28   897.64   897.96   901.57   901.92   903.27
eigval :      903.32   907.13   907.46   911.97   917.85   918.26
eigval :      918.60   922.33   924.48   925.38   928.47   933.14
eigval :      955.75   985.35  1000.56  1009.89  1010.39  1030.90
eigval :     1052.13  1066.22  1067.40  1069.29  1070.35  1074.13
eigval :     1076.09  1080.71  1115.46  1117.33  1118.09  1121.85
eigval :     1137.51  1144.18  1145.75  1158.15  1162.65  1168.23
eigval :     1174.21  1177.32  1178.07  1178.23  1179.06  1184.94
eigval :     1188.89  1200.65  1220.04  1227.67  1230.85  1231.90
eigval :     1235.20  1236.94  1253.21  1257.52  1276.87  1277.45
eigval :     1289.09  1292.23  1293.14  1295.22  1303.24  1315.33
eigval :     1321.05  1328.46  1342.66  1346.60  1348.20  1349.66
eigval :     1354.39  1355.55  1359.92  1366.93  1377.03  1391.85
eigval :     1394.61  1400.30  1415.81  1416.87  1429.60  1430.17
eigval :     1432.43  1439.85  1455.55  1465.07  1466.42  1472.41
eigval :     1482.42  1482.85  1485.41  1492.28  1502.02  1538.92
eigval :     1543.79  1566.45  1566.98  1569.80  1573.19  1580.53
eigval :     1581.46  1584.50  1585.02  1585.43  1589.88  1600.46
eigval :     1607.21  3073.79  3075.04  3075.54  3076.10  3076.32
eigval :     3077.43  3078.53  3078.81  3080.23  3081.10  3081.68
eigval :     3081.76  3081.84  3086.33  3087.36  3087.47  3088.32
eigval :     3088.82  3089.04  3089.24  3090.09  3093.67  3094.37
eigval :     3094.64  3095.84  3098.60  3100.17  3101.61  3105.83
eigval :     3110.35  3112.65  3114.06

   temp. (K)  partition function   enthalpy   heat capacity  entropy
                                   cal/mol     cal/K/mol   cal/K/mol   J/K/mol
 298.15  VIB  0.770E+19            24077.044    154.530    149.086
         ROT  0.137E+09              888.752      2.981     40.216
         INT  0.106E+28            24965.796    157.511    189.302
         TR   0.170E+29             1481.254      4.968     45.397
         TOT                       26447.0500   162.4793   234.6992   981.9815

       T/K    H(0)-H(T)+PV         H(T)/Eh          T*S/Eh         G(T)/Eh
   ------------------------------------------------------------------------
    298.15    0.421461E-01    0.689690E+00    0.111513E+00    0.578176E+00
   ------------------------------------------------------------------------

         :::::::::::::::::::::::::::::::::::::::::::::::::::::
         ::                  THERMODYNAMIC                  ::
         :::::::::::::::::::::::::::::::::::::::::::::::::::::
         :: total free energy        -132.428532800674 Eh   ::
         ::.................................................::
         :: total energy             -133.006709162245 Eh   ::
         :: zero point energy           0.647543476113 Eh   ::
         :: G(RRHO) w/o ZPVE           -0.069367114541 Eh   ::
         :: G(RRHO) contrib.            0.578176361572 Eh   ::
         :::::::::::::::::::::::::::::::::::::::::::::::::::::

           -------------------------------------------------
          | TOTAL ENERGY             -133.006709162245 Eh   |
          | TOTAL ENTHALPY           -132.317019629210 Eh   |
          | TOTAL FREE ENERGY        -132.428532800674 Eh   |
          | GRADIENT NORM               0.000041201879 Eh/α |
          | HOMO-LUMO GAP               0.847302492170 eV   |
           -------------------------------------------------

 * finished run on 2025/08/29 at 13:20:01.687
