   * xtb version 6.7.1 (edcfbbe) compiled by 'albert@albert-system' on 2024-07-22

   ID    Z sym.   atoms
    1    6 C      1-4, 6-13, 15-28, 30-44, 46-53
    2    7 N      5, 14, 29, 45
    3    1 H      54-85

          program call               : xtb data2507/toluene/DCbz-Ph-Bz/DCbz-Ph-Bz_toluene_S0_finalOpt.xtbopt.xyz --gfn 2 --uhf 2 --gbsa toluene --ohess vtight --parallel 40 --molden --ceasefiles --namespace data2507/toluene/DCbz-Ph-Bz/DCbz-Ph-Bz_toluene_T1_preOpt
      * Solvation model:               GBSA
        Solvent                        toluene
        Solvent mass                       9.2140E+01 g/mol
          :  Hamiltonian                  GFN2-xTB          :
 * total energy  :  -132.9936612 Eh     change       -0.1547170E-07 Eh
 * total energy  :  -132.9996528 Eh     change       -0.5991645E-02 Eh
 * total energy  :  -133.0030702 Eh     change       -0.3417410E-02 Eh
 * total energy  :  -133.0037976 Eh     change       -0.7274260E-03 Eh
 * total energy  :  -133.0049763 Eh     change       -0.1178618E-02 Eh
 * total energy  :  -133.0054847 Eh     change       -0.5084621E-03 Eh
 * total energy  :  -133.0058489 Eh     change       -0.3641991E-03 Eh
 * total energy  :  -133.0060449 Eh     change       -0.1959418E-03 Eh
 * total energy  :  -133.0061514 Eh     change       -0.1065028E-03 Eh
 * total energy  :  -133.0062283 Eh     change       -0.7689754E-04 Eh
 * total energy  :  -133.0067022 Eh     change       -0.1929108E-06 Eh
 * total energy  :  -133.0067024 Eh     change       -0.2223065E-06 Eh
 * total energy  :  -133.0067026 Eh     change       -0.2300308E-06 Eh
 * total energy  :  -133.0067029 Eh     change       -0.2817374E-06 Eh
 * total energy  :  -133.0067032 Eh     change       -0.2794963E-06 Eh
 * total energy  :  -133.0067034 Eh     change       -0.2085111E-06 Eh
 * total energy  :  -133.0067035 Eh     change       -0.1591631E-06 Eh
 * total energy  :  -133.0067037 Eh     change       -0.1298784E-06 Eh
 * total energy  :  -133.0067038 Eh     change       -0.9207611E-07 Eh
   *** GEOMETRY OPTIMIZATION CONVERGED AFTER 55 ITERATIONS ***

 final structure:
================
85
 xtb: 6.7.1 (edcfbbe)
C            5.99940401766942        3.97739643031231        0.48264123522924
C            6.68908344853577        3.45380587659091       -0.59901134450576
C            6.73808907727133        2.08612551412342       -0.80002550163901
C            6.09149302436004        1.23179665289635        0.08902028258467
N            6.17181900506465       -0.15764747487595       -0.09107718056414
C            5.14035792051690       -1.10848034699171       -0.01913147432033
C            3.76639210562018       -0.86388336028170       -0.08526708775295
C            2.87019756886357       -1.94661723955660        0.19410769133008
C            1.52508460973865       -1.77864623159619        0.18260860141225
C            0.92388796691299       -0.51952609793490       -0.11685500337287
C           -0.49313142721755       -0.33048910703199       -0.09612119000687
C           -1.06376478120223        0.95760354848221        0.02611918124587
C           -2.43169243126291        1.13860567486016        0.05258831708295
N           -2.96443852896303        2.43242178552802        0.17556094176221
C           -2.63322696541828        3.51646622069191       -0.61067736132133
C           -1.77370130768844        3.58834605173257       -1.69885892320289
C           -1.64006339449414        4.80795891564444       -2.33565153888718
C           -2.34676660487410        5.93098628904252       -1.91051533659814
C           -3.22137664406668        5.85980321654813       -0.84187948684563
C           -3.37303346338705        4.64567433561129       -0.18694323554494
C           -4.18389031124943        4.20949133084245        0.91804653823615
C           -5.09198787829818        4.84988185169536        1.74932278048304
C           -5.69587486370917        4.12021355302979        2.75682611669755
C           -5.39331323080537        2.77374840619681        2.94808771530501
C           -4.49205992287123        2.11418836885370        2.13345879309823
C           -3.90005298657845        2.83576305172534        1.10524437483549
C           -3.30128488307764        0.04796951689629       -0.03678547655617
C           -2.75565210800158       -1.23350975313727       -0.15684740533270
N           -3.61538995317797       -2.34032782264931       -0.24539999826650
C           -4.66903956147762       -2.47801797823747       -1.12470912702024
C           -5.10281872553064       -1.61923446255018       -2.12618671917692
C           -6.18680642751853       -2.01294120775481       -2.88850276990093
C           -6.82187314386308       -3.23403036070438       -2.67292903035484
C           -6.37854946572715       -4.10460113161708       -1.69405992707895
C           -5.29275966492010       -3.73097544051342       -0.91511605846903
C           -4.56950343215411       -4.37269607296297        0.14990700857951
C           -4.70877813096935       -5.58881903375808        0.80365206797792
C           -3.83122506850232       -5.89416761442668        1.82783562468014
C           -2.83601844569942       -4.99775815785557        2.21148208863010
C           -2.67734385888294       -3.78092377966378        1.57508032283277
C           -3.54022497752308       -3.47926957062380        0.52970722761095
C           -1.38867982688651       -1.42061787241176       -0.18959766222229
C            1.81821835519522        0.53792489235841       -0.45620005342246
C            3.16699244240724        0.38090582737231       -0.45203918590448
N            5.64549291793814       -2.36335038889369        0.03859232110824
C            6.97408106526423       -2.24461860932493       -0.03952726346315
C            7.96878107891087       -3.23597580687393       -0.03441742558452
C            9.28220351310439       -2.82912979621310       -0.08312493190443
C            9.63285581897637       -1.47519577778529       -0.13035312153891
C            8.67147038708904       -0.47248451774139       -0.14556079916031
C            7.34868192827388       -0.86471430410350       -0.11757091776465
C            5.40374338590465        1.75873297742025        1.18153006979613
C            5.35588448958462        3.12672746827911        1.36856617120412
H            5.96243741557235        5.04540471978371        0.63496581660006
H            7.18852389007163        4.11248969005503       -1.29407341766547
H            7.25944885661590        1.67316800459934       -1.65117577985723
H            3.31424859757206       -2.89797525619827        0.44152192863596
H            0.89678458141873       -2.61567923597670        0.44458687274834
H           -0.42746501413001        1.81865792568439        0.15154400305835
H           -1.23444354362650        2.71890478568675       -2.04328457741259
H           -0.97531569610106        4.89107741915858       -3.18301178280860
H           -2.21275253131414        6.86752968772258       -2.43147513922307
H           -3.77947536117518        6.72757316139587       -0.52405449660416
H           -5.31683507089033        5.89687419924542        1.61239050829390
H           -6.40642202861248        4.59994028802975        3.41362673990444
H           -5.86971853810744        2.23414021896899        3.75339886922894
H           -4.25003191697773        1.07554949292029        2.30026828679568
H           -4.36917239297985        0.19170324036030       -0.01166829765682
H           -4.60524400833229       -0.67980857155427       -2.31305500758923
H           -6.54584090624609       -1.36164500066534       -3.67179178933897
H           -7.66680435783293       -3.50560464849504       -3.28829557180230
H           -6.86224656863464       -5.05728281488309       -1.53956798191587
H           -5.48952419038345       -6.27795426389732        0.51905448698059
H           -3.92102749433966       -6.83697069633459        2.34686617333112
H           -2.17515532711284       -5.25810774942753        3.02516731908683
H           -1.91345409133146       -3.08542411328920        1.88815173187100
H           -1.00896055803802       -2.41854161611455       -0.33624506567958
H            1.41346893795576        1.48569765438429       -0.77728304793589
H            3.79594893199826        1.19604884088309       -0.77432907174044
H            7.69137274438006       -4.27711684570020        0.01011434214947
H           10.06911120847304       -3.56943001907743       -0.07950159690316
H           10.67737624973604       -1.20249852510898       -0.15410005986419
H            8.95380665118465        0.56935144035027       -0.16952622768498
H            4.90985866940305        1.08819315133577        1.86967759198558
H            4.82000452271837        3.52996980644063        2.21490393218188

          :  Hamiltonian                  GFN2-xTB          :
         :: gradient norm              0.000063154246 Eh/a0 ::
         :: HOMO-LUMO gap              0.847385136146 eV    ::
         :: SCC energy              -135.486225288669 Eh    ::
         :: -> dispersion             -0.119761988022 Eh    ::
         :: -> Gsolv                  -0.056823043907 Eh    ::
         :: repulsion energy           2.479521533469 Eh    ::

    * Orbital Energies and Occupations

         #    Occupation            Energy/Eh            Energy/eV
      -------------------------------------------------------------
         1        2.0000           -0.6827124             -18.5775
       ...           ...                  ...                  ...
       113        2.0000           -0.4106275             -11.1737
       114        2.0000           -0.4103987             -11.1675
       115        2.0000           -0.4092691             -11.1368
       116        2.0000           -0.4051536             -11.0248
       117        2.0000           -0.3991332             -10.8610
       118        2.0000           -0.3841733             -10.4539
       119        2.0000           -0.3839647             -10.4482
       120        2.0000           -0.3814860             -10.3808
       121        2.0000           -0.3760146             -10.2319
       122        1.9766           -0.3695432             -10.0558
       123        1.8570           -0.3676993             -10.0056
       124        1.1664           -0.3644669              -9.9176
       125        1.0000           -0.2822111              -7.6794 (HOMO)
       126                         -0.2510698              -6.8320 (LUMO)
       127                         -0.2502576              -6.8099
       128                         -0.2425628              -6.6005
       129                         -0.2364236              -6.4334
       130                         -0.2340635              -6.3692
       131                         -0.2332808              -6.3479
       132                         -0.2277647              -6.1978
       133                         -0.2275921              -6.1931
       134                         -0.2141024              -5.8260
       135                         -0.2102910              -5.7223
       136                         -0.2050436              -5.5795
       ...                                ...                  ...
       244                          0.7395398              20.1239
      -------------------------------------------------------------
                  HL-Gap            0.0311412 Eh            0.8474 eV

     #   Z          covCN         q      C6AA      α(0)
     1   6 C        2.919    -0.033    28.829     8.805
     2   6 C        2.919    -0.028    28.706     8.786
     3   6 C        2.921    -0.043    29.079     8.843
     4   6 C        2.912     0.065    26.535     8.447
     5   7 N        2.807    -0.073    22.657     7.069
     6   6 C        3.130     0.132    24.923     8.173
     7   6 C        2.967    -0.014    28.348     8.733
     8   6 C        2.918    -0.034    28.852     8.808
     9   6 C        2.913    -0.038    28.941     8.822
    10   6 C        2.970     0.001    27.997     8.679
    11   6 C        2.968     0.010    27.800     8.649
    12   6 C        2.925    -0.056    29.382     8.889
    13   6 C        2.907     0.062    26.611     8.459
    14   7 N        2.804    -0.033    21.870     6.946
    15   6 C        3.075     0.048    26.855     8.497
    16   6 C        2.909    -0.048    29.187     8.859
    17   6 C        2.923    -0.033    28.825     8.804
    18   6 C        2.920    -0.038    28.957     8.824
    19   6 C        2.912    -0.032    28.802     8.800
    20   6 C        3.066    -0.015    28.330     8.728
    21   6 C        3.066    -0.015    28.328     8.728
    22   6 C        2.912    -0.032    28.800     8.800
    23   6 C        2.920    -0.038    28.951     8.824
    24   6 C        2.923    -0.033    28.822     8.804
    25   6 C        2.909    -0.048    29.181     8.858
    26   6 C        3.075     0.048    26.850     8.496
    27   6 C        2.922    -0.065    29.607     8.923
    28   6 C        2.907     0.062    26.611     8.459
    29   7 N        2.804    -0.031    21.848     6.942
    30   6 C        3.074     0.048    26.851     8.496
    31   6 C        2.909    -0.047    29.174     8.857
    32   6 C        2.923    -0.033    28.821     8.804
    33   6 C        2.920    -0.038    28.944     8.822
    34   6 C        2.912    -0.032    28.795     8.799
    35   6 C        3.066    -0.015    28.320     8.726
    36   6 C        3.066    -0.015    28.324     8.727
    37   6 C        2.912    -0.032    28.795     8.799
    38   6 C        2.920    -0.038    28.944     8.822
    39   6 C        2.923    -0.033    28.816     8.803
    40   6 C        2.909    -0.047    29.177     8.857
    41   6 C        3.075     0.048    26.856     8.497
    42   6 C        2.925    -0.055    29.375     8.888
    43   6 C        2.914    -0.037    28.910     8.817
    44   6 C        2.909    -0.041    29.025     8.834
    45   7 N        1.878    -0.329    29.382     8.035
    46   6 C        3.149     0.086    25.830     8.314
    47   6 C        2.908    -0.055    29.372     8.887
    48   6 C        2.918    -0.039    28.979     8.828
    49   6 C        2.924    -0.036    28.901     8.816
    50   6 C        2.905    -0.061    29.526     8.910
    51   6 C        3.061     0.049    26.853     8.498
    52   6 C        2.921    -0.040    28.994     8.830
    53   6 C        2.919    -0.027    28.681     8.782
    54   1 H        0.926     0.042     2.417     2.431
    55   1 H        0.926     0.042     2.417     2.431
    56   1 H        0.926     0.039     2.464     2.455
    57   1 H        0.926     0.046     2.373     2.409
    58   1 H        0.926     0.035     2.510     2.477
    59   1 H        0.926     0.046     2.371     2.408
    60   1 H        0.926     0.034     2.524     2.484
    61   1 H        0.926     0.034     2.524     2.484
    62   1 H        0.926     0.033     2.540     2.492
    63   1 H        0.926     0.036     2.504     2.475
    64   1 H        0.926     0.036     2.503     2.474
    65   1 H        0.926     0.034     2.537     2.491
    66   1 H        0.926     0.035     2.518     2.481
    67   1 H        0.926     0.035     2.520     2.483
    68   1 H        0.926     0.048     2.345     2.395
    69   1 H        0.926     0.035     2.517     2.481
    70   1 H        0.926     0.035     2.515     2.480
    71   1 H        0.926     0.034     2.532     2.488
    72   1 H        0.926     0.036     2.497     2.471
    73   1 H        0.926     0.036     2.498     2.472
    74   1 H        0.926     0.034     2.532     2.488
    75   1 H        0.926     0.035     2.511     2.478
    76   1 H        0.926     0.036     2.507     2.476
    77   1 H        0.926     0.047     2.360     2.403
    78   1 H        0.926     0.033     2.539     2.492
    79   1 H        0.926     0.024     2.672     2.556
    80   1 H        0.926     0.037     2.492     2.469
    81   1 H        0.926     0.034     2.528     2.486
    82   1 H        0.926     0.036     2.506     2.475
    83   1 H        0.926     0.030     2.588     2.516
    84   1 H        0.926     0.034     2.523     2.484
    85   1 H        0.926     0.042     2.416     2.431

molecular dipole:
                 x           y           z       tot (Debye)
 q only:       -1.826       1.222       0.047
   full:       -1.487       1.499       0.018       5.367

 projected vibrational frequencies (cm⁻¹)
eigval :       -0.00    -0.00    -0.00    -0.00    -0.00     0.00
eigval :       10.86    12.81    16.02    19.78    20.45    23.13
eigval :       33.47    39.67    55.61    61.16    68.95    70.36
eigval :       79.06    94.82    97.16   104.22   115.13   125.80
eigval :      138.50   140.64   147.41   155.83   179.71   206.17
eigval :      218.25   219.81   230.45   237.10   247.07   252.12
eigval :      267.12   269.53   270.02   299.73   302.86   311.73
eigval :      355.34   361.62   365.24   376.88   381.51   391.41
eigval :      394.17   395.79   403.73   415.30   421.22   422.13
eigval :      430.82   434.80   435.11   471.34   483.85   501.30
eigval :      515.27   515.37   516.96   522.86   536.33   537.25
eigval :      539.33   543.54   555.78   571.66   583.03   584.77
eigval :      585.85   586.99   600.15   604.62   613.21   620.32
eigval :      628.05   634.17   651.50   663.39   665.41   671.31
eigval :      673.36   674.52   698.19   703.72   708.12   708.56
eigval :      747.55   748.18   752.90   757.70   766.39   767.58
eigval :      768.22   777.51   778.39   789.21   799.06   805.07
eigval :      807.51   842.54   844.36   851.09   858.16   869.89
eigval :      870.97   871.60   872.80   873.42   874.08   879.30
eigval :      895.31   897.65   897.97   901.82   902.16   903.56
eigval :      903.67   907.56   908.06   912.03   917.86   918.38
eigval :      918.42   924.06   924.13   925.34   928.47   933.26
eigval :      955.82   985.46  1000.69  1009.90  1010.36  1030.89
eigval :     1052.47  1066.23  1067.37  1069.22  1070.13  1074.22
eigval :     1076.01  1080.67  1115.49  1117.55  1118.02  1121.71
eigval :     1137.56  1144.21  1145.74  1158.22  1162.89  1168.38
eigval :     1174.43  1177.21  1178.16  1178.31  1179.58  1185.26
eigval :     1189.16  1200.60  1220.20  1227.50  1231.05  1231.81
eigval :     1234.34  1236.99  1253.20  1257.51  1276.78  1277.32
eigval :     1289.25  1292.41  1292.99  1295.55  1303.30  1315.46
eigval :     1320.91  1328.45  1342.57  1346.46  1348.17  1349.60
eigval :     1354.38  1355.28  1359.97  1367.09  1376.95  1392.00
eigval :     1395.02  1400.36  1415.82  1416.86  1429.68  1430.08
eigval :     1432.38  1439.94  1455.55  1465.11  1466.43  1472.39
eigval :     1482.41  1482.84  1485.51  1492.30  1501.92  1539.01
eigval :     1543.87  1566.42  1566.91  1569.87  1573.20  1580.57
eigval :     1581.52  1584.49  1585.08  1585.42  1589.88  1600.44
eigval :     1607.29  3073.99  3074.93  3075.51  3076.34  3076.37
eigval :     3077.80  3079.06  3079.35  3080.17  3081.07  3081.62
eigval :     3081.75  3081.87  3086.46  3087.29  3087.42  3088.31
eigval :     3088.84  3089.19  3089.40  3090.55  3093.71  3094.42
eigval :     3094.67  3095.85  3098.82  3100.30  3101.59  3105.92
eigval :     3110.26  3112.56  3113.94

   temp. (K)  partition function   enthalpy   heat capacity  entropy
                                   cal/mol     cal/K/mol   cal/K/mol   J/K/mol
 298.15  VIB  0.620E+19            24067.506    154.526    148.840
         ROT  0.137E+09              888.752      2.981     40.217
         INT  0.851E+27            24956.258    157.506    189.057
         TR   0.170E+29             1481.254      4.968     45.397
         TOT                       26437.5121   162.4745   234.4541   980.9561

       T/K    H(0)-H(T)+PV         H(T)/Eh          T*S/Eh         G(T)/Eh
   ------------------------------------------------------------------------
    298.15    0.421309E-01    0.689719E+00    0.111397E+00    0.578322E+00
   ------------------------------------------------------------------------

         :::::::::::::::::::::::::::::::::::::::::::::::::::::
         ::                  THERMODYNAMIC                  ::
         :::::::::::::::::::::::::::::::::::::::::::::::::::::
         :: total free energy        -132.428381837566 Eh   ::
         ::.................................................::
         :: total energy             -133.006703759103 Eh   ::
         :: zero point energy           0.647587787448 Eh   ::
         :: G(RRHO) w/o ZPVE           -0.069265865910 Eh   ::
         :: G(RRHO) contrib.            0.578321921538 Eh   ::
         :::::::::::::::::::::::::::::::::::::::::::::::::::::

           -------------------------------------------------
          | TOTAL ENERGY             -133.006703759103 Eh   |
          | TOTAL ENTHALPY           -132.316985114432 Eh   |
          | TOTAL FREE ENERGY        -132.428381837566 Eh   |
          | GRADIENT NORM               0.000061122014 Eh/α |
          | HOMO-LUMO GAP               0.847396218749 eV   |
           -------------------------------------------------

 * finished run on 2025/08/29 at 13:14:01.424
