   * xtb version 6.7.1 (edcfbbe) compiled by 'albert@albert-system' on 2024-07-22

   ID    Z sym.   atoms
    1    6 C      1-4, 6-13, 15-28, 30-44, 46-53
    2    7 N      5, 14, 29, 45
    3    1 H      54-85

          program call               : xtb data2507/toluene/DCbz-Ph-Bz/DCbz-Ph-Bz_toluene_S0_crest.xyz --gfn 2 --gbsa toluene --ohess vtight --parallel 40 --molden --ceasefiles --namespace data2507/toluene/DCbz-Ph-Bz/DCbz-Ph-Bz_toluene_S0_finalOpt
      * Solvation model:               GBSA
        Solvent                        toluene
        Solvent mass                       9.2140E+01 g/mol
          :  Hamiltonian                  GFN2-xTB          :
 * total energy  :  -133.0977862 Eh     change       -0.1612989E-08 Eh
 * total energy  :  -133.0978324 Eh     change       -0.4626591E-04 Eh
 * total energy  :  -133.0978573 Eh     change       -0.2485716E-04 Eh
 * total energy  :  -133.0978685 Eh     change       -0.1118459E-04 Eh
 * total energy  :  -133.0978793 Eh     change       -0.1084318E-04 Eh
 * total energy  :  -133.0978881 Eh     change       -0.8724320E-05 Eh
 * total energy  :  -133.0978948 Eh     change       -0.6705230E-05 Eh
 * total energy  :  -133.0979010 Eh     change       -0.6228101E-05 Eh
 * total energy  :  -133.0979069 Eh     change       -0.5931801E-05 Eh
 * total energy  :  -133.0979125 Eh     change       -0.5549689E-05 Eh
 * total energy  :  -133.0979870 Eh     change       -0.7258258E-06 Eh
 * total energy  :  -133.0979877 Eh     change       -0.6780672E-06 Eh
 * total energy  :  -133.0979884 Eh     change       -0.7037647E-06 Eh
 * total energy  :  -133.0979892 Eh     change       -0.8050572E-06 Eh
 * total energy  :  -133.0979901 Eh     change       -0.8839748E-06 Eh
 * total energy  :  -133.0979910 Eh     change       -0.9283242E-06 Eh
 * total energy  :  -133.0979918 Eh     change       -0.7524072E-06 Eh
 * total energy  :  -133.0979923 Eh     change       -0.5235298E-06 Eh
 * total energy  :  -133.0979923 Eh     change       -0.3327614E-08 Eh
   *** GEOMETRY OPTIMIZATION CONVERGED AFTER 44 ITERATIONS ***

 final structure:
================
85
 xtb: 6.7.1 (edcfbbe)
C            5.63136306831484        3.91306540555605        0.28298936179458
C            6.40454744507266        3.39121676892334       -0.74078939952690
C            6.57029454848288        2.02260143928802       -0.86126926090050
C            5.96028263993608        1.17148108941445        0.05367534320344
N            6.13775071367691       -0.22063290582695       -0.05741308123493
C            5.17393562107243       -1.20704459308922       -0.02761039156138
C            3.74166017205285       -0.95289087920945       -0.03844059813321
C            2.89823201850819       -1.84367227572635        0.62616577405919
C            1.53332005646079       -1.64796782385703        0.62818698094050
C            0.96781249106508       -0.55837473549538       -0.03377543827674
C           -0.48707295116115       -0.34436070139538       -0.02664726723654
C           -1.01071991090592        0.94017763187317        0.08771947895868
C           -2.38603787186058        1.14350304755608        0.08853471935410
N           -2.90221587340962        2.44169659956780        0.20855717020746
C           -2.53009056691906        3.53028539895638       -0.55595475698216
C           -1.64222011290761        3.60062980933145       -1.62018998890053
C           -1.46866433636168        4.82515447466110       -2.23689521256289
C           -2.16574740465057        5.95629694756144       -1.81660897289682
C           -3.06934693450372        5.88695743145270       -0.77463503114868
C           -3.26076835405681        4.66670535098320       -0.13889380695861
C           -4.11005532462410        4.23367766440681        0.93597960363140
C           -5.02866261508531        4.88489796905349        1.74954924010708
C           -5.67428870854922        4.15958277061203        2.73129322971637
C           -5.40350765401748        2.80515468820748        2.91603522069063
C           -4.49478349628109        2.13522381865014        2.11889555483770
C           -3.85972879903462        2.85341533825451        1.11546733580519
C           -3.25182293556050        0.06086201114773       -0.01898067781102
C           -2.73363141457397       -1.22469228905247       -0.12943202055638
N           -3.60003972422720       -2.32111784078664       -0.24165484171638
C           -4.63936397174720       -2.44715021814243       -1.14307128571775
C           -5.05369034513731       -1.57873546728343       -2.14315567480380
C           -6.12085902642837       -1.96461411632912       -2.93206390591189
C           -6.76110036171214       -3.18773280253731       -2.74271565446257
C           -6.33820304935068       -4.06634681413989       -1.76497080028016
C           -5.26715514806086       -3.70099194610157       -0.95931612840677
C           -4.56824037816381       -4.35519707477061        0.11208317067125
C           -4.72561162321364       -5.57891775009487        0.75059459086921
C           -3.87390320272925       -5.89799495976566        1.78966487898153
C           -2.88519631209354       -5.00798259231125        2.20482760183469
C           -2.70907153426522       -3.78544483527995        1.58499427735571
C           -3.54524430388987       -3.47013694860930        0.52328825899855
C           -1.35785099630708       -1.42436893251275       -0.13704085443242
C            1.81274423842096        0.31763805053426       -0.71330895014815
C            3.17895911758606        0.12301317466842       -0.72376341496925
N            5.68114128995582       -2.41247170377552       -0.03026865320861
C            7.03931449282671       -2.25357098072695       -0.06269249324592
C            8.05793314466687       -3.20147156941729       -0.07292839319577
C            9.35822972406062       -2.74347259257306       -0.08692708893108
C            9.65503160462686       -1.37827350722054       -0.08241074317554
C            8.66055010482261       -0.42058035774267       -0.07464873704248
C            7.35059955356788       -0.87326521764278       -0.07923348337091
C            5.19207694630031        1.69457835528261        1.08905432176736
C            5.02571781057339        3.06315340516945        1.19480042016917
H            5.50119817192386        4.98103863145590        0.37094747736817
H            6.87780809759311        4.04968694154539       -1.45382738085998
H            7.15848407130160        1.60794651879399       -1.66676615173355
H            3.33757305835394       -2.68499447255420        1.13972548265495
H            0.89925915761673       -2.33664400365639        1.16583961854026
H           -0.35083914987602        1.78493721649365        0.21094227259106
H           -1.11282358853780        2.72551441106104       -1.96548404756699
H           -0.78015336798155        4.90664147734070       -3.06549641906236
H           -2.00082241228702        6.89649235385343       -2.32229360033380
H           -3.62170134696742        6.75997483860957       -0.46032437456275
H           -5.22725990958782        5.93795088866097        1.61652025470178
H           -6.39358936724122        4.64641502445549        3.37351969165126
H           -5.91265916317892        2.26703454074378        3.70239958407863
H           -4.28157522364789        1.08956853868433        2.28226764701880
H           -4.31940352041685        0.21715201671853       -0.01574260727032
H           -4.55519994778023       -0.63585554406282       -2.31038506521124
H           -6.46381031084007       -1.30456120195082       -3.71561952688681
H           -7.59343968041030       -3.45202403272156       -3.37843428276203
H           -6.82447981316626       -5.02083828569844       -1.62896645304574
H           -5.50267367156824       -6.26167113084695        0.44065691346345
H           -3.97812851495763       -6.84568987105923        2.29741033372972
H           -2.24448191012045       -5.27863672272741        3.03150040923565
H           -1.95296006773883       -3.09452669300376        1.92595455273216
H           -0.96896416407526       -2.42267920525916       -0.26425470254406
H            1.39431630324447        1.14777377703499       -1.26219151330733
H            3.80715074389192        0.79990203026547       -1.28320054898218
H            7.82495656172048       -4.25470900721739       -0.06480564893491
H           10.17195347641235       -3.45389250666504       -0.09492231100857
H           10.68897149955965       -1.06600116005625       -0.08294430070022
H            8.89448822770603        0.63349963746533       -0.05986717600478
H            4.72887733986266        1.02552301185757        1.79940694884618
H            4.42568582903036        3.46630444634589        1.99664206751493

          :  Hamiltonian                  GFN2-xTB          :
         :: gradient norm              0.000046441778 Eh/a0 ::
         :: HOMO-LUMO gap              2.489432942456 eV    ::
         :: SCC energy              -135.597283894703 Eh    ::
         :: -> dispersion             -0.119894748532 Eh    ::
         :: -> Gsolv                  -0.056287361030 Eh    ::
         :: repulsion energy           2.499291575760 Eh    ::

    * Orbital Energies and Occupations

         #    Occupation            Energy/Eh            Energy/eV
      -------------------------------------------------------------
         1        2.0000           -0.6902966             -18.7839
       ...           ...                  ...                  ...
       112        2.0000           -0.4174434             -11.3592
       113        2.0000           -0.4146192             -11.2824
       114        2.0000           -0.4137237             -11.2580
       115        2.0000           -0.4065523             -11.0629
       116        2.0000           -0.4058931             -11.0449
       117        2.0000           -0.4048029             -11.0152
       118        2.0000           -0.3852650             -10.4836
       119        2.0000           -0.3829348             -10.4202
       120        2.0000           -0.3814016             -10.3785
       121        2.0000           -0.3797664             -10.3340
       122        2.0000           -0.3791075             -10.3160
       123        2.0000           -0.3648814              -9.9289
       124        2.0000           -0.3640867              -9.9073 (HOMO)
       125                         -0.2726017              -7.4179 (LUMO)
       126                         -0.2487048              -6.7676
       127                         -0.2471448              -6.7252
       128                         -0.2440101              -6.6399
       129                         -0.2393397              -6.5128
       130                         -0.2389962              -6.5034
       131                         -0.2364850              -6.4351
       132                         -0.2314837              -6.2990
       133                         -0.2231304              -6.0717
       134                         -0.2224759              -6.0539
       135                         -0.2145063              -5.8370
       ...                                ...                  ...
       244                          0.7439989              20.2452
      -------------------------------------------------------------
                  HL-Gap            0.0914850 Eh            2.4894 eV

     #   Z          covCN         q      C6AA      α(0)
     1   6 C        2.919    -0.030    28.743     8.792
     2   6 C        2.920    -0.027    28.664     8.780
     3   6 C        2.921    -0.041    29.012     8.833
     4   6 C        2.912     0.064    26.558     8.451
     5   7 N        2.824    -0.059    22.372     7.025
     6   6 C        3.179     0.143    24.512     8.083
     7   6 C        2.974    -0.001    28.055     8.688
     8   6 C        2.925    -0.028    28.695     8.785
     9   6 C        2.923    -0.031    28.774     8.797
    10   6 C        2.977     0.014    27.688     8.631
    11   6 C        2.975     0.016    27.647     8.625
    12   6 C        2.927    -0.053    29.313     8.879
    13   6 C        2.910     0.066    26.515     8.444
    14   7 N        2.803    -0.044    22.094     6.981
    15   6 C        3.074     0.047    26.874     8.500
    16   6 C        2.910    -0.052    29.287     8.874
    17   6 C        2.924    -0.035    28.866     8.811
    18   6 C        2.920    -0.042    29.050     8.839
    19   6 C        2.912    -0.034    28.856     8.809
    20   6 C        3.067    -0.018    28.386     8.736
    21   6 C        3.067    -0.018    28.389     8.737
    22   6 C        2.912    -0.034    28.859     8.809
    23   6 C        2.920    -0.042    29.047     8.838
    24   6 C        2.924    -0.035    28.860     8.810
    25   6 C        2.909    -0.052    29.283     8.873
    26   6 C        3.074     0.047    26.872     8.499
    27   6 C        2.925    -0.059    29.474     8.903
    28   6 C        2.910     0.067    26.510     8.443
    29   7 N        2.803    -0.044    22.096     6.982
    30   6 C        3.073     0.047    26.872     8.499
    31   6 C        2.910    -0.052    29.285     8.874
    32   6 C        2.924    -0.035    28.862     8.810
    33   6 C        2.920    -0.042    29.048     8.838
    34   6 C        2.912    -0.034    28.858     8.809
    35   6 C        3.067    -0.018    28.387     8.736
    36   6 C        3.067    -0.018    28.387     8.737
    37   6 C        2.912    -0.034    28.855     8.808
    38   6 C        2.920    -0.042    29.047     8.838
    39   6 C        2.924    -0.035    28.862     8.810
    40   6 C        2.910    -0.052    29.285     8.874
    41   6 C        3.075     0.047    26.874     8.500
    42   6 C        2.927    -0.053    29.305     8.878
    43   6 C        2.924    -0.032    28.808     8.802
    44   6 C        2.920    -0.033    28.820     8.804
    45   7 N        1.886    -0.318    29.108     7.998
    46   6 C        3.188     0.069    26.010     8.320
    47   6 C        2.910    -0.047    29.179     8.858
    48   6 C        2.922    -0.041    29.030     8.836
    49   6 C        2.926    -0.039    28.971     8.827
    50   6 C        2.907    -0.054    29.335     8.881
    51   6 C        3.088     0.036    27.095     8.533
    52   6 C        2.921    -0.039    28.975     8.827
    53   6 C        2.920    -0.025    28.639     8.776
    54   1 H        0.926     0.046     2.367     2.406
    55   1 H        0.926     0.046     2.368     2.406
    56   1 H        0.926     0.043     2.413     2.429
    57   1 H        0.926     0.049     2.328     2.386
    58   1 H        0.926     0.046     2.371     2.408
    59   1 H        0.926     0.051     2.307     2.375
    60   1 H        0.926     0.030     2.591     2.517
    61   1 H        0.926     0.031     2.576     2.510
    62   1 H        0.926     0.028     2.609     2.526
    63   1 H        0.926     0.031     2.575     2.510
    64   1 H        0.926     0.031     2.572     2.508
    65   1 H        0.926     0.028     2.610     2.526
    66   1 H        0.926     0.030     2.582     2.513
    67   1 H        0.926     0.030     2.593     2.518
    68   1 H        0.926     0.051     2.305     2.374
    69   1 H        0.926     0.029     2.595     2.519
    70   1 H        0.926     0.030     2.583     2.513
    71   1 H        0.926     0.028     2.611     2.527
    72   1 H        0.926     0.031     2.572     2.508
    73   1 H        0.926     0.031     2.576     2.510
    74   1 H        0.926     0.028     2.609     2.526
    75   1 H        0.926     0.031     2.572     2.508
    76   1 H        0.926     0.030     2.585     2.514
    77   1 H        0.926     0.051     2.304     2.374
    78   1 H        0.926     0.044     2.399     2.422
    79   1 H        0.926     0.033     2.539     2.492
    80   1 H        0.926     0.038     2.473     2.459
    81   1 H        0.926     0.034     2.529     2.487
    82   1 H        0.926     0.035     2.513     2.479
    83   1 H        0.926     0.032     2.559     2.502
    84   1 H        0.926     0.037     2.494     2.470
    85   1 H        0.926     0.046     2.371     2.408

molecular dipole:
                 x           y           z       tot (Debye)
 q only:        0.162       1.269       0.082
   full:        0.408       1.548       0.069       4.074

 projected vibrational frequencies (cm⁻¹)
eigval :       -0.00    -0.00    -0.00    -0.00     0.00     0.00
eigval :        8.43     9.86    14.50    18.23    19.45    22.88
eigval :       30.46    39.50    51.35    62.73    64.69    70.66
eigval :       80.74    92.09    92.69    96.15   110.79   122.95
eigval :      140.40   141.10   146.83   166.28   179.86   207.49
eigval :      217.70   221.18   237.58   242.41   249.01   270.16
eigval :      270.95   273.68   279.43   300.43   311.04   341.35
eigval :      351.10   358.28   373.60   377.87   381.13   391.93
eigval :      394.98   395.85   403.01   419.88   422.21   422.59
eigval :      435.52   436.06   468.60   480.39   510.73   510.90
eigval :      517.77   519.91   529.03   540.02   540.49   541.07
eigval :      546.29   546.77   571.66   580.57   587.65   588.10
eigval :      591.82   597.48   608.77   620.44   633.43   638.82
eigval :      641.19   659.05   665.28   671.39   673.23   676.91
eigval :      679.20   703.83   707.39   708.22   711.10   716.42
eigval :      749.19   754.13   762.92   766.06   767.62   770.06
eigval :      775.86   778.96   779.33   801.97   815.33   843.50
eigval :      864.72   866.01   867.49   868.60   869.59   869.91
eigval :      874.15   877.45   885.49   891.85   895.15   898.38
eigval :      898.59   899.62   900.49   902.37   904.42   904.96
eigval :      906.74   916.15   918.00   921.74   922.63   923.33
eigval :      924.97   926.82   929.82   931.86   932.32   955.21
eigval :      994.56  1003.90  1010.94  1012.13  1029.12  1032.32
eigval :     1061.33  1067.94  1068.51  1071.85  1072.33  1079.27
eigval :     1105.27  1116.31  1119.40  1123.36  1133.61  1137.11
eigval :     1140.23  1149.71  1149.91  1165.05  1175.45  1175.92
eigval :     1178.39  1178.67  1180.02  1180.16  1189.04  1189.94
eigval :     1199.94  1206.51  1230.11  1233.12  1234.13  1234.47
eigval :     1235.71  1260.03  1269.24  1274.21  1279.08  1293.49
eigval :     1295.05  1300.23  1301.60  1303.26  1313.59  1315.59
eigval :     1319.17  1320.70  1332.99  1355.53  1355.84  1359.70
eigval :     1360.77  1361.01  1371.87  1388.05  1397.24  1413.75
eigval :     1417.62  1424.53  1426.61  1430.03  1433.34  1452.40
eigval :     1457.44  1472.11  1474.43  1475.67  1482.63  1486.37
eigval :     1486.49  1486.53  1529.58  1558.03  1567.33  1568.90
eigval :     1573.22  1575.26  1582.14  1587.30  1587.47  1587.78
eigval :     1592.05  1595.91  1597.26  1597.82  1612.45  1613.07
eigval :     1613.82  3071.35  3071.60  3072.01  3072.64  3074.41
eigval :     3076.79  3077.37  3077.62  3078.00  3078.57  3081.10
eigval :     3081.53  3082.59  3084.18  3084.64  3085.05  3085.64
eigval :     3086.63  3087.80  3089.48  3091.03  3091.51  3092.37
eigval :     3093.44  3093.89  3094.26  3100.21  3100.76  3101.13
eigval :     3102.17  3103.18  3104.65

   temp. (K)  partition function   enthalpy   heat capacity  entropy
                                   cal/mol     cal/K/mol   cal/K/mol   J/K/mol
 298.15  VIB  0.124E+20            23789.130    152.189    148.133
         ROT  0.135E+09              888.752      2.981     40.183
         INT  0.167E+28            24677.883    155.170    188.315
         TR   0.170E+29             1481.254      4.968     45.397
         TOT                       26159.1365   160.1378   233.7127   977.8541

       T/K    H(0)-H(T)+PV         H(T)/Eh          T*S/Eh         G(T)/Eh
   ------------------------------------------------------------------------
    298.15    0.416872E-01    0.693671E+00    0.111044E+00    0.582626E+00
   ------------------------------------------------------------------------

         :::::::::::::::::::::::::::::::::::::::::::::::::::::
         ::                  THERMODYNAMIC                  ::
         :::::::::::::::::::::::::::::::::::::::::::::::::::::
         :: total free energy        -132.515366085633 Eh   ::
         ::.................................................::
         :: total energy             -133.097992321843 Eh   ::
         :: zero point energy           0.651983467055 Eh   ::
         :: G(RRHO) w/o ZPVE           -0.069357230845 Eh   ::
         :: G(RRHO) contrib.            0.582626236210 Eh   ::
         :::::::::::::::::::::::::::::::::::::::::::::::::::::

           -------------------------------------------------
          | TOTAL ENERGY             -133.097992321843 Eh   |
          | TOTAL ENTHALPY           -132.404321617267 Eh   |
          | TOTAL FREE ENERGY        -132.515366085633 Eh   |
          | GRADIENT NORM               0.000046443055 Eh/α |
          | HOMO-LUMO GAP               2.489432867774 eV   |
           -------------------------------------------------

 * finished run on 2025/08/29 at 13:13:51.442
