   * xtb version 6.7.1 (edcfbbe) compiled by 'albert@albert-system' on 2024-07-22

   ID    Z sym.   atoms
    1    6 C      1-4, 6-13, 15-28, 30-44, 46-53
    2    7 N      5, 14, 29, 45
    3    1 H      54-85

          program call               : xtb data2507/toluene/DCbz-Ph-Bz/DCbz-Ph-Bz.xyz --gfn 2 --gbsa toluene --ohess vtight --parallel 40 --molden --ceasefiles --namespace data2507/toluene/DCbz-Ph-Bz/DCbz-Ph-Bz_toluene_S0_preOpt
      * Solvation model:               GBSA
        Solvent                        toluene
        Solvent mass                       9.2140E+01 g/mol
          :  Hamiltonian                  GFN2-xTB          :
 * total energy  :  -133.0754454 Eh     change       -0.1249020E-08 Eh
 * total energy  :  -133.0905619 Eh     change       -0.1511651E-01 Eh
 * total energy  :  -133.0941412 Eh     change       -0.3579226E-02 Eh
 * total energy  :  -133.0951564 Eh     change       -0.1015207E-02 Eh
 * total energy  :  -133.0959910 Eh     change       -0.8346085E-03 Eh
 * total energy  :  -133.0963871 Eh     change       -0.3960792E-03 Eh
 * total energy  :  -133.0966788 Eh     change       -0.2917089E-03 Eh
 * total energy  :  -133.0969236 Eh     change       -0.2448043E-03 Eh
 * total energy  :  -133.0971712 Eh     change       -0.2476773E-03 Eh
 * total energy  :  -133.0973764 Eh     change       -0.2051862E-03 Eh
 * total energy  :  -133.0980235 Eh     change       -0.7106088E-06 Eh
 * total energy  :  -133.0980242 Eh     change       -0.6430196E-06 Eh
 * total energy  :  -133.0980250 Eh     change       -0.8137126E-06 Eh
 * total energy  :  -133.0980256 Eh     change       -0.6036860E-06 Eh
 * total energy  :  -133.0980259 Eh     change       -0.2670448E-06 Eh
 * total energy  :  -133.0980261 Eh     change       -0.2054129E-06 Eh
 * total energy  :  -133.0980263 Eh     change       -0.1966542E-06 Eh
 * total energy  :  -133.0980264 Eh     change       -0.1089585E-06 Eh
 * total energy  :  -133.0980264 Eh     change       -0.1580591E-07 Eh
   *** GEOMETRY OPTIMIZATION CONVERGED AFTER 59 ITERATIONS ***

 final structure:
================
85
 xtb: 6.7.1 (edcfbbe)
C            5.65813340739736        3.65625962910793        0.43298673056702
C            5.02367452860516        2.98997271558273       -0.60329042124202
C            5.17335038595622        1.62306737491953       -0.74861902411865
C            5.95452022036217        0.91449264257688        0.15889232453290
N            6.11637803666921       -0.47631624914670        0.01483040999728
C            5.13965717043849       -1.42937910992053       -0.18670542430575
C            3.71154182029591       -1.15674783592073       -0.12485749370515
C            2.85393033091410       -1.86434096950549       -0.96707553921645
C            1.49414954993452       -1.63550682663428       -0.93481300094771
C            0.95095887749552       -0.69685184286659       -0.05836177889446
C           -0.49664192304949       -0.43657055631232       -0.03563562105018
C           -0.97288755392373        0.86491453330725        0.09061602978727
C           -2.33986766656342        1.11718842177961        0.10021737980341
N           -2.80905030802942        2.43365261490358        0.21427575683126
C           -2.40666596899488        3.50354164014525       -0.56189121740349
C           -1.51821132148615        3.53876564181976       -1.62765448251643
C           -1.31249820187149        4.75213513205491       -2.25660007625076
C           -1.97745908340963        5.90636700237003       -1.84723923899413
C           -2.87958064333200        5.87277163086405       -0.80230645491335
C           -3.10334783996256        4.66459539491567       -0.15418801052950
C           -3.96124324850907        4.26747953536255        0.92762450151770
C           -4.85697228681835        4.95364654460769        1.73795491112057
C           -5.52001542513651        4.25754573647670        2.72919320636043
C           -5.28882765543725        2.89755529305901        2.92638792115947
C           -4.40333949623621        2.19320844556512        2.13276011463347
C           -3.75129913372419        2.88224025343442        1.11970577361123
C           -3.24351367793289        0.06484313460873        0.00490299283036
C           -2.77261802348955       -1.23850297776014       -0.11080495304864
N           -3.67978243549335       -2.30329133063684       -0.20285605395952
C           -4.75014519998496       -2.38296094158641       -1.07307759784924
C           -5.15177256911931       -1.49999758175375       -2.06574742144424
C           -6.25778363733479       -1.83838397765943       -2.82236679862235
C           -6.94889252805293       -3.02944799016804       -2.60914407612111
C           -6.53907206065391       -3.92373021717202       -1.64006205002383
C           -5.42965575403848       -3.60584303604321       -0.86682347886601
C           -4.73062969052498       -4.28932272899985        0.18594122139165
C           -4.92697674291420       -5.50356789161106        0.83156537440446
C           -4.06003967300720       -5.86233118784985        1.84466650218899
C           -3.01682888604174       -5.02080195792789        2.22585726907000
C           -2.80118257432123       -3.80820998426546        1.59872598894624
C           -3.65513587922017       -3.45275354994570        0.56393330988523
C           -1.40477507467300       -1.48535070522512       -0.14248260941364
C            1.80866988216370       -0.01071616335419        0.79978157405108
C            3.16948220606981       -0.23892491058806        0.77372680951086
N            5.62990062176430       -2.62194679891777       -0.40241144328680
C            6.99059484581544       -2.48849113250681       -0.34980284933456
C            7.99599578979656       -3.43559010378045       -0.51726896586548
C            9.30265669112822       -3.00384254121511       -0.43186589520383
C            9.61784158833892       -1.66394041035478       -0.19312848947651
C            8.63650335344707       -0.70804513516808       -0.02128054031009
C            7.32051091812365       -1.13761752503404       -0.08772780533730
C            6.59245510667398        1.58146622686640        1.19908269221364
C            6.44401360708987        2.95114391684126        1.32933965388027
H            5.54150185680005        4.72401680808412        0.54026230221428
H            4.41318997165531        3.53655156637454       -1.30621281514067
H            4.68783425666068        1.09822855911470       -1.55817731775019
H            3.27724882902196       -2.58751713068159       -1.64714094208225
H            0.84705155402061       -2.17292284363747       -1.61180615367967
H           -0.28086972340143        1.68840170020942        0.17441580907234
H           -1.00963741417756        2.64775424010930       -1.96380605629172
H           -0.62328884785405        4.80605699345774       -3.08686216626732
H           -1.78776832756371        6.83643372658240       -2.36293864600819
H           -3.40607693841401        6.76401186571828       -0.49486362976072
H           -5.02470035896725        6.01081403853230        1.59538621615248
H           -6.22208819346149        4.77187055389785        3.36904167343596
H           -5.81054411790863        2.38257010964375        3.71998943504814
H           -4.22030620964924        1.14345780433427        2.30628019157283
H           -4.30481507256822        0.25821277549637        0.02182031546108
H           -4.61487765734830       -0.58225481957511       -2.25254176028131
H           -6.59172763946453       -1.16564144936212       -3.59899298662489
H           -7.81113168180218       -3.25624671968182       -3.21904552347131
H           -7.06472392253074       -4.85428132424579       -1.48598179709686
H           -5.74463680984350       -6.14865607070219        0.54643217590847
H           -4.19366720892858       -6.80352523707582        2.35763669973733
H           -2.36318135092691       -5.32155087422813        3.03174594765771
H           -1.99838714310906       -3.15855112515233        1.91333988017985
H           -1.05109592637687       -2.49972503373421       -0.24151247552405
H            1.40281844679261        0.69206782008826        1.51207908238263
H            3.81024999695209        0.28639660384917        1.46618063082769
H            7.74828895601812       -4.46702424253368       -0.71330835089827
H           10.10667219264700       -3.71418421630130       -0.55789252323075
H           10.65585153335672       -1.36943080274190       -0.14477238056810
H            8.88505634908924        0.32848469028212        0.15095511981194
H            7.18934019222711        1.02269752587315        1.90491419360394
H            6.94021963385966        3.46595721667543        2.13849621555654

          :  Hamiltonian                  GFN2-xTB          :
         :: gradient norm              0.000075027031 Eh/a0 ::
         :: HOMO-LUMO gap              2.509782351671 eV    ::
         :: SCC energy              -135.597102174565 Eh    ::
         :: -> dispersion             -0.119452964317 Eh    ::
         :: -> Gsolv                  -0.056649159570 Eh    ::
         :: repulsion energy           2.499075797242 Eh    ::

    * Orbital Energies and Occupations

         #    Occupation            Energy/Eh            Energy/eV
      -------------------------------------------------------------
         1        2.0000           -0.6903658             -18.7858
       ...           ...                  ...                  ...
       112        2.0000           -0.4172686             -11.3545
       113        2.0000           -0.4146836             -11.2841
       114        2.0000           -0.4138010             -11.2601
       115        2.0000           -0.4063698             -11.0579
       116        2.0000           -0.4057823             -11.0419
       117        2.0000           -0.4048485             -11.0165
       118        2.0000           -0.3851722             -10.4811
       119        2.0000           -0.3830513             -10.4234
       120        2.0000           -0.3815976             -10.3838
       121        2.0000           -0.3796648             -10.3312
       122        2.0000           -0.3790128             -10.3135
       123        2.0000           -0.3648298              -9.9275
       124        2.0000           -0.3640469              -9.9062 (HOMO)
       125                         -0.2718141              -7.3964 (LUMO)
       126                         -0.2486064              -6.7649
       127                         -0.2471078              -6.7241
       128                         -0.2439252              -6.6375
       129                         -0.2392629              -6.5107
       130                         -0.2388251              -6.4988
       131                         -0.2363772              -6.4322
       132                         -0.2315913              -6.3019
       133                         -0.2230354              -6.0691
       134                         -0.2223994              -6.0518
       135                         -0.2144892              -5.8365
       ...                                ...                  ...
       244                          0.7439775              20.2447
      -------------------------------------------------------------
                  HL-Gap            0.0922329 Eh            2.5098 eV

     #   Z          covCN         q      C6AA      α(0)
     1   6 C        2.919    -0.030    28.746     8.792
     2   6 C        2.920    -0.026    28.641     8.776
     3   6 C        2.921    -0.039    28.980     8.828
     4   6 C        2.912     0.064    26.561     8.451
     5   7 N        2.824    -0.059    22.370     7.025
     6   6 C        3.180     0.143    24.503     8.081
     7   6 C        2.975    -0.001    28.051     8.688
     8   6 C        2.925    -0.028    28.692     8.784
     9   6 C        2.923    -0.031    28.780     8.798
    10   6 C        2.977     0.014    27.685     8.631
    11   6 C        2.975     0.016    27.649     8.625
    12   6 C        2.927    -0.053    29.320     8.880
    13   6 C        2.910     0.066    26.515     8.444
    14   7 N        2.803    -0.044    22.095     6.981
    15   6 C        3.074     0.047    26.875     8.500
    16   6 C        2.909    -0.052    29.292     8.875
    17   6 C        2.924    -0.035    28.865     8.811
    18   6 C        2.919    -0.042    29.050     8.839
    19   6 C        2.912    -0.034    28.858     8.809
    20   6 C        3.067    -0.018    28.386     8.736
    21   6 C        3.067    -0.018    28.389     8.737
    22   6 C        2.912    -0.035    28.859     8.809
    23   6 C        2.920    -0.042    29.047     8.838
    24   6 C        2.924    -0.035    28.861     8.810
    25   6 C        2.909    -0.052    29.284     8.873
    26   6 C        3.073     0.047    26.873     8.500
    27   6 C        2.925    -0.060    29.483     8.904
    28   6 C        2.910     0.067    26.511     8.443
    29   7 N        2.803    -0.044    22.094     6.981
    30   6 C        3.073     0.047    26.874     8.500
    31   6 C        2.910    -0.052    29.285     8.874
    32   6 C        2.924    -0.035    28.863     8.810
    33   6 C        2.920    -0.042    29.047     8.838
    34   6 C        2.912    -0.034    28.858     8.809
    35   6 C        3.067    -0.018    28.386     8.736
    36   6 C        3.067    -0.018    28.386     8.736
    37   6 C        2.912    -0.034    28.858     8.809
    38   6 C        2.920    -0.042    29.045     8.838
    39   6 C        2.924    -0.035    28.860     8.810
    40   6 C        2.909    -0.052    29.288     8.874
    41   6 C        3.073     0.047    26.874     8.500
    42   6 C        2.927    -0.053    29.312     8.879
    43   6 C        2.923    -0.033    28.814     8.803
    44   6 C        2.921    -0.032    28.810     8.802
    45   7 N        1.886    -0.319    29.109     7.998
    46   6 C        3.189     0.069    26.007     8.319
    47   6 C        2.910    -0.047    29.179     8.858
    48   6 C        2.922    -0.041    29.030     8.836
    49   6 C        2.926    -0.039    28.972     8.827
    50   6 C        2.908    -0.054    29.335     8.881
    51   6 C        3.087     0.036    27.097     8.533
    52   6 C        2.922    -0.041    29.014     8.833
    53   6 C        2.920    -0.027    28.665     8.780
    54   1 H        0.926     0.046     2.369     2.407
    55   1 H        0.926     0.046     2.369     2.407
    56   1 H        0.926     0.037     2.495     2.470
    57   1 H        0.926     0.048     2.339     2.391
    58   1 H        0.926     0.047     2.364     2.404
    59   1 H        0.926     0.051     2.307     2.375
    60   1 H        0.926     0.031     2.574     2.509
    61   1 H        0.926     0.031     2.577     2.510
    62   1 H        0.926     0.028     2.610     2.526
    63   1 H        0.926     0.031     2.576     2.510
    64   1 H        0.926     0.031     2.572     2.508
    65   1 H        0.926     0.028     2.611     2.527
    66   1 H        0.926     0.030     2.584     2.514
    67   1 H        0.926     0.029     2.594     2.519
    68   1 H        0.926     0.051     2.306     2.374
    69   1 H        0.926     0.030     2.591     2.517
    70   1 H        0.926     0.030     2.582     2.513
    71   1 H        0.926     0.028     2.611     2.527
    72   1 H        0.926     0.031     2.573     2.508
    73   1 H        0.926     0.031     2.573     2.509
    74   1 H        0.926     0.028     2.609     2.526
    75   1 H        0.926     0.031     2.578     2.511
    76   1 H        0.926     0.031     2.575     2.509
    77   1 H        0.926     0.051     2.304     2.374
    78   1 H        0.926     0.044     2.390     2.418
    79   1 H        0.926     0.033     2.544     2.494
    80   1 H        0.926     0.038     2.473     2.459
    81   1 H        0.926     0.034     2.529     2.487
    82   1 H        0.926     0.035     2.513     2.479
    83   1 H        0.926     0.032     2.557     2.501
    84   1 H        0.926     0.043     2.413     2.429
    85   1 H        0.926     0.046     2.370     2.408

molecular dipole:
                 x           y           z       tot (Debye)
 q only:        0.175       1.245       0.160
   full:        0.429       1.511       0.226       4.033

 projected vibrational frequencies (cm⁻¹)
eigval :       -0.00    -0.00    -0.00    -0.00     0.00     0.00
eigval :       10.78    14.58    15.81    18.68    20.25    22.89
eigval :       32.00    41.51    56.69    63.64    65.56    71.89
eigval :       81.79    92.23    94.42    96.17   110.41   123.10
eigval :      140.69   141.90   148.03   160.74   189.46   209.00
eigval :      216.60   222.21   238.12   244.32   246.73   270.37
eigval :      271.14   274.56   281.15   299.89   315.60   340.20
eigval :      350.17   355.92   373.99   378.84   381.82   392.31
eigval :      395.23   396.46   402.97   418.19   422.68   423.55
eigval :      435.88   436.48   462.10   483.20   510.93   515.36
eigval :      517.90   519.83   530.78   540.08   540.41   541.32
eigval :      547.87   548.64   572.92   578.65   587.76   587.89
eigval :      592.23   597.92   607.67   620.92   627.77   639.13
eigval :      640.97   662.47   666.57   671.57   673.18   678.59
eigval :      680.34   704.23   707.29   708.02   711.97   717.43
eigval :      749.20   754.33   763.68   767.37   768.67   770.14
eigval :      773.15   779.28   781.01   801.97   818.18   847.13
eigval :      866.00   866.31   868.61   868.90   871.29   872.73
eigval :      877.43   878.85   885.69   892.49   895.31   897.28
eigval :      898.34   898.80   901.82   904.27   904.39   907.75
eigval :      908.78   919.76   920.06   920.98   921.15   924.00
eigval :      925.24   928.91   930.13   932.24   933.43   955.20
eigval :      994.49  1003.97  1010.73  1012.03  1029.24  1032.49
eigval :     1061.11  1069.00  1069.46  1072.66  1073.18  1079.91
eigval :     1105.78  1117.11  1120.40  1124.11  1133.06  1136.64
eigval :     1139.59  1150.14  1150.72  1165.37  1174.56  1176.49
eigval :     1178.52  1179.78  1180.33  1180.68  1189.72  1190.04
eigval :     1199.97  1206.77  1230.54  1233.95  1234.44  1235.63
eigval :     1236.77  1259.53  1269.20  1274.54  1279.28  1292.70
eigval :     1295.34  1299.87  1301.54  1303.69  1313.84  1315.71
eigval :     1318.40  1320.37  1332.88  1355.51  1355.89  1359.52
eigval :     1360.87  1361.05  1371.85  1388.45  1397.44  1414.24
eigval :     1417.92  1424.46  1426.70  1430.16  1433.58  1451.96
eigval :     1457.45  1472.18  1474.33  1475.57  1482.92  1486.31
eigval :     1486.42  1486.47  1531.79  1557.93  1568.23  1569.60
eigval :     1573.46  1575.93  1582.29  1587.08  1587.54  1587.75
eigval :     1592.22  1596.21  1597.09  1597.64  1612.34  1612.95
eigval :     1614.26  3070.92  3071.55  3072.18  3072.49  3074.41
eigval :     3076.67  3076.96  3077.61  3077.85  3078.81  3081.02
eigval :     3081.30  3082.25  3084.02  3084.37  3084.93  3084.99
eigval :     3085.46  3088.54  3089.74  3090.90  3091.17  3092.13
eigval :     3093.29  3093.38  3093.64  3100.13  3100.66  3101.24
eigval :     3102.37  3103.87  3105.64

   temp. (K)  partition function   enthalpy   heat capacity  entropy
                                   cal/mol     cal/K/mol   cal/K/mol   J/K/mol
 298.15  VIB  0.435E+19            23735.034    152.294    147.080
         ROT  0.134E+09              888.752      2.981     40.175
         INT  0.585E+27            24623.786    155.275    187.255
         TR   0.170E+29             1481.254      4.968     45.397
         TOT                       26105.0399   160.2433   232.6526   973.4183

       T/K    H(0)-H(T)+PV         H(T)/Eh          T*S/Eh         G(T)/Eh
   ------------------------------------------------------------------------
    298.15    0.416010E-01    0.693813E+00    0.110541E+00    0.583272E+00
   ------------------------------------------------------------------------

         :::::::::::::::::::::::::::::::::::::::::::::::::::::
         ::                  THERMODYNAMIC                  ::
         :::::::::::::::::::::::::::::::::::::::::::::::::::::
         :: total free energy        -132.514753967390 Eh   ::
         ::.................................................::
         :: total energy             -133.098026383335 Eh   ::
         :: zero point energy           0.652212123697 Eh   ::
         :: G(RRHO) w/o ZPVE           -0.068939707752 Eh   ::
         :: G(RRHO) contrib.            0.583272415945 Eh   ::
         :::::::::::::::::::::::::::::::::::::::::::::::::::::

           -------------------------------------------------
          | TOTAL ENERGY             -133.098026383335 Eh   |
          | TOTAL ENTHALPY           -132.404213230461 Eh   |
          | TOTAL FREE ENERGY        -132.514753967390 Eh   |
          | GRADIENT NORM               0.000075013759 Eh/α |
          | HOMO-LUMO GAP               2.509783651086 eV   |
           -------------------------------------------------

 * finished run on 2025/08/29 at 13:09:25.378
