   * xtb version 6.7.1 (edcfbbe) compiled by 'albert@albert-system' on 2024-07-22

   ID    Z sym.   atoms
    1   35 Br     1, 11
    2    6 C      2-10, 12-14, 16-20, 22-28, 30-36, 38, 39
    3    7 N      15, 21, 29, 37
    4    1 H      40-59

          program call               : xtb data2507/toluene/2BrCPT/2BrCPT_toluene_S0_crest.xyz --gfn 2 --gbsa toluene --ohess vtight --parallel 40 --molden --ceasefiles --namespace data2507/toluene/2BrCPT/2BrCPT_toluene_S0_finalOpt
      * Solvation model:               GBSA
        Solvent                        toluene
        Solvent mass                       9.2140E+01 g/mol
          :  Hamiltonian                  GFN2-xTB          :
 * total energy  :  -100.8281205 Eh     change       -0.4026788E-09 Eh
 * total energy  :  -100.8281708 Eh     change       -0.5033322E-04 Eh
 * total energy  :  -100.8281875 Eh     change       -0.1670003E-04 Eh
 * total energy  :  -100.8281925 Eh     change       -0.4961362E-05 Eh
 * total energy  :  -100.8281959 Eh     change       -0.3385812E-05 Eh
 * total energy  :  -100.8281979 Eh     change       -0.2033284E-05 Eh
 * total energy  :  -100.8281992 Eh     change       -0.1286318E-05 Eh
 * total energy  :  -100.8281997 Eh     change       -0.5136339E-06 Eh
 * total energy  :  -100.8282000 Eh     change       -0.3252525E-06 Eh
 * total energy  :  -100.8282004 Eh     change       -0.3335612E-06 Eh
 * total energy  :  -100.8282006 Eh     change       -0.2436187E-06 Eh
 * total energy  :  -100.8282008 Eh     change       -0.1898690E-06 Eh
 * total energy  :  -100.8282009 Eh     change       -0.1327382E-06 Eh
 * total energy  :  -100.8282010 Eh     change       -0.7128813E-07 Eh
   *** GEOMETRY OPTIMIZATION CONVERGED AFTER 14 ITERATIONS ***

 final structure:
================
59
 xtb: 6.7.1 (edcfbbe)
Br           6.10378181896140       -4.16319932888407       -1.21530435179226
C            4.73401726842467       -2.87334381199443       -0.83687014470767
C            3.40178332955410       -3.26133813600398       -0.96555367766615
C            2.38381959422233       -2.36728896785778       -0.70071936671813
C            2.72750181245950       -1.08317617139926       -0.29593814065773
C            4.08409019918868       -0.69268718325957       -0.18988475966190
C            5.10174400595457       -1.59855857009791       -0.45924405387593
C            4.08040944045327        0.68928689264741        0.19713456489927
C            5.09308918900841        1.59934571281124        0.47116772784973
C            4.71839847142355        2.87248814708180        0.84748401683748
Br           6.08100565745611        4.16808643307545        1.23213628420491
C            3.38399123864873        3.25486792060480        0.97045885415829
C            2.37095080104434        2.35662874070561        0.70102410548223
C            2.72180582420754        1.07411784135951        0.29729056144821
N            1.91783437305533       -0.00615811313840       -0.00123669624185
C            0.51487008467288       -0.00801322227771       -0.00457307337156
C           -0.18408055008791        0.98469937837007       -0.68982655659796
C           -1.56319442305280        0.98495341108197       -0.68700542502916
C           -2.26831335124409       -0.00835079510143       -0.00833425454575
C           -3.73176102188574       -0.00661392636705       -0.00783217537174
N           -4.35302020121674        1.00569948365649       -0.60634223668900
C           -5.68405017116592        0.96864112817245       -0.58149909714131
C           -6.41336072996252        2.05941951388928       -1.22764578574940
C           -7.80772294055627        2.05711015275694       -1.24803992601524
C           -8.49356370120847        3.08997891292743       -1.85763791735370
C           -7.79759735554034        4.13221524480660       -2.45139115246727
C           -6.41095930531450        4.14008430052643       -2.43502556999236
C           -5.71939232694018        3.11003610559149       -1.82724773411467
N           -6.38884020684048       -0.00037619436771       -0.00278760201668
C           -5.68637876196314       -0.97333572695530        0.57215094162345
C           -6.41843073521188       -2.06031769032128        1.22155639026537
C           -5.72748760907764       -3.11953336039625        1.80938827456426
C           -6.42168955995754       -4.14544249190648        2.42115629006403
C           -7.80789949539927       -4.12448665651604        2.45378822862764
C           -8.50084622841937       -3.07361527623235        1.87182962213353
C           -7.81237860981929       -2.04499841825151        1.25802181598172
N           -4.35544253768869       -1.01681518662002        0.59172936424510
C           -1.56476642562184       -1.00201660517645        0.67141241033489
C           -0.18560979113783       -1.00150782574898        0.67789900835016
H            3.16922529407175       -4.26718201624200       -1.27890885984982
H            1.35400975760056       -2.66410545961824       -0.81898309319692
H            6.13905749265976       -1.31468722050129       -0.38061624039776
H            6.13190125447164        1.31979355308867        0.39705322976048
H            3.14584628979427        4.25960218256443        1.28317702434557
H            1.33940388023713        2.64906384053998        0.81503004700562
H            0.35861086576652        1.74112959073914       -1.23581693297767
H           -2.11546127025418        1.74491513026088       -1.21647542448674
H           -8.33286987075371        1.23817959827150       -0.78178777570868
H           -9.57336448581088        3.08420475915911       -1.87083352712717
H           -8.33609071098261        4.93862320377766       -2.92679017919960
H           -5.86946609714625        4.95188208769649       -2.89765504669287
H           -4.64092328438204        3.10066511605271       -1.80456692127841
H           -4.64930949036356       -3.12021117286812        1.77420122211573
H           -5.88256872659646       -4.96394432740101        2.87463465867914
H           -8.34848159095555       -4.92758342194541        2.93241220320366
H           -9.58031660580872       -3.05771181750247        1.89769118602428
H           -8.33506690193244       -1.21944914425521        0.80076655669246
H           -2.11822949845265       -1.76190137040082        1.19976534382200
H            0.35566789521420       -1.75784754190702        1.22540289387391

          :  Hamiltonian                  GFN2-xTB          :
         :: gradient norm              0.000089300176 Eh/a0 ::
         :: HOMO-LUMO gap              2.228764288107 eV    ::
         :: SCC energy              -102.524893377319 Eh    ::
         :: -> dispersion             -0.080848835567 Eh    ::
         :: -> Gsolv                  -0.051765429216 Eh    ::
         :: repulsion energy           1.696692385191 Eh    ::

    * Orbital Energies and Occupations

         #    Occupation            Energy/Eh            Energy/eV
      -------------------------------------------------------------
         1        2.0000           -0.8405014             -22.8712
       ...           ...                  ...                  ...
        81        2.0000           -0.4314015             -11.7390
        82        2.0000           -0.4186448             -11.3919
        83        2.0000           -0.4185995             -11.3907
        84        2.0000           -0.4169126             -11.3448
        85        2.0000           -0.4156846             -11.3114
        86        2.0000           -0.4151304             -11.2963
        87        2.0000           -0.4142302             -11.2718
        88        2.0000           -0.4137505             -11.2587
        89        2.0000           -0.4128831             -11.2351
        90        2.0000           -0.3999309             -10.8827
        91        2.0000           -0.3850999             -10.4791
        92        2.0000           -0.3841528             -10.4533
        93        2.0000           -0.3820822             -10.3970 (HOMO)
        94                         -0.3001766              -8.1682 (LUMO)
        95                         -0.2966371              -8.0719
        96                         -0.2731571              -7.4330
        97                         -0.2573994              -7.0042
        98                         -0.2525591              -6.8725
        99                         -0.2486855              -6.7671
       100                         -0.2357600              -6.4154
       101                         -0.2357555              -6.4152
       102                         -0.2287331              -6.2241
       103                         -0.2154571              -5.8629
       104                         -0.2097485              -5.7075
       ...                                ...                  ...
       186                          0.7141557              19.4332
      -------------------------------------------------------------
                  HL-Gap            0.0819055 Eh            2.2288 eV

     #   Z          covCN         q      C6AA      α(0)
     1  35 Br       1.060    -0.200   190.608    22.260
     2   6 C        2.918     0.076    26.302     8.410
     3   6 C        2.990    -0.035    28.860     8.812
     4   6 C        2.912    -0.046    29.133     8.851
     5   6 C        3.075     0.046    26.884     8.501
     6   6 C        3.072    -0.010    28.201     8.707
     7   6 C        2.981    -0.035    28.866     8.813
     8   6 C        3.072    -0.010    28.201     8.707
     9   6 C        2.981    -0.035    28.866     8.813
    10   6 C        2.918     0.076    26.302     8.410
    11  35 Br       1.060    -0.200   190.607    22.260
    12   6 C        2.990    -0.035    28.860     8.812
    13   6 C        2.912    -0.046    29.133     8.851
    14   6 C        3.075     0.046    26.884     8.501
    15   7 N        2.802    -0.021    21.648     6.910
    16   6 C        2.913     0.067    26.500     8.441
    17   6 C        2.920    -0.040    28.993     8.830
    18   6 C        2.923    -0.023    28.585     8.768
    19   6 C        2.983    -0.009    28.247     8.718
    20   6 C        2.980     0.214    23.481     7.949
    21   7 N        1.844    -0.320    29.156     8.002
    22   6 C        2.979     0.216    23.447     7.943
    23   6 C        2.983    -0.010    28.250     8.719
    24   6 C        2.923    -0.025    28.639     8.776
    25   6 C        2.918    -0.027    28.672     8.781
    26   6 C        2.920    -0.022    28.545     8.761
    27   6 C        2.918    -0.027    28.676     8.781
    28   6 C        2.923    -0.026    28.649     8.778
    29   7 N        1.844    -0.320    29.141     8.000
    30   6 C        2.979     0.216    23.447     7.943
    31   6 C        2.983    -0.010    28.250     8.719
    32   6 C        2.923    -0.026    28.649     8.778
    33   6 C        2.918    -0.027    28.676     8.781
    34   6 C        2.920    -0.022    28.545     8.761
    35   6 C        2.918    -0.027    28.672     8.781
    36   6 C        2.923    -0.025    28.639     8.776
    37   7 N        1.844    -0.320    29.156     8.002
    38   6 C        2.923    -0.023    28.585     8.768
    39   6 C        2.920    -0.040    28.993     8.830
    40   1 H        0.926     0.060     2.204     2.321
    41   1 H        0.926     0.055     2.262     2.352
    42   1 H        0.926     0.059     2.213     2.326
    43   1 H        0.926     0.059     2.212     2.326
    44   1 H        0.926     0.060     2.204     2.321
    45   1 H        0.926     0.055     2.262     2.352
    46   1 H        0.926     0.059     2.207     2.323
    47   1 H        0.926     0.062     2.174     2.306
    48   1 H        0.926     0.051     2.309     2.376
    49   1 H        0.926     0.048     2.348     2.396
    50   1 H        0.926     0.050     2.319     2.382
    51   1 H        0.926     0.048     2.346     2.395
    52   1 H        0.926     0.051     2.306     2.374
    53   1 H        0.926     0.051     2.306     2.374
    54   1 H        0.926     0.048     2.346     2.395
    55   1 H        0.926     0.050     2.319     2.382
    56   1 H        0.926     0.048     2.348     2.396
    57   1 H        0.926     0.051     2.309     2.376
    58   1 H        0.926     0.062     2.174     2.306
    59   1 H        0.926     0.059     2.207     2.323

molecular dipole:
                 x           y           z       tot (Debye)
 q only:       -2.524      -0.002      -0.002
   full:       -3.069      -0.004      -0.004       7.801

 projected vibrational frequencies (cm⁻¹)
eigval :       -0.00    -0.00    -0.00     0.00     0.00     0.00
eigval :        4.84    10.74    14.64    16.94    26.96    45.58
eigval :       48.08    51.98    55.99    68.00    76.25    87.30
eigval :       88.71    95.58   132.39   135.45   151.98   172.12
eigval :      181.69   188.53   204.44   207.30   235.44   242.60
eigval :      261.66   272.67   293.74   309.96   312.04   333.65
eigval :      364.20   365.49   373.63   375.82   391.36   402.15
eigval :      403.21   421.51   424.79   443.10   453.18   484.89
eigval :      487.10   533.78   553.42   556.09   559.86   587.03
eigval :      587.46   599.37   608.43   613.58   623.90   626.10
eigval :      628.33   642.74   659.90   664.01   670.03   674.92
eigval :      704.17   707.07   722.78   752.45   777.22   795.62
eigval :      803.22   817.42   819.72   830.86   846.73   847.16
eigval :      863.66   869.44   873.08   875.97   876.88   893.54
eigval :      911.00   911.39   913.08   914.11   926.00   929.53
eigval :      931.45   931.93   934.98   935.88   936.36   974.65
eigval :      989.24  1012.74  1015.38  1047.71  1074.47  1074.60
eigval :     1074.68  1077.83  1087.38  1107.85  1111.47  1121.14
eigval :     1128.17  1155.61  1161.53  1166.34  1176.61  1177.75
eigval :     1179.18  1189.52  1202.32  1203.75  1205.34  1218.37
eigval :     1235.58  1251.03  1254.44  1267.41  1269.02  1294.40
eigval :     1323.35  1326.35  1328.09  1345.78  1350.10  1353.12
eigval :     1367.21  1368.02  1377.48  1399.53  1407.52  1415.83
eigval :     1428.83  1430.25  1452.25  1462.75  1464.98  1471.92
eigval :     1488.67  1504.98  1510.10  1555.48  1565.91  1574.48
eigval :     1580.74  1581.47  1582.16  1587.24  1592.24  1592.91
eigval :     1599.51  3078.86  3078.96  3082.85  3083.15  3092.95
eigval :     3093.13  3094.38  3095.43  3099.12  3099.24  3104.08
eigval :     3104.44  3105.21  3105.81  3106.21  3108.28  3109.51
eigval :     3110.25  3110.66  3111.58

   temp. (K)  partition function   enthalpy   heat capacity  entropy
                                   cal/mol     cal/K/mol   cal/K/mol   J/K/mol
 298.15  VIB  0.663E+16            18466.554    111.651    118.349
         ROT  0.642E+08              888.752      2.981     38.708
         INT  0.426E+24            19355.307    114.632    157.056
         TR   0.154E+29             1481.254      4.968     45.195
         TOT                       20836.5608   119.6001   202.2509   846.2179

       T/K    H(0)-H(T)+PV         H(T)/Eh          T*S/Eh         G(T)/Eh
   ------------------------------------------------------------------------
    298.15    0.332052E-01    0.461109E+00    0.960959E-01    0.365013E+00
   ------------------------------------------------------------------------

         :::::::::::::::::::::::::::::::::::::::::::::::::::::
         ::                  THERMODYNAMIC                  ::
         :::::::::::::::::::::::::::::::::::::::::::::::::::::
         :: total free energy        -100.463187602296 Eh   ::
         ::.................................................::
         :: total energy             -100.828200993256 Eh   ::
         :: zero point energy           0.427904167605 Eh   ::
         :: G(RRHO) w/o ZPVE           -0.062890776645 Eh   ::
         :: G(RRHO) contrib.            0.365013390960 Eh   ::
         :::::::::::::::::::::::::::::::::::::::::::::::::::::

           -------------------------------------------------
          | TOTAL ENERGY             -100.828200993256 Eh   |
          | TOTAL ENTHALPY           -100.367091652464 Eh   |
          | TOTAL FREE ENERGY        -100.463187602296 Eh   |
          | GRADIENT NORM               0.000089212214 Eh/α |
          | HOMO-LUMO GAP               2.228763122457 eV   |
           -------------------------------------------------

 * finished run on 2025/08/29 at 12:53:53.780
