   * xtb version 6.7.1 (edcfbbe) compiled by 'albert@albert-system' on 2024-07-22

   ID    Z sym.   atoms
    1   35 Br     1, 11
    2    6 C      2-10, 12-14, 16-20, 22-28, 30-36, 38, 39
    3    7 N      15, 21, 29, 37
    4    1 H      40-59

          program call               : xtb data2507/toluene/2BrCPT/2BrCPT_toluene_S0_finalOpt.xtbopt.xyz --gfn 2 --uhf 2 --gbsa toluene --ohess vtight --parallel 40 --molden --ceasefiles --namespace data2507/toluene/2BrCPT/2BrCPT_toluene_T1_preOpt
      * Solvation model:               GBSA
        Solvent                        toluene
        Solvent mass                       9.2140E+01 g/mol
          :  Hamiltonian                  GFN2-xTB          :
 * total energy  :  -100.7403947 Eh     change       -0.2407106E-08 Eh
 * total energy  :  -100.7427730 Eh     change       -0.2378325E-02 Eh
 * total energy  :  -100.7441396 Eh     change       -0.1366630E-02 Eh
 * total energy  :  -100.7443096 Eh     change       -0.1699825E-03 Eh
 * total energy  :  -100.7444885 Eh     change       -0.1788749E-03 Eh
 * total energy  :  -100.7445137 Eh     change       -0.2519622E-04 Eh
 * total energy  :  -100.7445202 Eh     change       -0.6565526E-05 Eh
 * total energy  :  -100.7445263 Eh     change       -0.6031390E-05 Eh
 * total energy  :  -100.7445296 Eh     change       -0.3278564E-05 Eh
 * total energy  :  -100.7445314 Eh     change       -0.1841483E-05 Eh
 * total energy  :  -100.7445583 Eh     change       -0.1629890E-06 Eh
 * total energy  :  -100.7445584 Eh     change       -0.1454339E-06 Eh
 * total energy  :  -100.7445586 Eh     change       -0.1485173E-06 Eh
 * total energy  :  -100.7445587 Eh     change       -0.1396752E-06 Eh
 * total energy  :  -100.7445588 Eh     change       -0.1294531E-06 Eh
 * total energy  :  -100.7445590 Eh     change       -0.1165436E-06 Eh
 * total energy  :  -100.7445591 Eh     change       -0.1038731E-06 Eh
 * total energy  :  -100.7445592 Eh     change       -0.1009326E-06 Eh
 * total energy  :  -100.7445593 Eh     change       -0.9150007E-07 Eh
   *** GEOMETRY OPTIMIZATION CONVERGED AFTER 40 ITERATIONS ***

 final structure:
================
59
 xtb: 6.7.1 (edcfbbe)
Br           6.09310580761434       -4.15280553141583       -1.28248773509198
C            4.73125722978810       -2.86648130150566       -0.88834466790734
C            3.39603971177423       -3.24349430777604       -1.03045334539955
C            2.38356305113157       -2.34749598478370       -0.75205633980019
C            2.73496122722570       -1.07258964206671       -0.32044523230815
C            4.09699206413140       -0.69123216414868       -0.20427762752415
C            5.10723850566767       -1.59757240825302       -0.48580956205917
C            4.09664894130798        0.68469808927365        0.20865777371116
C            5.10641896779459        1.59103784864847        0.49191424491113
C            4.72976110438297        2.85986398623732        0.89407761574450
Br           6.09093304392429        4.14619321011183        1.29058261383040
C            3.39430938130634        3.23684749831447        1.03404501467390
C            2.38230188207194        2.34084837673246        0.75394789706640
C            2.73443531456198        1.06600099712280        0.32276272522378
N            1.93082479725167       -0.00330368005950        0.00051418060031
C            0.53016830785785       -0.00331087019537       -0.00038444817102
C           -0.17758912083789        1.01557831301309       -0.65506141493984
C           -1.54665259391808        1.01800435854535       -0.65477120606024
C           -2.27509629006605       -0.00244910584152       -0.00148333251811
C           -3.69147189899658       -0.00161411578122       -0.00132473381802
N           -4.37489678806867        0.98913680527468       -0.62931492434939
C           -5.68123948750668        0.97646690222085       -0.60386233123352
C           -6.41512441234555        2.05581259284978       -1.25367653558378
C           -7.81091565687888        2.06749000601609       -1.23574323402855
C           -8.50472057657221        3.09352725958332       -1.84644707279015
C           -7.81859283372487        4.11827224904159       -2.48085890236604
C           -6.43107404939744        4.11264231703097       -2.50327260835535
C           -5.73089642536657        3.09047164535415       -1.89509812650875
N           -6.39136847086421       -0.00050416731367       -0.00258765337463
C           -5.68256107645057       -0.97795206222545        0.59951444804127
C           -6.41795769916557       -2.05672376283404        1.24854249203130
C           -5.73517194464306       -3.09361351247414        1.88789845238840
C           -6.43679263178803       -4.11540969965234        2.49503414017391
C           -7.82433927104644       -4.11838270696479        2.47372375134612
C           -8.50904317542358       -3.09135031190003        1.84147110515752
C           -7.81378751860863       -2.06572655970744        1.23172982022185
N           -4.37624640027472       -0.99168276264869        0.62618504348056
C           -1.54774993769306       -1.02344366114580        0.65220297549830
C           -0.17867484610262       -1.02188047693735        0.65358154549567
H            3.15812677327854       -4.24106138355071       -1.36485148709432
H            1.35124638245616       -2.63113627214701       -0.87947680087137
H            6.14670000234649       -1.32464876896634       -0.39879595019557
H            6.14602727015545        1.31816372875366        0.40652662252039
H            3.15584512114361        4.23436251901243        1.36820577902938
H            1.34977748980843        2.62442515307106        0.87981173541058
H            0.36848679557620        1.77989415684956       -1.18778594295303
H           -2.09900954143673        1.79066116910548       -1.16654154694557
H           -8.33015570028347        1.26328584558286       -0.73729014498005
H           -9.58467576368340        3.09633970237366       -1.82855845589834
H           -8.36336399957826        4.91978699277597       -2.95709535673366
H           -5.89592432800997        4.91034490250223       -2.99721963348665
H           -4.65177150155549        3.07276093413463       -1.90456783599349
H           -4.65600572168978       -3.07797634044865        1.89645511678261
H           -5.90275991801476       -4.91492359663346        2.98725901695547
H           -8.37024233262476       -4.91963996877286        2.94909421825299
H           -9.58901666088915       -3.09209038078784        1.82447941434401
H           -8.33189407188178       -1.25978132217668        0.73490707485227
H           -2.10097203826969       -1.79562962566431        1.16375583804309
H            0.36646604015497       -1.78647385704553        1.18686358581445

          :  Hamiltonian                  GFN2-xTB          :
         :: gradient norm              0.000076424997 Eh/a0 ::
         :: HOMO-LUMO gap              0.202175294823 eV    ::
         :: SCC energy              -102.434457628032 Eh    ::
         :: -> dispersion             -0.080807802402 Eh    ::
         :: -> Gsolv                  -0.051337705259 Eh    ::
         :: repulsion energy           1.689898361309 Eh    ::

    * Orbital Energies and Occupations

         #    Occupation            Energy/Eh            Energy/eV
      -------------------------------------------------------------
         1        2.0000           -0.8455923             -23.0097
       ...           ...                  ...                  ...
        82        2.0000           -0.4199213             -11.4266
        83        2.0000           -0.4196544             -11.4194
        84        2.0000           -0.4180653             -11.3761
        85        2.0000           -0.4154735             -11.3056
        86        2.0000           -0.4154191             -11.3041
        87        2.0000           -0.4123765             -11.2213
        88        2.0000           -0.4117358             -11.2039
        89        2.0000           -0.4090868             -11.1318
        90        2.0000           -0.4050738             -11.0226
        91        1.8749           -0.3853601             -10.4862
        92        1.6948           -0.3842935             -10.4572
        93        1.4303           -0.3832451             -10.4286
        94        0.9804           -0.2966591              -8.0725 (HOMO)
        95        0.0196           -0.2892296              -7.8703 (LUMO)
        96                         -0.2775808              -7.5534
        97                         -0.2586692              -7.0387
        98                         -0.2535472              -6.8994
        99                         -0.2324262              -6.3246
       100                         -0.2323711              -6.3231
       101                         -0.2322987              -6.3212
       102                         -0.2316681              -6.3040
       103                         -0.2203533              -5.9961
       104                         -0.2142923              -5.8312
       105                         -0.2118360              -5.7644
       ...                                ...                  ...
       186                          0.7097355              19.3129
      -------------------------------------------------------------
                  HL-Gap            0.0074295 Eh            0.2022 eV

     #   Z          covCN         q      C6AA      α(0)
     1  35 Br       1.063    -0.176   189.909    22.220
     2   6 C        2.918     0.082    26.181     8.391
     3   6 C        2.990    -0.034    28.845     8.810
     4   6 C        2.911    -0.038    28.948     8.822
     5   6 C        3.078     0.046    26.889     8.502
     6   6 C        3.070    -0.007    28.130     8.696
     7   6 C        2.982    -0.032    28.783     8.801
     8   6 C        3.070    -0.007    28.129     8.696
     9   6 C        2.982    -0.032    28.783     8.801
    10   6 C        2.918     0.082    26.181     8.391
    11  35 Br       1.063    -0.176   189.910    22.220
    12   6 C        2.990    -0.034    28.845     8.810
    13   6 C        2.911    -0.038    28.948     8.822
    14   6 C        3.078     0.046    26.889     8.502
    15   7 N        2.800     0.005    21.166     6.833
    16   6 C        2.913     0.038    27.145     8.543
    17   6 C        2.915    -0.041    29.019     8.834
    18   6 C        2.921    -0.038    28.944     8.822
    19   6 C        2.976    -0.013    28.322     8.729
    20   6 C        2.926     0.161    24.530     8.122
    21   7 N        1.846    -0.270    27.853     7.822
    22   6 C        2.924     0.204    23.672     7.979
    23   6 C        2.983    -0.007    28.183     8.708
    24   6 C        2.923    -0.028    28.694     8.784
    25   6 C        2.918    -0.028    28.697     8.785
    26   6 C        2.920    -0.026    28.653     8.778
    27   6 C        2.918    -0.028    28.701     8.785
    28   6 C        2.923    -0.029    28.715     8.788
    29   7 N        1.845    -0.316    29.030     7.985
    30   6 C        2.924     0.204    23.672     7.979
    31   6 C        2.983    -0.007    28.183     8.708
    32   6 C        2.923    -0.029    28.715     8.788
    33   6 C        2.918    -0.028    28.701     8.785
    34   6 C        2.920    -0.026    28.653     8.778
    35   6 C        2.918    -0.028    28.697     8.785
    36   6 C        2.923    -0.028    28.694     8.784
    37   7 N        1.846    -0.270    27.853     7.822
    38   6 C        2.921    -0.038    28.944     8.822
    39   6 C        2.915    -0.041    29.019     8.834
    40   1 H        0.926     0.065     2.146     2.291
    41   1 H        0.926     0.062     2.175     2.306
    42   1 H        0.926     0.066     2.128     2.281
    43   1 H        0.926     0.066     2.128     2.281
    44   1 H        0.926     0.065     2.146     2.291
    45   1 H        0.926     0.062     2.175     2.306
    46   1 H        0.926     0.047     2.362     2.404
    47   1 H        0.926     0.044     2.390     2.417
    48   1 H        0.926     0.046     2.367     2.406
    49   1 H        0.926     0.044     2.390     2.418
    50   1 H        0.926     0.046     2.370     2.407
    51   1 H        0.926     0.045     2.384     2.414
    52   1 H        0.926     0.045     2.382     2.413
    53   1 H        0.926     0.045     2.382     2.413
    54   1 H        0.926     0.045     2.384     2.414
    55   1 H        0.926     0.046     2.370     2.407
    56   1 H        0.926     0.044     2.390     2.418
    57   1 H        0.926     0.046     2.367     2.406
    58   1 H        0.926     0.044     2.390     2.417
    59   1 H        0.926     0.047     2.362     2.404

molecular dipole:
                 x           y           z       tot (Debye)
 q only:       -0.534      -0.000      -0.001
   full:       -1.096      -0.000      -0.001       2.785

 projected vibrational frequencies (cm⁻¹)
eigval :       -0.00    -0.00    -0.00    -0.00     0.00     0.00
eigval :        6.34     8.21    15.83    20.43    27.69    42.71
eigval :       44.14    51.37    56.89    67.51    70.90    86.11
eigval :       89.71   109.42   130.72   132.03   146.45   167.32
eigval :      186.16   191.00   199.59   216.88   235.20   235.81
eigval :      249.56   260.01   291.06   301.21   305.14   325.47
eigval :      358.82   363.70   366.10   367.29   380.15   388.71
eigval :      401.42   405.61   409.14   416.80   429.67   459.91
eigval :      484.58   538.82   545.56   548.53   551.82   558.85
eigval :      562.85   571.56   585.28   588.13   593.37   599.92
eigval :      606.47   627.80   649.52   652.91   661.01   661.13
eigval :      662.86   671.81   676.18   703.99   712.57   761.81
eigval :      763.21   797.10   797.28   805.22   807.39   808.51
eigval :      810.37   835.36   861.82   863.51   867.54   869.67
eigval :      888.94   893.21   896.47   901.33   903.00   908.56
eigval :      914.49   919.78   925.43   926.42   929.33   929.53
eigval :      942.15   981.82   985.15   993.05  1012.71  1059.24
eigval :     1068.85  1072.15  1073.24  1075.13  1108.21  1109.44
eigval :     1120.23  1123.49  1139.21  1143.60  1155.64  1164.94
eigval :     1177.72  1178.02  1181.55  1185.48  1188.95  1213.98
eigval :     1229.80  1242.68  1247.67  1250.33  1266.32  1269.66
eigval :     1272.28  1275.61  1326.67  1328.31  1329.27  1336.52
eigval :     1342.95  1351.40  1364.62  1392.24  1393.19  1401.83
eigval :     1421.27  1424.95  1433.51  1434.31  1437.59  1459.39
eigval :     1459.52  1464.10  1477.87  1478.25  1541.76  1549.47
eigval :     1556.96  1561.25  1569.26  1569.73  1576.27  1582.01
eigval :     1589.06  3076.68  3076.81  3079.45  3079.59  3081.20
eigval :     3082.71  3090.30  3090.63  3096.17  3096.27  3097.27
eigval :     3098.70  3098.76  3100.26  3101.67  3101.76  3107.51
eigval :     3109.86  3111.77  3112.20

   temp. (K)  partition function   enthalpy   heat capacity  entropy
                                   cal/mol     cal/K/mol   cal/K/mol   J/K/mol
 298.15  VIB  0.850E+16            18893.889    114.564    120.288
         ROT  0.644E+08              888.752      2.981     38.714
         INT  0.547E+24            19782.642    117.545    159.002
         TR   0.154E+29             1481.254      4.968     45.195
         TOT                       21263.8956   122.5127   204.1967   854.3588

       T/K    H(0)-H(T)+PV         H(T)/Eh          T*S/Eh         G(T)/Eh
   ------------------------------------------------------------------------
    298.15    0.338862E-01    0.455735E+00    0.970204E-01    0.358715E+00
   ------------------------------------------------------------------------

         :::::::::::::::::::::::::::::::::::::::::::::::::::::
         ::                  THERMODYNAMIC                  ::
         :::::::::::::::::::::::::::::::::::::::::::::::::::::
         :: total free energy        -100.385844213702 Eh   ::
         ::.................................................::
         :: total energy             -100.744559265506 Eh   ::
         :: zero point energy           0.421849301825 Eh   ::
         :: G(RRHO) w/o ZPVE           -0.063134250021 Eh   ::
         :: G(RRHO) contrib.            0.358715051805 Eh   ::
         :::::::::::::::::::::::::::::::::::::::::::::::::::::

           -------------------------------------------------
          | TOTAL ENERGY             -100.744559265506 Eh   |
          | TOTAL ENTHALPY           -100.288823789170 Eh   |
          | TOTAL FREE ENERGY        -100.385844213702 Eh   |
          | GRADIENT NORM               0.000072858308 Eh/α |
          | HOMO-LUMO GAP               0.202166263065 eV   |
           -------------------------------------------------

 * finished run on 2025/08/29 at 12:53:59.143
