   * xtb version 6.7.1 (edcfbbe) compiled by 'albert@albert-system' on 2024-07-22

   ID    Z sym.   atoms
    1   35 Br     1, 11
    2    6 C      2-10, 12-14, 16-20, 22-28, 30-36, 38, 39
    3    7 N      15, 21, 29, 37
    4    1 H      40-59

          program call               : xtb data2507/toluene/2BrCPT/2BrCPT_toluene_T1_crest.xyz --gfn 2 --uhf 2 --gbsa toluene --ohess vtight --parallel 40 --molden --ceasefiles --namespace data2507/toluene/2BrCPT/2BrCPT_toluene_T1_finalOpt
      * Solvation model:               GBSA
        Solvent                        toluene
        Solvent mass                       9.2140E+01 g/mol
          :  Hamiltonian                  GFN2-xTB          :
 * total energy  :  -100.7444076 Eh     change       -0.7415019E-07 Eh
 * total energy  :  -100.7444999 Eh     change       -0.9229598E-04 Eh
 * total energy  :  -100.7445277 Eh     change       -0.2777545E-04 Eh
 * total energy  :  -100.7445313 Eh     change       -0.3572834E-05 Eh
 * total energy  :  -100.7445339 Eh     change       -0.2603437E-05 Eh
 * total energy  :  -100.7445366 Eh     change       -0.2747438E-05 Eh
 * total energy  :  -100.7445394 Eh     change       -0.2743881E-05 Eh
 * total energy  :  -100.7445419 Eh     change       -0.2517785E-05 Eh
 * total energy  :  -100.7445446 Eh     change       -0.2706452E-05 Eh
 * total energy  :  -100.7445481 Eh     change       -0.3494905E-05 Eh
 * total energy  :  -100.7445522 Eh     change       -0.4139948E-05 Eh
 * total energy  :  -100.7445552 Eh     change       -0.2962837E-05 Eh
 * total energy  :  -100.7445565 Eh     change       -0.1370054E-05 Eh
 * total energy  :  -100.7445574 Eh     change       -0.8670416E-06 Eh
 * total energy  :  -100.7445581 Eh     change       -0.6856640E-06 Eh
 * total energy  :  -100.7445586 Eh     change       -0.5374612E-06 Eh
 * total energy  :  -100.7445590 Eh     change       -0.4057227E-06 Eh
 * total energy  :  -100.7445592 Eh     change       -0.2005347E-06 Eh
 * total energy  :  -100.7445593 Eh     change       -0.6964038E-07 Eh
   *** GEOMETRY OPTIMIZATION CONVERGED AFTER 19 ITERATIONS ***

 final structure:
================
59
 xtb: 6.7.1 (edcfbbe)
Br           6.08200581575547       -4.16404803113944       -1.24788978429185
C            4.72305190543541       -2.87284034241025       -0.85991267831093
C            3.38682383978046       -3.25169139042598       -0.98712360496444
C            2.37636558387752       -2.35172503706634       -0.71433586602422
C            2.73094113867465       -1.07090180300643       -0.30336627202133
C            4.09373480281577       -0.68867587069870       -0.20011304824047
C            5.10193785666756       -1.59897666666768       -0.47618861265259
C            4.09629366749289        0.69285932053040        0.19372397412148
C            5.10790648239264        1.60222284284182        0.46018805882511
C            4.73384184021021        2.87660275444836        0.84693454804393
Br           6.09768709578726        4.16651433975620        1.22176719512393
C            3.39924964938457        3.25673581463578        0.98681179862281
C            2.38541485045546        2.35785889772704        0.72313354252850
C            2.73487810969754        1.07667928397833        0.30886356369410
N            1.92914150149758        0.00339004266255        0.00623757287525
C            0.52829385617718        0.00499431746175        0.00935157870883
C           -0.17986139574115        1.01127335820438       -0.66396860089339
C           -1.54892805093293        1.01347825841932       -0.66284890631978
C           -2.27682833775416        0.00649232107823        0.01162235062265
C           -3.69317586161716        0.00673227815176        0.01070876799137
N           -4.37642866098984        0.97935746615739       -0.64516931703934
C           -5.68276149277830        0.96470540185901       -0.62456371426592
C           -6.41528855945999        2.02072616763409       -1.31319855009975
C           -7.81052030859717        2.00025391859827       -1.35069031990340
C           -8.50240564401847        3.00343025076334       -2.00041065191362
C           -7.81490004070563        4.03698115576557       -2.61883218348205
C           -6.42781885956985        4.06321224810227       -2.58620430056815
C           -5.72958116874736        3.06370144000458       -1.93942529845630
N           -6.39360764965106        0.00609148350904        0.00478338170291
C           -5.68494040260436       -0.95198955237688        0.63765384746000
C           -6.42029229447822       -2.00881692852139        1.32192560698445
C           -5.73727873683759       -3.04854432350671        1.95646870597031
C           -6.43850330775459       -4.04928862081307        2.59809312007520
C           -7.82592885924043       -4.02771709506543        2.61705302546745
C           -8.51078981920822       -2.99735756555840        1.99041509340225
C           -7.81592121624092       -1.99289406250530        1.34593166332085
N           -4.37864348365621       -0.96578999306171        0.66420165903622
C           -1.54899552230246       -1.00065381989809        0.68587719576527
C           -0.17985415551377       -0.99995411621707        0.68462132858318
H            3.14661441446734       -4.25372617911681       -1.30617336035035
H            1.34311786509869       -2.63686131619437       -0.83046843076534
H            6.14199413512130       -1.32515938563992       -0.39973590526249
H            6.14694906398224        1.32740903311572        0.37409347506847
H            3.16300400674837        4.25902586676466        1.30801528647325
H            1.35353927568441        2.64403042174259        0.84860706094838
H            0.36579436855479        1.76527400851389       -1.21161949268224
H           -2.10174747037561        1.77534644967721       -1.19006248597061
H           -8.33077417836375        1.18882677673586       -0.86520462835132
H           -9.58198813858233        2.98135424985749       -2.02582021942378
H           -8.35829064159329        4.82087416337678       -3.12503649266002
H           -5.89158296267399        4.86769609406155       -3.06779008098802
H           -4.65081443433120        3.07080076132896       -1.90562832240343
H           -4.65821098249414       -3.05210483217431        1.93325398654774
H           -5.90434496926890       -4.85124333747428        3.08617989810410
H           -8.37163205439417       -4.81266639824034        3.11911999648420
H           -9.59064307021218       -2.97886260606199        2.00520094884131
H           -8.33410753909878       -1.18392793088025        0.85415585439571
H           -2.10175275494561       -1.76187018287484        1.21410643663756
H            0.36594149727403       -1.75443482936583        1.23148821847864

          :  Hamiltonian                  GFN2-xTB          :
         :: gradient norm              0.000045043529 Eh/a0 ::
         :: HOMO-LUMO gap              0.202546353615 eV    ::
         :: SCC energy              -102.434490877893 Eh    ::
         :: -> dispersion             -0.080803106729 Eh    ::
         :: -> Gsolv                  -0.051346226591 Eh    ::
         :: repulsion energy           1.689931564176 Eh    ::

    * Orbital Energies and Occupations

         #    Occupation            Energy/Eh            Energy/eV
      -------------------------------------------------------------
         1        2.0000           -0.8456033             -23.0100
       ...           ...                  ...                  ...
        82        2.0000           -0.4199068             -11.4262
        83        2.0000           -0.4196625             -11.4196
        84        2.0000           -0.4180762             -11.3764
        85        2.0000           -0.4154848             -11.3059
        86        2.0000           -0.4154278             -11.3044
        87        2.0000           -0.4123787             -11.2214
        88        2.0000           -0.4117561             -11.2045
        89        2.0000           -0.4090884             -11.1319
        90        2.0000           -0.4050814             -11.0228
        91        1.8707           -0.3853556             -10.4861
        92        1.6957           -0.3843287             -10.4581
        93        1.4336           -0.3832895             -10.4298
        94        0.9805           -0.2966604              -8.0725 (HOMO)
        95        0.0195           -0.2892168              -7.8700 (LUMO)
        96                         -0.2775856              -7.5535
        97                         -0.2586704              -7.0388
        98                         -0.2535151              -6.8985
        99                         -0.2324359              -6.3249
       100                         -0.2323576              -6.3228
       101                         -0.2323090              -6.3214
       102                         -0.2316666              -6.3040
       103                         -0.2203612              -5.9963
       104                         -0.2142939              -5.8312
       105                         -0.2118384              -5.7644
       ...                                ...                  ...
       186                          0.7097340              19.3128
      -------------------------------------------------------------
                  HL-Gap            0.0074437 Eh            0.2026 eV

     #   Z          covCN         q      C6AA      α(0)
     1  35 Br       1.063    -0.175   189.908    22.220
     2   6 C        2.918     0.082    26.181     8.391
     3   6 C        2.990    -0.034    28.845     8.810
     4   6 C        2.911    -0.038    28.948     8.822
     5   6 C        3.078     0.046    26.888     8.501
     6   6 C        3.070    -0.007    28.130     8.696
     7   6 C        2.982    -0.032    28.783     8.800
     8   6 C        3.070    -0.007    28.130     8.697
     9   6 C        2.982    -0.032    28.783     8.800
    10   6 C        2.918     0.082    26.181     8.391
    11  35 Br       1.063    -0.175   189.908    22.220
    12   6 C        2.990    -0.034    28.845     8.810
    13   6 C        2.911    -0.038    28.947     8.822
    14   6 C        3.078     0.046    26.888     8.501
    15   7 N        2.800     0.005    21.168     6.833
    16   6 C        2.913     0.038    27.146     8.544
    17   6 C        2.915    -0.041    29.018     8.833
    18   6 C        2.921    -0.038    28.945     8.823
    19   6 C        2.976    -0.013    28.322     8.730
    20   6 C        2.926     0.161    24.531     8.122
    21   7 N        1.846    -0.269    27.849     7.821
    22   6 C        2.924     0.205    23.671     7.979
    23   6 C        2.983    -0.007    28.182     8.708
    24   6 C        2.923    -0.028    28.693     8.784
    25   6 C        2.918    -0.028    28.697     8.785
    26   6 C        2.920    -0.026    28.652     8.778
    27   6 C        2.918    -0.028    28.701     8.785
    28   6 C        2.923    -0.029    28.714     8.788
    29   7 N        1.845    -0.316    29.033     7.986
    30   6 C        2.924     0.204    23.673     7.979
    31   6 C        2.983    -0.007    28.182     8.708
    32   6 C        2.923    -0.029    28.715     8.788
    33   6 C        2.918    -0.028    28.701     8.785
    34   6 C        2.920    -0.026    28.653     8.778
    35   6 C        2.918    -0.028    28.697     8.785
    36   6 C        2.923    -0.028    28.694     8.784
    37   7 N        1.846    -0.269    27.847     7.821
    38   6 C        2.921    -0.038    28.945     8.823
    39   6 C        2.915    -0.041    29.018     8.833
    40   1 H        0.926     0.065     2.146     2.291
    41   1 H        0.926     0.062     2.176     2.307
    42   1 H        0.926     0.066     2.128     2.281
    43   1 H        0.926     0.066     2.128     2.281
    44   1 H        0.926     0.065     2.146     2.291
    45   1 H        0.926     0.062     2.176     2.307
    46   1 H        0.926     0.047     2.364     2.404
    47   1 H        0.926     0.044     2.390     2.417
    48   1 H        0.926     0.046     2.367     2.406
    49   1 H        0.926     0.044     2.390     2.418
    50   1 H        0.926     0.046     2.369     2.407
    51   1 H        0.926     0.045     2.383     2.414
    52   1 H        0.926     0.045     2.382     2.414
    53   1 H        0.926     0.045     2.382     2.414
    54   1 H        0.926     0.045     2.384     2.414
    55   1 H        0.926     0.046     2.370     2.407
    56   1 H        0.926     0.044     2.390     2.418
    57   1 H        0.926     0.046     2.367     2.406
    58   1 H        0.926     0.044     2.390     2.418
    59   1 H        0.926     0.047     2.363     2.404

molecular dipole:
                 x           y           z       tot (Debye)
 q only:       -0.534       0.001       0.003
   full:       -1.096       0.001       0.005       2.785

 projected vibrational frequencies (cm⁻¹)
eigval :       -0.00    -0.00    -0.00    -0.00     0.00     0.00
eigval :        8.34    10.17    15.40    26.69    31.45    42.28
eigval :       44.26    50.12    59.02    66.62    74.16    89.43
eigval :       91.34   109.78   129.85   132.15   149.61   167.64
eigval :      187.03   191.37   201.07   217.95   234.97   235.76
eigval :      249.18   260.32   291.30   301.18   306.36   330.85
eigval :      358.48   364.26   365.59   367.35   380.91   389.62
eigval :      403.00   406.95   410.73   417.25   429.40   462.11
eigval :      484.60   539.50   545.33   547.63   553.37   559.75
eigval :      564.22   570.31   585.00   588.31   594.02   600.32
eigval :      606.45   626.87   649.88   652.83   660.60   661.95
eigval :      664.00   671.76   677.36   704.65   712.39   760.41
eigval :      762.01   796.55   797.26   803.75   807.40   817.83
eigval :      819.50   835.40   863.13   865.11   867.81   870.13
eigval :      890.17   898.00   898.92   900.99   904.38   914.56
eigval :      917.02   920.04   925.21   926.65   927.40   928.01
eigval :      942.70   981.33   985.14   992.54  1012.86  1059.30
eigval :     1068.91  1072.27  1072.92  1074.95  1107.31  1107.40
eigval :     1120.03  1123.65  1138.57  1143.59  1154.87  1166.85
eigval :     1176.41  1176.91  1181.27  1187.60  1188.91  1214.01
eigval :     1230.12  1242.74  1247.65  1251.47  1265.96  1268.99
eigval :     1272.45  1275.93  1326.11  1328.19  1329.19  1336.74
eigval :     1342.81  1351.34  1365.72  1392.24  1392.93  1402.08
eigval :     1421.61  1425.12  1431.73  1433.53  1436.80  1459.52
eigval :     1459.85  1464.65  1477.46  1478.45  1541.79  1549.52
eigval :     1556.98  1561.30  1569.10  1569.73  1576.27  1581.94
eigval :     1589.02  3076.37  3076.57  3079.32  3079.55  3081.09
eigval :     3082.64  3089.78  3090.02  3095.90  3096.00  3096.77
eigval :     3098.26  3098.54  3099.75  3101.71  3101.85  3107.28
eigval :     3109.53  3111.79  3112.26

   temp. (K)  partition function   enthalpy   heat capacity  entropy
                                   cal/mol     cal/K/mol   cal/K/mol   J/K/mol
 298.15  VIB  0.332E+16            18842.438    114.599    119.288
         ROT  0.644E+08              888.752      2.981     38.714
         INT  0.214E+24            19731.190    117.580    158.002
         TR   0.154E+29             1481.254      4.968     45.195
         TOT                       21212.4441   122.5483   203.1969   850.1758

       T/K    H(0)-H(T)+PV         H(T)/Eh          T*S/Eh         G(T)/Eh
   ------------------------------------------------------------------------
    298.15    0.338042E-01    0.455817E+00    0.965454E-01    0.359272E+00
   ------------------------------------------------------------------------

         :::::::::::::::::::::::::::::::::::::::::::::::::::::
         ::                  THERMODYNAMIC                  ::
         :::::::::::::::::::::::::::::::::::::::::::::::::::::
         :: total free energy        -100.385287540267 Eh   ::
         ::.................................................::
         :: total energy             -100.744559311633 Eh   ::
         :: zero point energy           0.422012994996 Eh   ::
         :: G(RRHO) w/o ZPVE           -0.062741223629 Eh   ::
         :: G(RRHO) contrib.            0.359271771367 Eh   ::
         :::::::::::::::::::::::::::::::::::::::::::::::::::::

           -------------------------------------------------
          | TOTAL ENERGY             -100.744559311633 Eh   |
          | TOTAL ENTHALPY           -100.288742135305 Eh   |
          | TOTAL FREE ENERGY        -100.385287540267 Eh   |
          | GRADIENT NORM               0.000048050140 Eh/α |
          | HOMO-LUMO GAP               0.202552789594 eV   |
           -------------------------------------------------

 * finished run on 2025/08/29 at 12:58:28.962
