   * xtb version 6.7.1 (edcfbbe) compiled by 'albert@albert-system' on 2024-07-22

   ID    Z sym.   atoms
    1   35 Br     1, 11
    2    6 C      2-10, 12-14, 16-20, 22-28, 30-36, 38, 39
    3    7 N      15, 21, 29, 37
    4    1 H      40-59

          program call               : xtb data2507/toluene/2BrCPT/2BrCPT.xyz --gfn 2 --gbsa toluene --ohess vtight --parallel 40 --molden --ceasefiles --namespace data2507/toluene/2BrCPT/2BrCPT_toluene_S0_preOpt
      * Solvation model:               GBSA
        Solvent                        toluene
        Solvent mass                       9.2140E+01 g/mol
          :  Hamiltonian                  GFN2-xTB          :
 * total energy  :  -100.8143321 Eh     change       -0.7376002E-09 Eh
 * total energy  :  -100.8243306 Eh     change       -0.9998433E-02 Eh
 * total energy  :  -100.8268762 Eh     change       -0.2545644E-02 Eh
 * total energy  :  -100.8275156 Eh     change       -0.6394340E-03 Eh
 * total energy  :  -100.8278440 Eh     change       -0.3283803E-03 Eh
 * total energy  :  -100.8279361 Eh     change       -0.9204973E-04 Eh
 * total energy  :  -100.8280121 Eh     change       -0.7601118E-04 Eh
 * total energy  :  -100.8280506 Eh     change       -0.3854501E-04 Eh
 * total energy  :  -100.8280836 Eh     change       -0.3300262E-04 Eh
 * total energy  :  -100.8281136 Eh     change       -0.2998208E-04 Eh
 * total energy  :  -100.8281875 Eh     change       -0.4986201E-06 Eh
 * total energy  :  -100.8281878 Eh     change       -0.3305558E-06 Eh
 * total energy  :  -100.8281880 Eh     change       -0.1995407E-06 Eh
 * total energy  :  -100.8281881 Eh     change       -0.1566846E-06 Eh
 * total energy  :  -100.8281883 Eh     change       -0.1518994E-06 Eh
 * total energy  :  -100.8281885 Eh     change       -0.1695806E-06 Eh
 * total energy  :  -100.8281887 Eh     change       -0.2046365E-06 Eh
 * total energy  :  -100.8281889 Eh     change       -0.2387694E-06 Eh
 * total energy  :  -100.8281889 Eh     change       -0.1777238E-08 Eh
   *** GEOMETRY OPTIMIZATION CONVERGED AFTER 44 ITERATIONS ***

 final structure:
================
59
 xtb: 6.7.1 (edcfbbe)
Br           8.08643504067607       -3.51106831001839       -2.55592281546549
C            6.72072191205100       -2.41930508648804       -1.76405010264738
C            5.38737838572221       -2.73512913292927       -2.01787939168683
C            4.37201910262983       -1.98125286504137       -1.46423213392695
C            4.71975724584200       -0.91296210792748       -0.64650096417736
C            6.07736683165379       -0.58440094633243       -0.41647055890522
C            7.09221599277165       -1.34860997516704       -0.97752597193592
C            6.07736905713614        0.58436294768414        0.41644109999578
C            7.09222101862215        1.34856218552467        0.97750475467349
C            6.72073092419262        2.41925897713865        1.76402840471576
Br           8.08644771477432        3.51101663858538        2.55590212526106
C            5.38738841657529        2.73509689151405        2.01784586684215
C            4.37202638006614        1.98122967374914        1.46419138009895
C            4.71976086400997        0.91293572846295        0.64646278564216
N            3.91325588665572       -0.00001056977267       -0.00002053769861
C            2.51040877849027       -0.00000734974386       -0.00001937847756
C            1.81119056655078        1.16570871909621       -0.30905234129077
C            0.43205302866080        1.16450606949540       -0.30426714298332
C           -0.27219335902960        0.00000088969027       -0.00001158320073
C           -1.73573778353629        0.00000640241127       -0.00000383853662
N           -2.35824404561833        1.15030974796255       -0.24190494345268
C           -3.68920475882304        1.10581600969283       -0.22979438434801
C           -4.42099411222626        2.34615483736310       -0.48528786553127
C           -3.73186795638686        3.51702482576435       -0.79994871713999
C           -4.42672405204246        4.68638452957344       -1.04180943451581
C           -5.81159060020756        4.69994810695631       -0.97049456288871
C           -6.50267079386779        3.53924346154418       -0.65688644221825
C           -5.81358833237772        2.36647201006500       -0.41490269611757
N           -4.39270349601561        0.00001547223521        0.00002072659793
C           -3.68920823519875       -1.10578933307851        0.22982562559786
C           -4.42100059368202       -2.34612586049020        0.48532128077329
C           -3.73187559478072       -3.51700163460184        0.79996344669780
C           -4.42673397102344       -4.68635944751322        1.04182706066839
C           -5.81160193385623       -4.69991438120638        0.97053728797377
C           -6.50268113286037       -3.53920351192546        0.65694945146683
C           -5.81359597161424       -2.36643532407903        0.41495728145461
N           -2.35824778344407       -1.15029188744944        0.24191143957255
C            0.43204781735057       -1.16450870863433        0.30423969141814
C            1.81118540465792       -1.16571979618528        0.30901566914323
H            5.15180480526817       -3.57329664174270       -2.65498998795334
H            3.34114719052355       -2.21651947361236       -1.67557839143439
H            8.13034876732829       -1.11128471031297       -0.80791648610036
H            8.13035283882807        1.11123134756369        0.80789735204620
H            5.15181788454291        3.57326267938645        2.65495978950361
H            3.34115527624164        2.21650096967512        1.67553622995814
H            2.35397451686677        2.06178664968060       -0.56868725464465
H           -0.12077068563833        2.05866375011652       -0.54444960291021
H           -2.65471513349426        3.48849282990423       -0.85155611128428
H           -3.88922518773944        5.59063628841934       -1.28603934901159
H           -6.35259776532787        5.61527589151556       -1.15949123224673
H           -7.58105217441529        3.55059011190513       -0.60046033348298
H           -6.33464992211659        1.45466561740736       -0.16807955553249
H           -2.65472249365998       -3.48847287274047        0.85156559720289
H           -3.88923696771879       -5.59061157179253        1.28605943245895
H           -6.35261095078138       -5.61524047784303        1.15953623609835
H           -7.58106261906647       -3.55054759871060        0.60052627234998
H           -6.33465604372317       -1.45462694739548        0.16813830686615
H           -0.12077980073280       -2.05866267004880        0.54442696959230
H            2.35396560231770       -2.06180206729958        0.56864354707282

          :  Hamiltonian                  GFN2-xTB          :
         :: gradient norm              0.000033072202 Eh/a0 ::
         :: HOMO-LUMO gap              2.226269275279 eV    ::
         :: SCC energy              -102.524852437117 Eh    ::
         :: -> dispersion             -0.080843855736 Eh    ::
         :: -> Gsolv                  -0.051772810889 Eh    ::
         :: repulsion energy           1.696663526571 Eh    ::

    * Orbital Energies and Occupations

         #    Occupation            Energy/Eh            Energy/eV
      -------------------------------------------------------------
         1        2.0000           -0.8404761             -22.8705
       ...           ...                  ...                  ...
        81        2.0000           -0.4313895             -11.7387
        82        2.0000           -0.4186531             -11.3921
        83        2.0000           -0.4186067             -11.3909
        84        2.0000           -0.4169304             -11.3453
        85        2.0000           -0.4156880             -11.3114
        86        2.0000           -0.4151566             -11.2970
        87        2.0000           -0.4142114             -11.2713
        88        2.0000           -0.4137370             -11.2584
        89        2.0000           -0.4128681             -11.2347
        90        2.0000           -0.3999169             -10.8823
        91        2.0000           -0.3851495             -10.4805
        92        2.0000           -0.3841811             -10.4541
        93        2.0000           -0.3820464             -10.3960 (HOMO)
        94                         -0.3002325              -8.1697 (LUMO)
        95                         -0.2966121              -8.0712
        96                         -0.2731393              -7.4325
        97                         -0.2573889              -7.0039
        98                         -0.2525493              -6.8722
        99                         -0.2487341              -6.7684
       100                         -0.2357727              -6.4157
       101                         -0.2357684              -6.4156
       102                         -0.2287053              -6.2234
       103                         -0.2154439              -5.8625
       104                         -0.2097973              -5.7089
       ...                                ...                  ...
       186                          0.7142491              19.4357
      -------------------------------------------------------------
                  HL-Gap            0.0818139 Eh            2.2263 eV

     #   Z          covCN         q      C6AA      α(0)
     1  35 Br       1.060    -0.200   190.610    22.261
     2   6 C        2.918     0.076    26.303     8.410
     3   6 C        2.990    -0.035    28.859     8.812
     4   6 C        2.912    -0.046    29.133     8.851
     5   6 C        3.075     0.046    26.884     8.501
     6   6 C        3.072    -0.010    28.201     8.707
     7   6 C        2.981    -0.035    28.866     8.813
     8   6 C        3.072    -0.010    28.201     8.707
     9   6 C        2.981    -0.035    28.866     8.813
    10   6 C        2.918     0.076    26.303     8.410
    11  35 Br       1.060    -0.200   190.610    22.261
    12   6 C        2.990    -0.035    28.859     8.812
    13   6 C        2.912    -0.046    29.133     8.851
    14   6 C        3.075     0.046    26.884     8.501
    15   7 N        2.802    -0.021    21.648     6.910
    16   6 C        2.913     0.067    26.501     8.441
    17   6 C        2.920    -0.040    28.991     8.830
    18   6 C        2.923    -0.023    28.584     8.768
    19   6 C        2.983    -0.009    28.246     8.718
    20   6 C        2.980     0.214    23.481     7.949
    21   7 N        1.844    -0.320    29.154     8.002
    22   6 C        2.979     0.216    23.447     7.943
    23   6 C        2.983    -0.010    28.250     8.719
    24   6 C        2.923    -0.026    28.648     8.777
    25   6 C        2.918    -0.027    28.676     8.781
    26   6 C        2.920    -0.022    28.545     8.761
    27   6 C        2.918    -0.027    28.672     8.781
    28   6 C        2.923    -0.025    28.640     8.776
    29   7 N        1.844    -0.320    29.140     8.000
    30   6 C        2.979     0.216    23.447     7.943
    31   6 C        2.983    -0.010    28.250     8.719
    32   6 C        2.923    -0.026    28.648     8.777
    33   6 C        2.918    -0.027    28.676     8.781
    34   6 C        2.920    -0.022    28.545     8.761
    35   6 C        2.918    -0.027    28.672     8.781
    36   6 C        2.923    -0.025    28.640     8.776
    37   7 N        1.844    -0.320    29.154     8.002
    38   6 C        2.923    -0.023    28.584     8.768
    39   6 C        2.920    -0.040    28.991     8.830
    40   1 H        0.926     0.060     2.204     2.321
    41   1 H        0.926     0.055     2.263     2.352
    42   1 H        0.926     0.059     2.213     2.326
    43   1 H        0.926     0.059     2.213     2.326
    44   1 H        0.926     0.060     2.204     2.321
    45   1 H        0.926     0.055     2.263     2.352
    46   1 H        0.926     0.059     2.207     2.323
    47   1 H        0.926     0.062     2.173     2.305
    48   1 H        0.926     0.051     2.307     2.375
    49   1 H        0.926     0.048     2.346     2.395
    50   1 H        0.926     0.050     2.319     2.381
    51   1 H        0.926     0.048     2.348     2.396
    52   1 H        0.926     0.051     2.309     2.376
    53   1 H        0.926     0.051     2.307     2.375
    54   1 H        0.926     0.048     2.346     2.395
    55   1 H        0.926     0.050     2.319     2.381
    56   1 H        0.926     0.048     2.348     2.396
    57   1 H        0.926     0.051     2.309     2.376
    58   1 H        0.926     0.062     2.173     2.305
    59   1 H        0.926     0.059     2.207     2.323

molecular dipole:
                 x           y           z       tot (Debye)
 q only:       -2.531       0.000       0.000
   full:       -3.075       0.000       0.000       7.815

 projected vibrational frequencies (cm⁻¹)
eigval :       -0.00    -0.00    -0.00     0.00     0.00     0.00
eigval :        9.36    14.07    19.09    40.35    42.37    44.22
eigval :       47.40    52.50    58.85    67.87    77.40    87.19
eigval :       90.50    93.99   132.60   135.65   152.41   172.52
eigval :      180.48   188.87   206.92   207.16   235.12   244.29
eigval :      261.65   272.01   293.20   309.30   312.16   334.33
eigval :      364.88   365.69   373.08   375.04   390.40   402.92
eigval :      405.45   421.40   427.94   443.56   453.46   484.99
eigval :      488.66   535.71   553.24   556.16   563.10   586.95
eigval :      587.39   599.77   608.50   613.50   624.19   626.07
eigval :      629.39   643.42   659.85   664.94   670.15   675.44
eigval :      704.65   706.81   722.80   751.54   776.30   795.91
eigval :      803.06   810.00   811.34   834.05   846.82   847.39
eigval :      866.08   869.67   875.47   877.94   878.20   893.80
eigval :      899.68   902.17   910.88   912.20   928.75   930.76
eigval :      932.54   933.64   934.29   934.48   935.98   974.68
eigval :      989.27  1013.04  1015.18  1047.85  1073.61  1074.18
eigval :     1074.46  1076.82  1087.39  1106.82  1110.43  1123.46
eigval :     1127.27  1153.09  1162.18  1165.75  1176.10  1176.58
eigval :     1177.93  1188.32  1201.64  1203.92  1205.29  1217.15
eigval :     1234.41  1252.97  1254.26  1267.11  1268.59  1294.43
eigval :     1323.56  1326.56  1328.34  1345.99  1350.48  1353.29
eigval :     1367.33  1367.95  1377.39  1399.66  1407.72  1415.90
eigval :     1428.66  1430.12  1452.24  1462.96  1465.02  1472.18
eigval :     1489.24  1505.15  1509.91  1555.55  1566.15  1574.61
eigval :     1580.91  1581.57  1582.44  1587.49  1592.38  1593.11
eigval :     1599.66  3078.60  3078.66  3083.09  3083.21  3092.59
eigval :     3092.78  3094.70  3095.69  3097.59  3097.80  3104.43
eigval :     3104.91  3105.42  3105.56  3106.73  3107.43  3107.97
eigval :     3109.07  3111.76  3112.66

   temp. (K)  partition function   enthalpy   heat capacity  entropy
                                   cal/mol     cal/K/mol   cal/K/mol   J/K/mol
 298.15  VIB  0.582E+15            18387.791    112.235    116.549
         ROT  0.642E+08              888.752      2.981     38.708
         INT  0.374E+23            19276.543    115.216    155.257
         TR   0.154E+29             1481.254      4.968     45.195
         TOT                       20757.7971   120.1844   200.4523   838.6925

       T/K    H(0)-H(T)+PV         H(T)/Eh          T*S/Eh         G(T)/Eh
   ------------------------------------------------------------------------
    298.15    0.330797E-01    0.461067E+00    0.952414E-01    0.365825E+00
   ------------------------------------------------------------------------

         :::::::::::::::::::::::::::::::::::::::::::::::::::::
         ::                  THERMODYNAMIC                  ::
         :::::::::::::::::::::::::::::::::::::::::::::::::::::
         :: total free energy        -100.462363687063 Eh   ::
         ::.................................................::
         :: total energy             -100.828188910026 Eh   ::
         :: zero point energy           0.427986932893 Eh   ::
         :: G(RRHO) w/o ZPVE           -0.062161709931 Eh   ::
         :: G(RRHO) contrib.            0.365825222962 Eh   ::
         :::::::::::::::::::::::::::::::::::::::::::::::::::::

           -------------------------------------------------
          | TOTAL ENERGY             -100.828188910026 Eh   |
          | TOTAL ENTHALPY           -100.367122321822 Eh   |
          | TOTAL FREE ENERGY        -100.462363687063 Eh   |
          | GRADIENT NORM               0.000033083366 Eh/α |
          | HOMO-LUMO GAP               2.226268879735 eV   |
           -------------------------------------------------

 * finished run on 2025/08/29 at 12:50:52.392
