   * xtb version 6.7.1 (edcfbbe) compiled by 'albert@albert-system' on 2024-07-22

   ID    Z sym.   atoms
    1    6 C      1-11, 13-45, 47-53, 55, 56
    2    7 N      12, 46, 54
    3    1 H      57-89

          program call               : xtb data2507/gas/SFI23pPM/SFI23pPM_gas_S0_crest.xyz --gfn 2 --ohess vtight --parallel 40 --molden --ceasefiles --namespace data2507/gas/SFI23pPM/SFI23pPM_gas_S0_finalOpt
          :  Hamiltonian                  GFN2-xTB          :
 * total energy  :  -139.1591159 Eh     change       -0.6877229E-08 Eh
 * total energy  :  -139.1591168 Eh     change       -0.8127965E-06 Eh
 * total energy  :  -139.1591178 Eh     change       -0.1048855E-05 Eh
 * total energy  :  -139.1591197 Eh     change       -0.1904791E-05 Eh
 * total energy  :  -139.1591221 Eh     change       -0.2355445E-05 Eh
 * total energy  :  -139.1591238 Eh     change       -0.1697842E-05 Eh
 * total energy  :  -139.1591249 Eh     change       -0.1143626E-05 Eh
 * total energy  :  -139.1591260 Eh     change       -0.1125829E-05 Eh
 * total energy  :  -139.1591276 Eh     change       -0.1615958E-05 Eh
 * total energy  :  -139.1591297 Eh     change       -0.2038811E-05 Eh
 * total energy  :  -139.1591339 Eh     change       -0.7353006E-06 Eh
 * total energy  :  -139.1591347 Eh     change       -0.8659670E-06 Eh
 * total energy  :  -139.1591356 Eh     change       -0.9115659E-06 Eh
 * total energy  :  -139.1591364 Eh     change       -0.7516917E-06 Eh
 * total energy  :  -139.1591370 Eh     change       -0.5726563E-06 Eh
 * total energy  :  -139.1591374 Eh     change       -0.4439515E-06 Eh
 * total energy  :  -139.1591379 Eh     change       -0.4785958E-06 Eh
 * total energy  :  -139.1591385 Eh     change       -0.6269840E-06 Eh
 * total energy  :  -139.1591385 Eh     change       -0.4156163E-08 Eh
   *** GEOMETRY OPTIMIZATION CONVERGED AFTER 22 ITERATIONS ***

 final structure:
================
89
 xtb: 6.7.1 (edcfbbe)
C            9.98426216601208       -2.32978436784758       -1.30475263103268
C            9.80061314420009       -0.96560772779255       -1.46413324810540
C            8.59447504485491       -0.38496961455243       -1.12399174600769
C            7.55052708567697       -1.16354214527636       -0.62746235358381
C            6.27867089906073       -0.51488123280678       -0.28251045738316
C            5.05868460198415       -1.18987898081557       -0.30679391656909
C            3.92023350230410       -0.46280736873051        0.03994006347611
C            2.57833547088788       -1.05453292799965        0.07101406545574
C            1.60419513017435       -0.47944683324690        0.88722960389378
C            0.33952728746062       -1.02051226881674        0.96777126110302
C            0.01335310063172       -2.14731397483968        0.21450888366659
N           -1.26355538422153       -2.71075888564876        0.30174779573427
C           -1.54312278569135       -4.04746348860745        0.51709235731313
C           -0.67718447294381       -5.11413230373134        0.70850762661039
C           -1.22859992825965       -6.36086441398024        0.93529312586799
C           -2.60792409544966       -6.54873229190399        0.98215483804731
C           -3.47420010472344       -5.48610150318254        0.82066864550135
C           -2.94345451896324       -4.22368092217350        0.59155304742520
C           -3.53179038026780       -2.92576453539747        0.41087362585793
C           -4.84881621744383       -2.48392554517262        0.38400348976734
C           -5.06203874268416       -1.13525635031502        0.17261564173421
C           -3.98172651859995       -0.25208729553341       -0.03600738985804
C           -2.67182653043601       -0.66860584299215       -0.01537051244800
C           -2.45684635399156       -2.01987764475279        0.23661008054016
C           -4.48406304975075        1.15282125641809       -0.26490077927444
C           -3.89538273140335        2.15437232068095        0.69802389390833
C           -3.95618330439696        2.15406857259541        2.07421990073985
C           -3.32477478685477        3.18068709006127        2.76382834834914
C           -2.64742469445992        4.18164746769406        2.08371919740603
C           -2.58433933392125        4.18481923796976        0.69937709419085
C           -3.21292028673165        3.16460311105875        0.00475983280061
C           -3.32217873719877        2.89942981300376       -1.42123857146748
C           -2.83925390987828        3.59119816420565       -2.51975033167401
C           -3.10873228095205        3.09657542519216       -3.78583044454583
C           -3.84492131365527        1.93351247566280       -3.95473954193683
C           -4.33109533435064        1.23400566427281       -2.85828622909493
C           -4.06564087055012        1.72380705620814       -1.59858265822195
C           -5.97712663324280        0.97545524496497       -0.13672680215528
C           -6.96205466498258        1.93234778048648       -0.23960756859446
C           -8.28524885838758        1.53739685171798       -0.09247745182308
C           -8.60646476539786        0.21050277043708        0.15015846042922
C           -7.61740308375941       -0.75442108140039        0.25342812025771
C           -6.29493283891204       -0.36798063601532        0.10919696151844
C            0.97288909763658       -2.71035998756681       -0.62413318635655
C            2.24202548288221       -2.17296219520457       -0.68911631020107
N            4.00943372845219        0.81866403217679        0.38884652972064
C            5.20905979435619        1.38746739194371        0.37369127312901
C            5.29184048295361        2.80144247115373        0.75176768735792
C            6.53329549119747        3.41130190497099        0.91836299545400
C            6.60857122597011        4.74272879783137        1.27925934247861
C            5.44959385811923        5.47707814165181        1.47577879919961
C            4.21193601270762        4.87561457311196        1.31004104691555
C            4.12999764514949        3.54429880041221        0.95030336384119
N            6.33993717898057        0.77303794480723        0.04585215204595
C            7.74595593100381       -2.53261951771529       -0.46263510871291
C            8.95699689015463       -3.10880530401910       -0.79851045823960
H           10.92735857920380       -2.78490135809913       -1.56935327462940
H           10.60177744878308       -0.35481602154387       -1.85379063313531
H            8.43538958573285        0.67588833489907       -1.24041814403321
H            5.00013642008768       -2.22955279770424       -0.58068810040563
H            1.86878090084476        0.38951554713186        1.46906480978831
H           -0.39791528100270       -0.58816790995076        1.62733970998721
H            0.39346417544515       -4.97700476401520        0.69534618288863
H           -0.57480897970967       -7.20764114992360        1.08363096130266
H           -2.99985238827813       -7.53934135654381        1.15831126000340
H           -4.54294244377893       -5.62789600314551        0.87561189801602
H           -5.66834854847609       -3.17199752372728        0.52260192426802
H           -1.85924137976717        0.01907796218428       -0.19452080725024
H           -4.48382802170948        1.37338474994595        2.60297286646107
H           -3.36144901829695        3.19976469699339        3.84324164123152
H           -2.16304167957364        4.96968901098839        2.64202537450165
H           -2.05574584619570        4.96654804349846        0.17414565891070
H           -2.26597185221426        4.49774873157617       -2.39376348390219
H           -2.74137669912637        3.62412950327247       -4.65420097763837
H           -4.04339262049423        1.56775113735379       -4.95153068618272
H           -4.90559165920931        0.32831001818930       -2.98854562368738
H           -6.71005375673079        2.96569229019303       -0.42967300899369
H           -9.07313421944103        2.27231674320703       -0.16825664206023
H           -9.64295026878006       -0.07398065643400        0.26056362322439
H           -7.87343728634006       -1.78632864309139        0.44304257840690
H            0.71013727817983       -3.55987108824382       -1.23667703286691
H            2.96411874426781       -2.61201735067117       -1.36121055317809
H            7.42502505850591        2.82367449513289        0.76545152794157
H            7.57278023644433        5.21230305470625        1.40981118225211
H            5.51113991436724        6.51811071219952        1.75825939425858
H            3.30911379193387        5.44922914799836        1.46234582985226
H            3.17486326830838        3.06159911511479        0.81384424755980
H            6.96097982875619       -3.14791826619758       -0.04791372198368
H            9.10146684701277       -4.17077367184501       -0.66229121946389

          :  Hamiltonian                  GFN2-xTB          :
         :: gradient norm              0.000051543912 Eh/a0 ::
         :: HOMO-LUMO gap              2.146978144125 eV    ::
         :: SCC energy              -141.808353896739 Eh    ::
         :: -> dispersion             -0.127423925121 Eh    ::
         :: repulsion energy           2.649215372806 Eh    ::

    * Orbital Energies and Occupations

         #    Occupation            Energy/Eh            Energy/eV
      -------------------------------------------------------------
         1        2.0000           -0.6782991             -18.4575
       ...           ...                  ...                  ...
       118        2.0000           -0.4079251             -11.1002
       119        2.0000           -0.4043874             -11.0039
       120        2.0000           -0.4042323             -10.9997
       121        2.0000           -0.4036533             -10.9840
       122        2.0000           -0.3963942             -10.7864
       123        2.0000           -0.3934344             -10.7059
       124        2.0000           -0.3932166             -10.7000
       125        2.0000           -0.3930309             -10.6949
       126        2.0000           -0.3898278             -10.6078
       127        2.0000           -0.3798037             -10.3350
       128        2.0000           -0.3736448             -10.1674
       129        2.0000           -0.3593601              -9.7787
       130        2.0000           -0.3575166              -9.7285 (HOMO)
       131                         -0.2786166              -7.5815 (LUMO)
       132                         -0.2694234              -7.3314
       133                         -0.2500687              -6.8047
       134                         -0.2464227              -6.7055
       135                         -0.2463944              -6.7047
       136                         -0.2381779              -6.4812
       137                         -0.2347836              -6.3888
       138                         -0.2279032              -6.2016
       139                         -0.2234056              -6.0792
       140                         -0.2219086              -6.0384
       141                         -0.2210142              -6.0141
       ...                                ...                  ...
       257                          0.7488423              20.3770
      -------------------------------------------------------------
                  HL-Gap            0.0789000 Eh            2.1470 eV

     #   Z          covCN         q      C6AA      α(0)
     1   6 C        2.920    -0.027    28.665     8.780
     2   6 C        2.918    -0.027    28.686     8.783
     3   6 C        2.926    -0.024    28.603     8.771
     4   6 C        2.980     0.005    27.915     8.667
     5   6 C        2.969     0.110    25.568     8.294
     6   6 C        2.912    -0.067    29.657     8.930
     7   6 C        2.968     0.110    25.579     8.296
     8   6 C        2.980     0.001    28.005     8.681
     9   6 C        2.926    -0.024    28.601     8.770
    10   6 C        2.920    -0.042    29.035     8.836
    11   6 C        2.913     0.067    26.506     8.442
    12   7 N        2.802    -0.040    22.007     6.967
    13   6 C        3.073     0.046    26.891     8.503
    14   6 C        2.910    -0.050    29.252     8.869
    15   6 C        2.924    -0.033    28.833     8.806
    16   6 C        2.920    -0.040    29.000     8.831
    17   6 C        2.913    -0.033    28.813     8.802
    18   6 C        3.068    -0.016    28.331     8.728
    19   6 C        3.069    -0.019    28.418     8.741
    20   6 C        2.909    -0.037    28.930     8.820
    21   6 C        3.035    -0.009    28.204     8.711
    22   6 C        3.061     0.004    27.863     8.656
    23   6 C        2.906    -0.054    29.350     8.883
    24   6 C        3.079     0.045    26.903     8.504
    25   6 C        3.978     0.009    20.345     6.408
    26   6 C        3.057     0.006    27.830     8.651
    27   6 C        2.914    -0.033    28.822     8.803
    28   6 C        2.923    -0.032    28.795     8.800
    29   6 C        2.921    -0.033    28.811     8.802
    30   6 C        2.915    -0.034    28.839     8.806
    31   6 C        3.037     0.001    27.967     8.674
    32   6 C        3.036     0.001    27.972     8.675
    33   6 C        2.915    -0.034    28.840     8.806
    34   6 C        2.921    -0.033    28.813     8.802
    35   6 C        2.923    -0.032    28.789     8.799
    36   6 C        2.914    -0.033    28.817     8.803
    37   6 C        3.057     0.006    27.823     8.650
    38   6 C        3.055     0.005    27.848     8.654
    39   6 C        2.914    -0.033    28.821     8.803
    40   6 C        2.923    -0.033    28.817     8.803
    41   6 C        2.921    -0.033    28.816     8.803
    42   6 C        2.915    -0.035    28.873     8.811
    43   6 C        3.035     0.002    27.946     8.671
    44   6 C        2.921    -0.043    29.079     8.843
    45   6 C        2.922    -0.031    28.773     8.797
    46   7 N        1.850    -0.272    27.904     7.829
    47   6 C        2.946     0.182    24.114     8.054
    48   6 C        2.985     0.002    27.981     8.677
    49   6 C        2.924    -0.027    28.665     8.780
    50   6 C        2.918    -0.029    28.714     8.787
    51   6 C        2.920    -0.026    28.657     8.779
    52   6 C        2.918    -0.029    28.713     8.787
    53   6 C        2.924    -0.027    28.665     8.780
    54   7 N        1.850    -0.271    27.875     7.825
    55   6 C        2.923    -0.031    28.773     8.797
    56   6 C        2.919    -0.029    28.720     8.788
    57   1 H        0.926     0.034     2.531     2.488
    58   1 H        0.926     0.035     2.513     2.479
    59   1 H        0.926     0.053     2.283     2.363
    60   1 H        0.926     0.032     2.557     2.501
    61   1 H        0.926     0.060     2.201     2.320
    62   1 H        0.926     0.045     2.387     2.416
    63   1 H        0.926     0.028     2.622     2.532
    64   1 H        0.926     0.030     2.593     2.518
    65   1 H        0.926     0.029     2.601     2.522
    66   1 H        0.926     0.032     2.560     2.502
    67   1 H        0.926     0.035     2.521     2.483
    68   1 H        0.926     0.029     2.600     2.521
    69   1 H        0.926     0.028     2.618     2.530
    70   1 H        0.926     0.030     2.583     2.513
    71   1 H        0.926     0.030     2.584     2.514
    72   1 H        0.926     0.031     2.570     2.507
    73   1 H        0.926     0.031     2.568     2.506
    74   1 H        0.926     0.030     2.585     2.514
    75   1 H        0.926     0.030     2.583     2.513
    76   1 H        0.926     0.028     2.613     2.528
    77   1 H        0.926     0.027     2.633     2.538
    78   1 H        0.926     0.029     2.595     2.519
    79   1 H        0.926     0.029     2.597     2.520
    80   1 H        0.926     0.030     2.584     2.514
    81   1 H        0.926     0.043     2.406     2.426
    82   1 H        0.926     0.038     2.475     2.460
    83   1 H        0.926     0.054     2.274     2.358
    84   1 H        0.926     0.034     2.535     2.490
    85   1 H        0.926     0.033     2.542     2.493
    86   1 H        0.926     0.034     2.537     2.491
    87   1 H        0.926     0.053     2.283     2.363
    88   1 H        0.926     0.032     2.561     2.503
    89   1 H        0.926     0.033     2.546     2.495

molecular dipole:
                 x           y           z       tot (Debye)
 q only:        0.459      -0.071      -0.065
   full:        0.502      -0.460      -0.188       1.797

 projected vibrational frequencies (cm⁻¹)
eigval :       -0.00     0.00     0.00     0.00     0.00     0.00
eigval :        6.82     8.93     9.95    23.93    25.63    27.07
eigval :       31.84    34.97    44.49    47.14    53.43    58.47
eigval :       70.71    78.13    80.85    92.74   100.44   112.01
eigval :      116.28   120.93   134.57   143.75   171.79   177.07
eigval :      189.85   198.62   212.88   213.56   224.76   229.64
eigval :      238.46   260.95   268.33   282.56   294.77   302.75
eigval :      316.69   352.91   354.89   355.28   366.76   368.01
eigval :      381.10   386.33   387.13   400.54   407.85   414.01
eigval :      414.90   418.20   430.28   438.54   446.68   457.61
eigval :      474.73   478.94   488.32   501.71   505.59   519.69
eigval :      537.82   540.69   548.18   564.06   583.35   587.22
eigval :      587.37   591.11   594.56   601.50   603.40   607.86
eigval :      611.71   618.51   629.35   631.57   648.72   653.85
eigval :      665.02   673.43   674.82   682.41   691.55   700.25
eigval :      703.87   707.42   713.82   735.01   737.79   738.35
eigval :      754.51   764.48   768.62   774.89   776.83   779.76
eigval :      786.17   816.38   820.85   832.62   840.20   845.50
eigval :      846.24   865.41   873.66   875.43   877.23   878.11
eigval :      878.82   879.68   881.77   883.87   899.39   902.41
eigval :      904.88   910.35   910.87   911.17   911.64   919.30
eigval :      926.89   926.98   927.12   927.83   928.98   931.47
eigval :      932.16   933.20   933.59   934.78   935.06   971.46
eigval :      989.35  1007.78  1009.05  1012.29  1018.24  1026.53
eigval :     1072.33  1073.79  1075.92  1076.24  1078.05  1079.34
eigval :     1079.70  1089.14  1104.78  1111.51  1123.70  1126.29
eigval :     1135.00  1137.74  1143.62  1153.48  1170.71  1175.22
eigval :     1178.26  1178.50  1179.54  1180.95  1181.50  1181.60
eigval :     1189.27  1195.51  1199.56  1203.35  1206.94  1210.21
eigval :     1222.14  1223.70  1233.60  1244.17  1251.26  1260.72
eigval :     1261.98  1262.55  1267.65  1270.52  1275.94  1279.84
eigval :     1285.81  1315.23  1321.77  1323.56  1327.40  1328.24
eigval :     1343.09  1349.13  1359.12  1363.25  1366.46  1366.82
eigval :     1384.09  1400.27  1411.08  1428.47  1429.22  1429.90
eigval :     1432.07  1432.31  1439.15  1442.17  1462.54  1462.87
eigval :     1471.47  1472.40  1478.40  1479.99  1495.21  1505.66
eigval :     1518.61  1532.93  1561.69  1568.91  1583.59  1584.82
eigval :     1585.48  1586.08  1592.53  1593.26  1596.38  1596.48
eigval :     1597.57  1598.09  1603.12  1604.66  1604.68  1612.62
eigval :     3071.45  3072.07  3072.09  3072.70  3072.97  3076.35
eigval :     3076.37  3077.24  3077.34  3077.47  3077.53  3082.18
eigval :     3083.22  3083.32  3083.80  3084.38  3085.32  3087.36
eigval :     3088.42  3089.87  3090.87  3091.15  3091.29  3091.95
eigval :     3092.35  3093.47  3095.09  3097.08  3103.53  3104.83
eigval :     3105.41  3107.84  3110.31

   temp. (K)  partition function   enthalpy   heat capacity  entropy
                                   cal/mol     cal/K/mol   cal/K/mol   J/K/mol
 298.15  VIB  0.292E+21            25191.646    159.522    157.752
         ROT  0.144E+09              888.752      2.981     40.309
         INT  0.419E+29            26080.399    162.503    198.061
         TR   0.184E+29             1481.254      4.968     45.548
         TOT                       27561.6527   167.4709   243.6083  1019.2572

       T/K    H(0)-H(T)+PV         H(T)/Eh          T*S/Eh         G(T)/Eh
   ------------------------------------------------------------------------
    298.15    0.439223E-01    0.724195E+00    0.115746E+00    0.608449E+00
   ------------------------------------------------------------------------

         :::::::::::::::::::::::::::::::::::::::::::::::::::::
         ::                  THERMODYNAMIC                  ::
         :::::::::::::::::::::::::::::::::::::::::::::::::::::
         :: total free energy        -138.550689841506 Eh   ::
         ::.................................................::
         :: total energy             -139.159138523934 Eh   ::
         :: zero point energy           0.680272565634 Eh   ::
         :: G(RRHO) w/o ZPVE           -0.071823883206 Eh   ::
         :: G(RRHO) contrib.            0.608448682428 Eh   ::
         :::::::::::::::::::::::::::::::::::::::::::::::::::::

           -------------------------------------------------
          | TOTAL ENERGY             -139.159138523934 Eh   |
          | TOTAL ENTHALPY           -138.434943668893 Eh   |
          | TOTAL FREE ENERGY        -138.550689841506 Eh   |
          | GRADIENT NORM               0.000051540059 Eh/α |
          | HOMO-LUMO GAP               2.146978275775 eV   |
           -------------------------------------------------

 * finished run on 2025/09/09 at 08:39:48.813
