   * xtb version 6.7.1 (edcfbbe) compiled by 'albert@albert-system' on 2024-07-22

   ID    Z sym.   atoms
    1    6 C      1-11, 13-45, 47-53, 55, 56
    2    7 N      12, 46, 54
    3    1 H      57-89

          program call               : xtb data2507/gas/SFI23pPM/SFI23pPM.xyz --gfn 2 --ohess vtight --parallel 40 --molden --ceasefiles --namespace data2507/gas/SFI23pPM/SFI23pPM_gas_S0_preOpt
          :  Hamiltonian                  GFN2-xTB          :
 * total energy  :  -139.1409316 Eh     change       -0.6214805E-08 Eh
 * total energy  :  -139.1534158 Eh     change       -0.1248423E-01 Eh
 * total energy  :  -139.1566831 Eh     change       -0.3267359E-02 Eh
 * total energy  :  -139.1575913 Eh     change       -0.9081306E-03 Eh
 * total energy  :  -139.1580930 Eh     change       -0.5017481E-03 Eh
 * total energy  :  -139.1582953 Eh     change       -0.2023190E-03 Eh
 * total energy  :  -139.1584406 Eh     change       -0.1452877E-03 Eh
 * total energy  :  -139.1585391 Eh     change       -0.9844421E-04 Eh
 * total energy  :  -139.1585989 Eh     change       -0.5981684E-04 Eh
 * total energy  :  -139.1586353 Eh     change       -0.3643005E-04 Eh
 * total energy  :  -139.1587553 Eh     change       -0.7573455E-06 Eh
 * total energy  :  -139.1587561 Eh     change       -0.7510579E-06 Eh
 * total energy  :  -139.1587568 Eh     change       -0.7395060E-06 Eh
 * total energy  :  -139.1587575 Eh     change       -0.7143935E-06 Eh
 * total energy  :  -139.1587583 Eh     change       -0.7338446E-06 Eh
 * total energy  :  -139.1587589 Eh     change       -0.6602772E-06 Eh
 * total energy  :  -139.1587594 Eh     change       -0.5006400E-06 Eh
 * total energy  :  -139.1587598 Eh     change       -0.3690343E-06 Eh
 * total energy  :  -139.1587598 Eh     change       -0.2245201E-08 Eh
   *** GEOMETRY OPTIMIZATION CONVERGED AFTER 44 ITERATIONS ***

 final structure:
================
89
 xtb: 6.7.1 (edcfbbe)
C            7.91423238498064        3.44841674659950       -3.44328418888139
C            6.53401657091225        3.55045912625749       -3.38869009752508
C            5.80410761388450        2.70176426436857       -2.57733716534927
C            6.45103854474278        1.73931629504061       -1.80604202462135
C            5.70942316504733        0.81843151977930       -0.93473361796642
C            4.39220065715533        0.43819160877140       -1.19050447452726
C            3.80098226475807       -0.45300508777715       -0.29547126053111
C            2.42834661532266       -0.94566089714386       -0.45824481065368
C            2.08116033654767       -2.18031155536880        0.08942465164141
C            0.80601796684372       -2.68316280144398       -0.05415423403510
C           -0.15683791492052       -1.95595219766348       -0.75149368135068
N           -1.44816558848803       -2.46904050003219       -0.91409423382529
C           -1.76205394862978       -3.73496549289158       -1.37222800915968
C           -0.92421679914984       -4.75679033381764       -1.79442646337578
C           -1.50822730190661       -5.92774860945636       -2.23882753232385
C           -2.89206881823560       -6.08282410973686       -2.27463645208518
C           -3.73096423206325       -5.05972188423378       -1.88080862443765
C           -3.16738132250667       -3.87336151098715       -1.43019966607046
C           -3.72257023226945       -2.62748148719590       -0.97983280722768
C           -5.02846554266453       -2.18305989585598       -0.81360713892223
C           -5.20666538176110       -0.89954882505518       -0.33405188903607
C           -4.10173400879486       -0.08603046759392       -0.00562827126054
C           -2.80225923829520       -0.50708824959018       -0.15925944207345
C           -2.62373280744368       -1.78731743529107       -0.67384388351675
C           -4.56647457227429        1.25471235019378        0.50892777731988
C           -4.06550325631424        1.56873941136619        1.89769375669472
C           -4.26386059499002        0.85495930182560        3.05894297080880
C           -3.70445796632799        1.33756977047880        4.23452688308756
C           -2.96318331501351        2.50963504493357        4.23977494836026
C           -2.76134660513242        3.22961749053975        3.07311827913136
C           -3.31692492564600        2.75457800685614        1.89661659497291
C           -3.28458277285550        3.27761779528534        0.53972862132135
C           -2.68382648056994        4.40724791426762        0.00906024567249
C           -2.82398211073014        4.65840349327046       -1.34659870922705
C           -3.54945817980419        3.79998426402609       -2.15910219990859
C           -4.15389267699114        2.66534699840293       -1.63428687812553
C           -4.01682106620723        2.41320012702311       -0.28698179321333
C           -6.06718345252377        1.11698073878454        0.42859588532499
C           -7.02817368211032        2.04256947088439        0.76918146672360
C           -8.36397050463550        1.69568909928949        0.61484977666267
C           -8.72067422060720        0.44658362055704        0.12990906737876
C           -7.75560532989233       -0.48667687454046       -0.21314471186698
C           -6.42081805734522       -0.14801683611909       -0.06227153908792
C            0.17797998915534       -0.71402476948877       -1.28667739932905
C            1.45625939826637       -0.21576552019065       -1.13894119125198
N            4.47917061312684       -0.92284675963692        0.74876215108160
C            5.73143851924413       -0.51320193169484        0.91527584412196
C            6.46875646828399       -1.04049677180867        2.06744530099839
C            7.79426757102699       -0.66911081823394        2.28266314906076
C            8.48767522822604       -1.17023210483749        3.36730437994585
C            7.86738464562246       -2.04363971799152        4.24681332015575
C            6.54780270764922       -2.41371229052995        4.03989780749753
C            5.84941788911706       -1.91625355484450        2.95679128395485
N            6.36754557155028        0.33561275680859        0.11590472218893
C            7.84114856479481        1.65327499043526       -1.85646521215839
C            8.56624499392645        2.49910856222174       -2.67274281462581
H            8.48014556669840        4.11086050783405       -4.08161681316928
H            6.02408810261144        4.29715138366267       -3.97997206417154
H            4.73020388411621        2.80613488236117       -2.52759121160979
H            3.87037361638806        0.78123148797275       -2.06788779401050
H            2.83344153536350       -2.73348022726608        0.62951513581771
H            0.54008523719075       -3.63288265427191        0.38516121677411
H            0.14899217461049       -4.64065333189364       -1.78943426510153
H           -0.87699222839403       -6.73931071147531       -2.56943704168178
H           -3.30964536422873       -7.01464337317760       -2.62577777172276
H           -4.80360319153923       -5.17305792387830       -1.92515606991139
H           -5.86628824596976       -2.82099595034148       -1.04891929014384
H           -1.96993738257623        0.12244034653193        0.11708626064121
H           -4.84210879134049       -0.05762888467482        3.05367774278609
H           -3.84882114048877        0.79368057243828        5.15649344330234
H           -2.53787304472920        2.86575239496179        5.16689885075619
H           -2.18366064814425        4.14212172730927        3.08266111491283
H           -2.11806428521644        5.07905473002019        0.63760870001523
H           -2.36272361175368        5.53542652543033       -1.77738222530383
H           -3.64597376719153        4.01695252546784       -3.21292537206735
H           -4.71964380704375        1.99586570022135       -2.26607180012387
H           -6.74836404374123        3.01523439927607        1.14746103065574
H           -9.13365526604252        2.40707627995926        0.87584196735101
H           -9.76631645451016        0.19840273867987        0.01833735141328
H           -8.03940086478081       -1.45799015185004       -0.59040067671458
H           -0.56482478448507       -0.15065248090551       -1.83162818598484
H            1.69107287718378        0.75575758366995       -1.54728340144020
H            8.26049108305132        0.01483680229722        1.59098371231733
H            9.51550934361761       -0.88030292302850        3.53090950258176
H            8.41169415828943       -2.43434965971165        5.09436675134253
H            6.06415447383303       -3.09209033169052        4.72782616997663
H            4.82059477925343       -2.19040303044736        2.78371989719983
H            8.33360529443810        0.90906483369647       -1.25005290213973
H            9.64290842244756        2.42043773561702       -2.70961342909961

          :  Hamiltonian                  GFN2-xTB          :
         :: gradient norm              0.000036853315 Eh/a0 ::
         :: HOMO-LUMO gap              2.150478778847 eV    ::
         :: SCC energy              -141.807977511535 Eh    ::
         :: -> dispersion             -0.127165284909 Eh    ::
         :: repulsion energy           2.649217701557 Eh    ::

    * Orbital Energies and Occupations

         #    Occupation            Energy/Eh            Energy/eV
      -------------------------------------------------------------
         1        2.0000           -0.6782616             -18.4564
       ...           ...                  ...                  ...
       118        2.0000           -0.4081550             -11.1065
       119        2.0000           -0.4050231             -11.0212
       120        2.0000           -0.4047995             -11.0152
       121        2.0000           -0.4037692             -10.9871
       122        2.0000           -0.3967785             -10.7969
       123        2.0000           -0.3944126             -10.7325
       124        2.0000           -0.3938490             -10.7172
       125        2.0000           -0.3929364             -10.6923
       126        2.0000           -0.3899593             -10.6113
       127        2.0000           -0.3805592             -10.3555
       128        2.0000           -0.3738747             -10.1736
       129        2.0000           -0.3594458              -9.7810
       130        2.0000           -0.3575624              -9.7298 (HOMO)
       131                         -0.2785337              -7.5793 (LUMO)
       132                         -0.2698829              -7.3439
       133                         -0.2510477              -6.8314
       134                         -0.2467399              -6.7141
       135                         -0.2464357              -6.7059
       136                         -0.2387393              -6.4964
       137                         -0.2351014              -6.3974
       138                         -0.2280813              -6.2064
       139                         -0.2244221              -6.1068
       140                         -0.2225361              -6.0555
       141                         -0.2211536              -6.0179
       ...                                ...                  ...
       257                          0.7487745              20.3752
      -------------------------------------------------------------
                  HL-Gap            0.0790286 Eh            2.1505 eV

     #   Z          covCN         q      C6AA      α(0)
     1   6 C        2.920    -0.026    28.663     8.780
     2   6 C        2.919    -0.029    28.718     8.788
     3   6 C        2.923    -0.031    28.766     8.795
     4   6 C        2.980     0.005    27.913     8.666
     5   6 C        2.968     0.110    25.566     8.294
     6   6 C        2.912    -0.066    29.653     8.929
     7   6 C        2.968     0.110    25.575     8.295
     8   6 C        2.980     0.001    27.998     8.680
     9   6 C        2.926    -0.024    28.604     8.771
    10   6 C        2.920    -0.042    29.042     8.837
    11   6 C        2.913     0.067    26.505     8.442
    12   7 N        2.802    -0.040    22.011     6.968
    13   6 C        3.073     0.046    26.889     8.502
    14   6 C        2.910    -0.050    29.250     8.868
    15   6 C        2.924    -0.033    28.827     8.805
    16   6 C        2.920    -0.040    28.999     8.831
    17   6 C        2.913    -0.033    28.814     8.802
    18   6 C        3.068    -0.016    28.334     8.728
    19   6 C        3.069    -0.019    28.417     8.741
    20   6 C        2.909    -0.037    28.929     8.819
    21   6 C        3.035    -0.009    28.208     8.711
    22   6 C        3.061     0.004    27.870     8.657
    23   6 C        2.906    -0.054    29.353     8.884
    24   6 C        3.079     0.045    26.902     8.503
    25   6 C        3.978     0.010    20.344     6.408
    26   6 C        3.057     0.006    27.824     8.650
    27   6 C        2.914    -0.033    28.812     8.802
    28   6 C        2.923    -0.031    28.782     8.798
    29   6 C        2.921    -0.032    28.810     8.802
    30   6 C        2.915    -0.034    28.842     8.806
    31   6 C        3.036     0.001    27.980     8.676
    32   6 C        3.036     0.001    27.970     8.675
    33   6 C        2.915    -0.034    28.849     8.808
    34   6 C        2.921    -0.033    28.823     8.804
    35   6 C        2.923    -0.032    28.804     8.801
    36   6 C        2.914    -0.033    28.825     8.804
    37   6 C        3.057     0.006    27.826     8.651
    38   6 C        3.055     0.005    27.850     8.655
    39   6 C        2.914    -0.033    28.822     8.803
    40   6 C        2.923    -0.033    28.818     8.803
    41   6 C        2.921    -0.033    28.815     8.803
    42   6 C        2.915    -0.035    28.873     8.811
    43   6 C        3.035     0.002    27.945     8.671
    44   6 C        2.921    -0.043    29.062     8.840
    45   6 C        2.922    -0.030    28.757     8.794
    46   7 N        1.850    -0.271    27.897     7.828
    47   6 C        2.945     0.182    24.116     8.054
    48   6 C        2.985     0.002    27.983     8.677
    49   6 C        2.924    -0.026    28.664     8.780
    50   6 C        2.918    -0.029    28.713     8.787
    51   6 C        2.920    -0.026    28.654     8.778
    52   6 C        2.918    -0.029    28.714     8.787
    53   6 C        2.924    -0.027    28.667     8.780
    54   7 N        1.850    -0.270    27.866     7.824
    55   6 C        2.926    -0.024    28.596     8.770
    56   6 C        2.918    -0.027    28.686     8.783
    57   1 H        0.926     0.034     2.529     2.487
    58   1 H        0.926     0.033     2.544     2.494
    59   1 H        0.926     0.031     2.566     2.505
    60   1 H        0.926     0.032     2.553     2.498
    61   1 H        0.926     0.059     2.212     2.326
    62   1 H        0.926     0.045     2.378     2.411
    63   1 H        0.926     0.028     2.609     2.526
    64   1 H        0.926     0.030     2.586     2.515
    65   1 H        0.926     0.029     2.600     2.521
    66   1 H        0.926     0.032     2.562     2.503
    67   1 H        0.926     0.035     2.519     2.482
    68   1 H        0.926     0.028     2.620     2.531
    69   1 H        0.926     0.029     2.606     2.525
    70   1 H        0.926     0.031     2.575     2.509
    71   1 H        0.926     0.030     2.581     2.512
    72   1 H        0.926     0.031     2.575     2.509
    73   1 H        0.926     0.031     2.577     2.510
    74   1 H        0.926     0.029     2.594     2.519
    75   1 H        0.926     0.030     2.588     2.516
    76   1 H        0.926     0.028     2.614     2.529
    77   1 H        0.926     0.027     2.636     2.539
    78   1 H        0.926     0.029     2.595     2.519
    79   1 H        0.926     0.029     2.595     2.519
    80   1 H        0.926     0.030     2.582     2.513
    81   1 H        0.926     0.043     2.412     2.429
    82   1 H        0.926     0.038     2.481     2.463
    83   1 H        0.926     0.054     2.273     2.357
    84   1 H        0.926     0.034     2.534     2.489
    85   1 H        0.926     0.033     2.540     2.492
    86   1 H        0.926     0.034     2.535     2.490
    87   1 H        0.926     0.053     2.281     2.362
    88   1 H        0.926     0.052     2.291     2.367
    89   1 H        0.926     0.035     2.513     2.479

molecular dipole:
                 x           y           z       tot (Debye)
 q only:        0.449       0.017      -0.162
   full:        0.282       0.255      -0.478       1.552

 projected vibrational frequencies (cm⁻¹)
eigval :       -0.00    -0.00    -0.00    -0.00    -0.00     0.00
eigval :        6.29     8.64    10.92    23.33    24.56    26.77
eigval :       28.80    33.09    43.68    47.95    55.62    58.96
eigval :       73.71    78.12    80.13    90.97    97.74   113.36
eigval :      117.75   120.93   134.46   148.24   171.94   175.48
eigval :      182.63   203.34   213.61   213.91   223.80   229.52
eigval :      234.80   263.84   267.25   282.62   292.60   303.03
eigval :      317.83   352.77   355.55   360.02   365.98   367.68
eigval :      377.90   379.03   387.22   396.53   408.16   414.59
eigval :      416.06   426.35   431.32   434.11   445.63   452.43
eigval :      475.77   481.31   488.17   504.16   505.69   519.74
eigval :      537.84   540.77   548.06   564.16   583.31   585.45
eigval :      587.31   588.55   594.57   601.68   604.23   610.72
eigval :      616.97   618.56   625.87   631.34   648.53   653.44
eigval :      663.78   673.02   674.62   682.31   691.56   699.84
eigval :      703.81   707.33   713.87   735.01   737.42   737.80
eigval :      754.50   764.77   768.71   775.10   776.85   780.04
eigval :      786.23   815.38   822.74   836.66   837.77   845.48
eigval :      846.54   865.77   873.96   874.82   877.39   878.10
eigval :      878.73   878.88   880.54   883.75   899.28   903.12
eigval :      904.30   910.18   910.40   911.17   911.62   920.71
eigval :      924.90   926.96   927.15   927.87   928.54   931.07
eigval :      932.31   933.00   933.34   934.33   934.84   971.63
eigval :      989.31  1007.78  1009.08  1012.56  1017.99  1026.49
eigval :     1072.12  1073.80  1075.94  1076.16  1078.13  1079.28
eigval :     1079.58  1089.12  1104.75  1111.22  1123.69  1125.33
eigval :     1134.00  1137.79  1143.55  1153.50  1169.82  1175.27
eigval :     1178.33  1178.50  1179.58  1180.92  1181.44  1181.64
eigval :     1189.49  1195.21  1197.58  1203.15  1207.51  1210.40
eigval :     1222.22  1223.21  1233.57  1244.17  1250.73  1261.02
eigval :     1261.65  1263.29  1267.57  1270.15  1274.26  1279.16
eigval :     1285.94  1315.42  1321.93  1323.75  1327.37  1328.53
eigval :     1343.20  1349.13  1359.08  1362.81  1365.78  1366.80
eigval :     1385.16  1398.84  1411.60  1428.30  1429.17  1430.10
eigval :     1431.92  1432.31  1439.37  1442.42  1462.51  1462.94
eigval :     1471.19  1472.42  1478.44  1480.01  1495.18  1505.92
eigval :     1518.58  1532.89  1562.33  1568.95  1583.62  1584.84
eigval :     1585.40  1586.04  1592.57  1594.34  1596.33  1596.50
eigval :     1597.70  1598.06  1603.13  1604.56  1604.74  1612.74
eigval :     3071.54  3071.59  3072.14  3072.96  3073.15  3076.20
eigval :     3076.31  3077.50  3077.55  3077.60  3077.70  3082.88
eigval :     3082.94  3083.11  3083.90  3084.65  3085.10  3087.59
eigval :     3088.12  3089.57  3090.57  3091.18  3091.44  3092.05
eigval :     3092.33  3093.63  3095.04  3097.18  3104.15  3106.37
eigval :     3106.93  3107.76  3108.63

   temp. (K)  partition function   enthalpy   heat capacity  entropy
                                   cal/mol     cal/K/mol   cal/K/mol   J/K/mol
 298.15  VIB  0.354E+21            25201.985    159.512    157.874
         ROT  0.149E+09              888.752      2.981     40.377
         INT  0.527E+29            26090.738    162.493    198.251
         TR   0.184E+29             1481.254      4.968     45.548
         TOT                       27571.9917   167.4614   243.7987  1020.0539

       T/K    H(0)-H(T)+PV         H(T)/Eh          T*S/Eh         G(T)/Eh
   ------------------------------------------------------------------------
    298.15    0.439388E-01    0.724174E+00    0.115837E+00    0.608337E+00
   ------------------------------------------------------------------------

         :::::::::::::::::::::::::::::::::::::::::::::::::::::
         ::                  THERMODYNAMIC                  ::
         :::::::::::::::::::::::::::::::::::::::::::::::::::::
         :: total free energy        -138.550422461774 Eh   ::
         ::.................................................::
         :: total energy             -139.158759809979 Eh   ::
         :: zero point energy           0.680235230262 Eh   ::
         :: G(RRHO) w/o ZPVE           -0.071897882057 Eh   ::
         :: G(RRHO) contrib.            0.608337348205 Eh   ::
         :::::::::::::::::::::::::::::::::::::::::::::::::::::

           -------------------------------------------------
          | TOTAL ENERGY             -139.158759809979 Eh   |
          | TOTAL ENTHALPY           -138.434585814059 Eh   |
          | TOTAL FREE ENERGY        -138.550422461774 Eh   |
          | GRADIENT NORM               0.000036850214 Eh/α |
          | HOMO-LUMO GAP               2.150478768106 eV   |
           -------------------------------------------------

 * finished run on 2025/09/09 at 08:32:51.334
