   * xtb version 6.7.1 (edcfbbe) compiled by 'albert@albert-system' on 2024-07-22

   ID    Z sym.   atoms
    1    6 C      1-11, 13-45, 47-53, 55, 56
    2    7 N      12, 46, 54
    3    1 H      57-89

          program call               : xtb data2507/gas/SFI23pPM/SFI23pPM_gas_T1_crest.xyz --gfn 2 --spinpol --tblite --uhf 2 --ohess vtight --parallel 40 --molden --ceasefiles --namespace data2507/gas/SFI23pPM/SFI23pPM_gas_T1_finalOpt
 * total energy  :  -139.0839015 Eh     change        0.1353553E-07 Eh
 * total energy  :  -139.0839819 Eh     change       -0.8043213E-04 Eh
 * total energy  :  -139.0840171 Eh     change       -0.3524344E-04 Eh
 * total energy  :  -139.0840211 Eh     change       -0.3922358E-05 Eh
 * total energy  :  -139.0840240 Eh     change       -0.2930125E-05 Eh
 * total energy  :  -139.0840263 Eh     change       -0.2284965E-05 Eh
 * total energy  :  -139.0840285 Eh     change       -0.2219890E-05 Eh
 * total energy  :  -139.0840300 Eh     change       -0.1466645E-05 Eh
 * total energy  :  -139.0840309 Eh     change       -0.8937118E-06 Eh
 * total energy  :  -139.0840318 Eh     change       -0.9333732E-06 Eh
 * total energy  :  -139.0840371 Eh     change       -0.2076256E-05 Eh
 * total energy  :  -139.0840383 Eh     change       -0.1238631E-05 Eh
 * total energy  :  -139.0840395 Eh     change       -0.1248826E-05 Eh
 * total energy  :  -139.0840406 Eh     change       -0.1048846E-05 Eh
 * total energy  :  -139.0840416 Eh     change       -0.1041874E-05 Eh
 * total energy  :  -139.0840424 Eh     change       -0.7631667E-06 Eh
 * total energy  :  -139.0840437 Eh     change       -0.1273153E-05 Eh
 * total energy  :  -139.0840445 Eh     change       -0.7886432E-06 Eh
 * total energy  :  -139.0840445 Eh     change       -0.7141259E-07 Eh
   *** GEOMETRY OPTIMIZATION CONVERGED AFTER 22 ITERATIONS ***

 final structure:
================
89
 xtb: 6.7.1 (edcfbbe)
C            9.64537904734473       -1.99172937950206       -2.55978579490254
C            9.66767341034281       -0.85570968735093       -1.76427138626569
C            8.52110491236456       -0.42476362874938       -1.13451931413821
C            7.31041885503508       -1.12002011913431       -1.27959652901081
C            6.13351579233888       -0.62531918955853       -0.59724559266338
C            4.90414304312177       -1.26012691785908       -0.58779894883735
C            3.84586499679411       -0.67411342869303        0.12720254443505
C            2.52615428067572       -1.21466595291735        0.22915257186592
C            1.55795421004370       -0.52041774105444        0.98767666239570
C            0.27870700465869       -0.99215485702254        1.12211841293691
C           -0.10260867224352       -2.18294342171387        0.49566744790017
N           -1.41293901106659       -2.66423119796353        0.62436705853101
C           -1.77328502175486       -3.94383991177262        0.99448515468533
C           -0.97172547249035       -5.02065549588725        1.34655885254054
C           -1.59746401478594       -6.20176046916669        1.69951838080908
C           -2.98563718872182       -6.31279876003101        1.71310711818305
C           -3.78947180790397       -5.23569906348500        1.38857309286892
C           -3.18456697225652       -4.03987145501743        1.03100778887830
C           -3.69152478325885       -2.74481041961489        0.66673536050752
C           -4.97462981176561       -2.23653019113139        0.53100330022403
C           -5.09727542442194       -0.91144503190946        0.14706108398968
C           -3.95697970950059       -0.11977028034464       -0.11656619815689
C           -2.67825436523339       -0.60427072713849        0.00613348594522
C           -2.55481000698078       -1.92851291139220        0.42366017615905
C           -4.36558400136776        1.27550424787205       -0.52126174600068
C           -3.78061684967086        2.33692032278012        0.37994745615578
C           -3.92634234790327        2.47458755410192        1.74268920957981
C           -3.28136339291768        3.53085605735881        2.37237791074729
C           -2.50789547860935        4.42446608869694        1.64685223108004
C           -2.35926781999884        4.28818432212483        0.27578922820334
C           -3.00058339809312        3.23755022345660       -0.35932186707870
C           -3.03627083963184        2.83812638415539       -1.75754712475414
C           -2.44504456923424        3.39116250279340       -2.88134445970268
C           -2.66164779938651        2.78732505125509       -4.10965011689437
C           -3.45208841469936        1.65293486573886       -4.21655787013554
C           -4.04709089504672        1.09219498630138       -3.09419353045983
C           -3.83420829490705        1.69063060365474       -1.87203456273509
C           -5.87016239529710        1.18992472571837       -0.46204870880408
C           -6.79280769897365        2.17480376992830       -0.73522088444293
C           -8.14205060211798        1.86880365969595       -0.61371114210669
C           -8.55084352139188        0.60085380579709       -0.22605848852595
C           -7.62584598543718       -0.39240332711741        0.04903568811704
C           -6.27661719976114       -0.09540372174620       -0.07028363861948
C            0.83915941659666       -2.88360529579361       -0.26174927693178
C            2.12295389501089       -2.41355296698810       -0.39169116214396
N            4.09068800095043        0.50807078734871        0.76779513057625
C            5.25896584143347        1.09374686870497        0.74004172619577
C            5.45194562322211        2.36139998041399        1.44171725683335
C            6.69790239492539        2.98378295828423        1.43660484707177
C            6.87843318947529        4.18153030907692        2.10075791652026
C            5.81922898743209        4.76912375873579        2.77445087622047
C            4.57617643460424        4.15551145661788        2.78170901528379
C            4.39106293053432        2.95775953502075        2.11945489178488
N            6.26903416882239        0.54957049893539        0.09052412031374
C            7.30422804614668       -2.26432844632392       -2.08792843294070
C            8.45644412997201       -2.68885911716193       -2.71561536156787
H           10.54341240576889       -2.33002367652614       -3.05462610122020
H           10.58860445247292       -0.30454275848267       -1.63729481874617
H            8.53437038572145        0.45807793563414       -0.51344366938509
H            4.75829584957711       -2.18937066304533       -1.11051387481948
H            1.85617627451719        0.39469910791484        1.47558703895339
H           -0.43809445752009       -0.46043599147553        1.73110783453217
H            0.10405375288567       -4.93613820152043        1.35686630456088
H           -0.99662399026953       -7.05571019631310        1.97478952318056
H           -3.43719634025855       -7.25322185957292        1.99151415239443
H           -4.86541087454550       -5.31912761548173        1.41606358273712
H           -5.84064308909951       -2.85270504002350        0.71728496042578
H           -1.81715147352111        0.00641026263343       -0.21787890062354
H           -4.52871804337343        1.77724406751688        2.30692511232252
H           -3.38315710396005        3.65751768200135        3.44023223123120
H           -2.01490327362633        5.23824355434196        2.15866869811761
H           -1.75537349775870        4.98649921961531       -0.28443703801558
H           -1.82869541947047        4.27447493296698       -2.80336847390874
H           -2.20908411858061        3.20559904946098       -4.99699186208281
H           -3.60701116431547        1.19994665107199       -5.18474312392222
H           -4.66313227159636        0.20844132740467       -3.17663646733901
H           -6.47340345848241        3.16169449959052       -1.03714934608857
H           -8.88199442869107        2.62698763134514       -0.82350311121429
H           -9.60608562166352        0.38675475076860       -0.13799465586958
H           -7.94929432507592       -1.37762319053479        0.35042600377157
H            0.54049467796277       -3.79095852749432       -0.76655860324816
H            2.82054523382986       -2.97717249581998       -0.99081421678918
H            7.51279849737943        2.51448954999287        0.90696572572079
H            7.84637626041977        4.66085064493476        2.09504261059254
H            5.96222348485233        5.70551740743965        3.29354820789177
H            3.75097783833191        4.61470579700127        3.30615501926352
H            3.42884175255103        2.46885922104212        2.11554626542262
H            6.39423122081352       -2.82546938713230       -2.23467523490019
H            8.43002283171222       -3.57342862388798       -3.33609394106153

 projected vibrational frequencies (cm⁻¹)
eigval :       -0.00    -0.00    -0.00     0.00     0.00     0.00
eigval :        4.06     6.95     8.65    10.21    22.71    24.25
eigval :       27.40    29.71    43.08    49.17    57.21    59.16
eigval :       71.16    76.22    80.30    89.35    97.02   111.84
eigval :      116.76   120.01   134.35   157.37   163.51   173.22
eigval :      183.47   198.67   205.72   212.00   213.26   227.41
eigval :      231.95   259.11   265.69   282.20   292.54   298.75
eigval :      314.48   351.85   356.15   358.04   365.53   366.65
eigval :      379.67   380.49   387.22   397.60   402.28   409.36
eigval :      414.51   414.89   422.39   428.17   433.60   445.12
eigval :      461.65   476.26   484.89   496.45   505.01   518.44
eigval :      536.61   538.61   540.83   543.93   560.63   578.13
eigval :      582.22   582.70   586.64   588.88   590.55   594.24
eigval :      599.02   602.00   612.99   624.87   626.98   648.44
eigval :      650.02   650.44   663.39   664.01   675.13   682.54
eigval :      691.10   703.87   707.17   711.66   732.46   737.67
eigval :      746.70   754.49   764.46   768.66   773.69   775.53
eigval :      786.32   794.78   807.20   812.25   823.47   835.17
eigval :      839.62   847.31   852.76   869.65   870.60   873.43
eigval :      876.23   877.29   878.67   879.03   882.85   899.00
eigval :      900.85   904.32   909.77   910.68   911.43   911.94
eigval :      917.41   919.49   920.69   921.81   923.44   926.69
eigval :      927.34   927.74   928.10   932.24   932.46   936.48
eigval :      976.98   983.82   999.26  1008.69  1008.80  1013.74
eigval :     1030.83  1060.22  1069.08  1069.90  1073.81  1074.94
eigval :     1075.22  1077.95  1079.39  1084.12  1112.13  1121.11
eigval :     1123.33  1134.00  1137.01  1143.59  1152.61  1166.89
eigval :     1173.79  1177.41  1177.43  1178.23  1179.38  1180.90
eigval :     1181.41  1189.25  1196.85  1199.46  1202.81  1208.10
eigval :     1209.67  1221.87  1231.30  1241.91  1245.32  1258.62
eigval :     1261.30  1262.40  1264.15  1268.16  1272.47  1283.55
eigval :     1285.85  1296.49  1301.58  1326.61  1326.91  1327.19
eigval :     1331.07  1339.91  1344.19  1356.93  1357.77  1367.11
eigval :     1368.24  1381.10  1396.82  1421.26  1423.02  1424.91
eigval :     1429.05  1432.14  1433.74  1436.67  1442.15  1457.42
eigval :     1462.25  1462.41  1465.25  1472.21  1472.78  1480.17
eigval :     1487.30  1500.04  1504.72  1553.84  1555.58  1567.36
eigval :     1577.33  1581.57  1583.44  1585.43  1587.64  1588.78
eigval :     1594.43  1595.98  1596.67  1602.86  1604.44  1604.86
eigval :     3069.34  3071.34  3073.12  3073.93  3074.52  3075.53
eigval :     3076.88  3077.09  3078.00  3078.67  3079.16  3080.13
eigval :     3080.75  3084.39  3085.64  3085.95  3086.59  3086.99
eigval :     3089.79  3090.84  3091.75  3092.30  3093.06  3093.40
eigval :     3094.22  3094.59  3094.92  3095.32  3097.84  3098.33
eigval :     3099.01  3099.50  3121.58

   temp. (K)  partition function   enthalpy   heat capacity  entropy
                                   cal/mol     cal/K/mol   cal/K/mol   J/K/mol
 298.15  VIB  0.360E+22            25529.645    161.307    161.307
         ROT  0.144E+09              888.752      2.981     40.311
         INT  0.518E+30            26418.397    164.288    201.618
         TR   0.184E+29             1481.254      4.968     45.548
         TOT                       27899.6508   169.2557   247.1658  1034.1418

       T/K    H(0)-H(T)+PV         H(T)/Eh          T*S/Eh         G(T)/Eh
   ------------------------------------------------------------------------
    298.15    0.444609E-01    0.720708E+00    0.117436E+00    0.603271E+00
   ------------------------------------------------------------------------

         :::::::::::::::::::::::::::::::::::::::::::::::::::::
         ::                  THERMODYNAMIC                  ::
         :::::::::::::::::::::::::::::::::::::::::::::::::::::
         :: total free energy        -138.480773254011 Eh   ::
         ::.................................................::
         :: total energy             -139.084044542024 Eh   ::
         :: zero point energy           0.676246824383 Eh   ::
         :: G(RRHO) w/o ZPVE           -0.072975536370 Eh   ::
         :: G(RRHO) contrib.            0.603271288014 Eh   ::
         :::::::::::::::::::::::::::::::::::::::::::::::::::::

           -------------------------------------------------
          | TOTAL ENERGY             -139.084044542024 Eh   |
          | TOTAL ENTHALPY           -138.363336793962 Eh   |
          | TOTAL FREE ENERGY        -138.480773254011 Eh   |
          | GRADIENT NORM               0.000112226655 Eh/α |
           -------------------------------------------------

 * finished run on 2025/09/09 at 08:48:40.732
