   * xtb version 6.7.1 (edcfbbe) compiled by 'albert@albert-system' on 2024-07-22

   ID    Z sym.   atoms
    1    6 C      1-11, 13-45, 47-53, 55, 56
    2    7 N      12, 46, 54
    3    1 H      57-89

          program call               : xtb data2507/gas/SFI23pPM/SFI23pPM_gas_S0_finalOpt.xtbopt.xyz --gfn 2 --spinpol --tblite --uhf 2 --ohess vtight --parallel 40 --molden --ceasefiles --namespace data2507/gas/SFI23pPM/SFI23pPM_gas_T1_preOpt
 * total energy  :  -139.0762555 Eh     change       -0.2161309E-07 Eh
 * total energy  :  -139.0806449 Eh     change       -0.4389397E-02 Eh
 * total energy  :  -139.0822153 Eh     change       -0.1570377E-02 Eh
 * total energy  :  -139.0823260 Eh     change       -0.1106932E-03 Eh
 * total energy  :  -139.0824753 Eh     change       -0.1493243E-03 Eh
 * total energy  :  -139.0825616 Eh     change       -0.8631533E-04 Eh
 * total energy  :  -139.0826820 Eh     change       -0.1203839E-03 Eh
 * total energy  :  -139.0827791 Eh     change       -0.9707319E-04 Eh
 * total energy  :  -139.0828430 Eh     change       -0.6392495E-04 Eh
 * total energy  :  -139.0829160 Eh     change       -0.7296342E-04 Eh
 * total energy  :  -139.0839103 Eh     change       -0.8390147E-06 Eh
 * total energy  :  -139.0839111 Eh     change       -0.7634771E-06 Eh
 * total energy  :  -139.0839118 Eh     change       -0.6941107E-06 Eh
 * total energy  :  -139.0839125 Eh     change       -0.7134190E-06 Eh
 * total energy  :  -139.0839132 Eh     change       -0.6574939E-06 Eh
 * total energy  :  -139.0839139 Eh     change       -0.7190403E-06 Eh
 * total energy  :  -139.0839146 Eh     change       -0.6738669E-06 Eh
 * total energy  :  -139.0839152 Eh     change       -0.6606307E-06 Eh
 * total energy  :  -139.0839153 Eh     change       -0.3170541E-07 Eh
   *** GEOMETRY OPTIMIZATION CONVERGED AFTER 152 ITERATIONS ***

 final structure:
================
89
 xtb: 6.7.1 (edcfbbe)
C            9.93214489196237       -1.97249383242152       -1.97221040979041
C            9.81665992157442       -0.67560218262586       -1.49385675427336
C            8.60796128196558       -0.21256521457226       -1.02326964830024
C            7.47061126695946       -1.03535477042730       -1.01690140192213
C            6.22524134014246       -0.50346044419481       -0.50715374754315
C            5.01266569559484       -1.17034384345629       -0.53673730524023
C            3.88579372890303       -0.54698659416222        0.02323607565867
C            2.57901257462658       -1.12521353218976        0.08832102223611
C            1.58270433374422       -0.48727895554910        0.85867310846776
C            0.32182636343999       -1.01152711247018        0.97428219382384
C           -0.01524554808544       -2.19264524635115        0.30511811979132
N           -1.30276621403695       -2.73350586604939        0.42224465345888
C           -1.60119545122913       -4.04736671254628        0.72420312925362
C           -0.74907233608001       -5.10875742480451        0.99556284746354
C           -1.31770406026152       -6.33373133130320        1.29102994094518
C           -2.69936476930510       -6.50391485268789        1.32783349172640
C           -3.55333161896594       -5.44357640973185        1.08758983229596
C           -3.00582271433019       -4.20464519041632        0.78912906067567
C           -3.57441833984407       -2.91192768909377        0.52133169533618
C           -4.88060663210239       -2.44982386410165        0.46421185448971
C           -5.06914229838497       -1.10754503505852        0.18009832021741
C           -3.97104450053605       -0.25471493299614       -0.07113993015006
C           -2.67079476424372       -0.69377516298668       -0.02948672622125
C           -2.47918667553819       -2.03538129468143        0.29772252709606
C           -4.44774305366721        1.14913409910895       -0.35417576638409
C           -3.85105678999057        2.16318819485799        0.59259860375538
C           -3.93015710506064        2.19747311640276        1.96734096516399
C           -3.28317628913575        3.22523885874686        2.64063858326849
C           -2.57274466833709        4.19251824302062        1.94576164840724
C           -2.49150014628050        4.16057726652940        0.56269984007175
C           -3.13564216265417        3.13917418334117       -0.11578061228492
C           -3.23270315789211        2.84134194279341       -1.53624813687886
C           -2.71977085278793        3.49510637777179       -2.64430436049896
C           -2.98478218603031        2.97653416464764       -3.90173031312772
C           -3.74592457466698        1.82722141958380       -4.05272843136970
C           -4.26202759953735        1.16543934266316       -2.94647515680965
C           -4.00092836504425        1.67902344158231       -1.69543084063861
C           -5.94364398272872        1.00176828877550       -0.23178461201940
C           -6.91230694229062        1.96842382613422       -0.38401041956639
C           -8.24262324093662        1.60199953543833       -0.22617794106417
C           -8.58778481132830        0.29276732891157        0.07691602892158
C           -7.61642646334947       -0.68224971645632        0.23066057759154
C           -6.28566236527060       -0.32469673448067        0.07537514062578
C            0.95118602194816       -2.82695811637698       -0.47997852293578
C            2.21962767925663       -2.31076240128437       -0.58219265793970
N            4.04689327548069        0.70021461321638        0.55796018585542
C            5.19638348388187        1.32316747715552        0.54912876902763
C            5.29464126314573        2.67059575054684        1.10696205891971
C            6.53480540581511        3.29336691740930        1.22413678429851
C            6.62382301232012        4.56943902891801        1.74578423653561
C            5.47837277423200        5.23521138250309        2.15289327551435
C            4.24107937693031        4.62066967492267        2.03798025969045
C            4.14699895600755        3.34443643970871        1.51834957151627
N            6.26908081874649        0.74881640570846        0.04265492585676
C            7.60425400926406       -2.34315511860660       -1.50168563532222
C            8.81816338854169       -2.79894493938609       -1.97109391379710
H           10.87955657124832       -2.33679196120309       -2.34029663977687
H           10.67886827483761       -0.02397659028514       -1.48958505038462
H            8.51261164686055        0.79716741719009       -0.65331192842339
H            4.93224897205891       -2.15374960413147       -0.96662695687227
H            1.84656029319260        0.41892755769507        1.38195960738414
H           -0.41233556938451       -0.52993289389132        1.60374546156064
H            0.32237010000263       -4.98109925364921        0.99045173362731
H           -0.67596133184768       -7.17604945027183        1.50238758586311
H           -3.10553732288050       -7.47727338893364        1.55884947414533
H           -4.62405742606594       -5.57253537349955        1.13497774695016
H           -5.71404753936147       -3.11260390491212        0.63863781401349
H           -1.84441645096882       -0.03400545960657       -0.24452013517656
H           -4.48284174093416        1.44248342028649        2.50774737869491
H           -3.33328536243860        3.27117717048212        3.71863578259155
H           -2.07641713490871        4.98187987127545        2.49149646309538
H           -1.93669696461534        4.91597269297117        0.02622523986234
H           -2.12687828506811        4.39070744071317       -2.53211967292828
H           -2.59400692594858        3.47427603246866       -4.77732605725922
H           -3.94027677566681        1.44228633620602       -5.04298644418225
H           -4.85564058794635        0.27027763498814       -3.06318602728020
H           -6.64258573633068        2.98749630852156       -0.62038341977442
H           -9.01784640940743        2.34514662473550       -0.34080950300765
H           -9.62946677349428        0.03172067740069        0.19475572439394
H           -7.89033486712047       -1.69969624837999        0.46706961214438
H            0.68351161088914       -3.71802283356694       -1.02904456194368
H            2.93613612410904       -2.81765858539570       -1.20932186465792
H            7.41778835244928        2.76116802192022        0.90469634903141
H            7.58735186884155        5.04913280846171        1.83626738845726
H            5.54982633600307        6.23347537215957        2.55924688353593
H            3.34889806384305        5.14111501968378        2.35418690851333
H            3.19039784895350        2.85442793044879        1.41796325180739
H            6.75880516558914       -3.01382586302449       -1.50526662674132
H            8.90072234013481       -3.81186248279574       -2.33900238732665

 projected vibrational frequencies (cm⁻¹)
eigval :       -0.00    -0.00    -0.00    -0.00    -0.00     0.00
eigval :        7.10     8.69     9.64    15.83    24.18    25.91
eigval :       27.53    31.07    43.57    48.84    56.23    58.02
eigval :       70.12    79.49    81.58    91.86    98.88   111.55
eigval :      116.37   121.03   134.50   152.90   168.96   172.57
eigval :      185.71   199.63   205.92   210.62   213.90   227.79
eigval :      232.60   258.88   265.89   282.27   291.70   300.43
eigval :      314.06   352.05   355.40   356.83   366.19   367.24
eigval :      381.06   383.21   387.22   397.37   403.20   404.79
eigval :      414.36   415.70   424.50   427.44   435.86   445.20
eigval :      461.92   476.26   484.95   496.31   504.99   518.31
eigval :      534.94   538.65   542.09   544.20   560.72   578.57
eigval :      582.00   582.73   586.65   589.03   590.28   594.23
eigval :      598.61   601.79   612.42   624.64   627.60   648.54
eigval :      649.92   650.39   663.65   664.72   675.27   682.53
eigval :      690.97   703.89   706.92   711.28   732.42   737.64
eigval :      746.70   754.34   764.87   768.68   773.71   775.57
eigval :      786.33   797.89   810.31   812.55   823.02   835.70
eigval :      841.26   848.31   853.19   870.66   870.86   874.78
eigval :      876.28   877.33   878.78   879.06   882.89   899.06
eigval :      900.98   905.54   910.70   911.30   911.73   912.22
eigval :      918.29   919.76   921.00   921.77   924.65   926.76
eigval :      927.39   928.15   928.44   932.03   932.51   934.66
eigval :      976.43   984.22   999.41  1008.65  1008.85  1013.77
eigval :     1029.54  1060.63  1066.70  1070.49  1073.82  1075.13
eigval :     1075.29  1077.67  1079.35  1084.09  1112.58  1121.43
eigval :     1123.35  1134.12  1137.81  1143.61  1152.61  1167.60
eigval :     1173.68  1177.35  1177.65  1178.29  1179.43  1180.95
eigval :     1181.37  1189.13  1196.89  1199.24  1203.25  1208.36
eigval :     1209.77  1221.72  1231.02  1241.89  1245.88  1258.59
eigval :     1261.35  1262.44  1264.31  1268.58  1272.47  1283.26
eigval :     1285.66  1296.41  1300.85  1326.43  1326.86  1327.18
eigval :     1331.04  1339.76  1344.08  1357.26  1357.79  1366.91
eigval :     1368.19  1380.58  1396.74  1421.38  1422.83  1424.76
eigval :     1429.27  1431.84  1433.58  1436.55  1442.24  1457.25
eigval :     1462.16  1462.46  1464.98  1472.16  1472.51  1479.67
eigval :     1486.54  1499.84  1504.55  1553.71  1555.23  1566.88
eigval :     1576.74  1581.35  1583.64  1585.68  1587.75  1588.36
eigval :     1594.58  1596.18  1596.78  1602.86  1604.65  1604.75
eigval :     3069.02  3070.95  3072.92  3073.86  3074.35  3075.32
eigval :     3076.68  3077.81  3077.97  3078.51  3079.65  3080.28
eigval :     3080.48  3084.08  3085.64  3085.83  3086.14  3086.44
eigval :     3089.19  3090.12  3091.70  3092.42  3092.92  3093.27
eigval :     3094.06  3094.83  3094.98  3095.13  3096.25  3097.26
eigval :     3098.25  3099.79  3119.65

   temp. (K)  partition function   enthalpy   heat capacity  entropy
                                   cal/mol     cal/K/mol   cal/K/mol   J/K/mol
 298.15  VIB  0.776E+21            25490.440    161.318    159.713
         ROT  0.144E+09              888.752      2.981     40.308
         INT  0.112E+30            26379.192    164.299    200.021
         TR   0.184E+29             1481.254      4.968     45.548
         TOT                       27860.4462   169.2674   245.5689  1027.4602

       T/K    H(0)-H(T)+PV         H(T)/Eh          T*S/Eh         G(T)/Eh
   ------------------------------------------------------------------------
    298.15    0.443984E-01    0.720724E+00    0.116678E+00    0.604047E+00
   ------------------------------------------------------------------------

         :::::::::::::::::::::::::::::::::::::::::::::::::::::
         ::                  THERMODYNAMIC                  ::
         :::::::::::::::::::::::::::::::::::::::::::::::::::::
         :: total free energy        -138.479868756085 Eh   ::
         ::.................................................::
         :: total energy             -139.083915267693 Eh   ::
         :: zero point energy           0.676325764286 Eh   ::
         :: G(RRHO) w/o ZPVE           -0.072279252677 Eh   ::
         :: G(RRHO) contrib.            0.604046511608 Eh   ::
         :::::::::::::::::::::::::::::::::::::::::::::::::::::

           -------------------------------------------------
          | TOTAL ENERGY             -139.083915267693 Eh   |
          | TOTAL ENTHALPY           -138.363191056301 Eh   |
          | TOTAL FREE ENERGY        -138.479868756085 Eh   |
          | GRADIENT NORM               0.000082409352 Eh/α |
           -------------------------------------------------

 * finished run on 2025/09/09 at 08:40:16.372
