   * xtb version 6.7.1 (edcfbbe) compiled by 'albert@albert-system' on 2024-07-22

   ID    Z sym.   atoms
    1    7 N      1, 4, 14, 38, 57, 60
    2    6 C      2, 3, 5-13, 15-37, 39-56, 58, 59
    3    1 H      61-94

          program call               : xtb data2507/gas/TPA-DCPP/TPA-DCPP_gas_S0_finalOpt.xtbopt.xyz --gfn 2 --spinpol --tblite --uhf 2 --ohess vtight --parallel 40 --molden --ceasefiles --namespace data2507/gas/TPA-DCPP/TPA-DCPP_gas_T1_preOpt
 * total energy  :  -150.4083817 Eh     change       -0.7067476E-07 Eh
 * total energy  :  -150.4103125 Eh     change       -0.1930782E-02 Eh
 * total energy  :  -150.4105776 Eh     change       -0.2651584E-03 Eh
 * total energy  :  -150.4103747 Eh     change        0.2029588E-03 Eh
 * total energy  :  -150.4106487 Eh     change       -0.2740508E-03 Eh
 * total energy  :  -150.4106587 Eh     change       -0.9952275E-05 Eh
 * total energy  :  -150.4106621 Eh     change       -0.3393699E-05 Eh
 * total energy  :  -150.4106730 Eh     change       -0.1088494E-04 Eh
 * total energy  :  -150.4106772 Eh     change       -0.4248901E-05 Eh
 * total energy  :  -150.4106842 Eh     change       -0.7034293E-05 Eh
 * total energy  :  -150.4107206 Eh     change       -0.1215335E-05 Eh
 * total energy  :  -150.4107219 Eh     change       -0.1286252E-05 Eh
 * total energy  :  -150.4107235 Eh     change       -0.1582055E-05 Eh
 * total energy  :  -150.4107255 Eh     change       -0.1947197E-05 Eh
 * total energy  :  -150.4107276 Eh     change       -0.2098665E-05 Eh
 * total energy  :  -150.4107291 Eh     change       -0.1558454E-05 Eh
 * total energy  :  -150.4107303 Eh     change       -0.1136048E-05 Eh
 * total energy  :  -150.4107311 Eh     change       -0.8611958E-06 Eh
 * total energy  :  -150.4107311 Eh     change       -0.2152541E-07 Eh
   *** GEOMETRY OPTIMIZATION CONVERGED AFTER 44 ITERATIONS ***

 final structure:
================
94
 xtb: 6.7.1 (edcfbbe)
N            1.92501568629344       10.06296788011944       -0.01504670924386
C            1.36252823214884        9.06195168620742       -0.00697445152295
C            0.67297224196801        7.83569703723859        0.00205128017333
N            1.34523043428010        6.68607925105157        0.01544221302104
C            0.68578606581668        5.51650405022320        0.02302498224001
C            1.39761594817444        4.28573170732391        0.02907134701602
C            2.80525344059859        4.30119215091581        0.02577039476671
C            3.52144876733479        3.13805950012293        0.02756727256467
C            2.85881769823322        1.89692657169061        0.04013365497419
C            3.61787035754859        0.64374189883208        0.03924881853207
C            3.19504102874142       -0.45247509687817        0.79284840662245
C            3.89916244626550       -1.63632665082869        0.78626455683605
C            5.05203433066646       -1.76931238371035        0.00977096523134
N            5.75902916840855       -2.97286053307210       -0.01228396091134
C            7.15557738616705       -2.96258531215548       -0.10731718073039
C            7.81866704525753       -3.92340564934909       -0.87086209404415
C            9.19688415108672       -3.90963533609935       -0.95938336239265
C            9.93308402340258       -2.94031254440459       -0.29738699398178
C            9.27867615565983       -1.98248120773486        0.46032929831614
C            7.90127590749686       -1.99094721819072        0.56048397483061
C            5.07328900914007       -4.19005556804951        0.05610187176196
C            3.84097715271089       -4.34465329400241       -0.57998651673781
C            3.16598701542704       -5.54705509029545       -0.50439248570333
C            3.70706635803855       -6.61339525741166        0.19546829666668
C            4.93301872636526       -6.46676105837419        0.82422710860531
C            5.61297340084483       -5.26636087053056        0.76113423746719
C            5.48291095528044       -0.67597402615381       -0.74435830899981
C            4.77982945448795        0.50867668766576       -0.72179725071677
C            1.47605526362478        1.87639763995233        0.04600164914979
C            0.70941380475230        3.04699016375927        0.03740623441233
C           -0.73227989577094        3.04102614801723        0.03603407990469
C           -1.48928011920566        1.86416669309043        0.04424492139342
C           -2.87216257299007        1.87331844023444        0.03606418213011
C           -3.62123628718855        0.61415575684320        0.03646074363150
C           -3.19018382384461       -0.47757977911619        0.79192944346673
C           -3.88567336269572       -1.66653492348174        0.78781539849369
C           -5.03796877221298       -1.80922839302725        0.01221523707937
N           -5.73683233350886       -3.01760371726781       -0.00650683028889
C           -7.13350838447244       -3.01671157584089       -0.09958944758534
C           -7.88450744685548       -2.04811313686574        0.56672604650340
C           -9.26203977298287       -2.04845828288133        0.46817561690456
C           -9.91135322436759       -3.01223018905957       -0.28639008369661
C           -9.16989035866042       -3.97867683895973       -0.94671706908047
C           -7.79150853711886       -3.98365368140100       -0.85980873782063
C           -5.04256364028878       -4.22986712239852        0.06284250094863
C           -5.57348097694053       -5.30875395008916        0.77057454041756
C           -4.88494203787815       -6.50420737114198        0.83454440757927
C           -3.65903814257801       -6.64325248015324        0.20396144741296
C           -3.12664062432968       -5.57429474403360       -0.49856202143278
C           -3.81021149109213       -4.37681167315759       -0.57499420194509
C           -5.47673179061052       -0.72066597138163       -0.74425785392061
C           -4.78215826483349        0.46902908033047       -0.72434827118211
C           -3.54491225079586        3.10898554251299        0.02077679636294
C           -2.83831598137472        4.27795829344103        0.01919275248219
C           -1.43061453196309        4.27405730335601        0.02558179068410
C           -0.72894614225742        5.51064282144789        0.02094019399016
N           -1.39808503838822        6.67467206182211        0.01107627717038
C           -0.73532344022390        7.82988020705434       -0.00028779604978
C           -1.43511502518367        9.05024573489346       -0.01180485884937
N           -2.00614192331661       10.04645475747421       -0.02187424052115
H            3.29953782951330        5.26086651757584        0.02516320551609
H            4.60054428978936        3.16590589394920        0.04442490186236
H            2.31964434796969       -0.36284894527759        1.41895335594984
H            3.56828503817505       -2.46760002588354        1.39158891495301
H            7.24512246782969       -4.67241301480433       -1.39698935110582
H            9.69888041360396       -4.65612148963962       -1.55676160458290
H           11.00966823239876       -2.93142284493559       -0.37147270663299
H            9.84538630668505       -1.22745643800559        0.98455090867549
H            7.39283958990304       -1.25118751673986        1.16123778722412
H            3.42395124784234       -3.51905956423205       -1.13781732323731
H            2.21439561329222       -5.65469498778823       -1.00365345372496
H            3.17763345747718       -7.55225842542721        0.25001962470764
H            5.35980733710730       -7.29110905297729        1.37593372967990
H            6.56264451190553       -5.15034874230692        1.26234412279509
H            6.36674509054510       -0.76988731567943       -1.35807963893018
H            5.11571481505066        1.33374614276624       -1.33193854022896
H            0.98440145251758        0.91677779250297        0.02907910230542
H           -0.98967923244563        0.90862971355805        0.02926212273941
H           -2.31534303774534       -0.38041264672918        1.41768104387875
H           -3.54858183745105       -2.49425679210139        1.39458223751493
H           -7.38000906103422       -1.30368179741502        1.16502663937615
H           -9.83282435940226       -1.29563318680288        0.99114180380281
H          -10.98805097693766       -3.01014985094938       -0.35933677397917
H           -9.66793079895456       -4.72979437207550       -1.54159770582074
H           -7.21394907901684       -4.73041786170207       -1.38473237073714
H           -6.52311163437241       -5.19859323618474        1.27318372076299
H           -5.30494120448284       -7.33061716396741        1.38837464669291
H           -3.12290781177443       -7.57826905834337        0.25917614643335
H           -2.17515662733788       -5.67606288321840       -0.99925680141892
H           -3.39994733852941       -3.54920152681698       -1.13485016042583
H           -6.36004837212950       -0.82221246616948       -1.35751313399007
H           -5.12407310187639        1.29032672858562       -1.33622207391883
H           -4.62422376772817        3.12803782960427        0.03558554077368
H           -3.34047199180626        5.23353291194826        0.01669157245830

 projected vibrational frequencies (cm⁻¹)
eigval :       -0.00    -0.00    -0.00    -0.00     0.00     0.00
eigval :        7.21     7.68     9.58    16.94    17.12    21.25
eigval :       33.43    37.39    43.00    45.70    48.27    48.48
eigval :       59.11    59.69    65.56    71.44    73.28    75.57
eigval :       93.27    94.47    97.02   101.05   107.13   112.41
eigval :      134.88   146.44   155.29   157.40   158.20   191.13
eigval :      208.28   208.86   225.31   230.21   233.39   241.71
eigval :      259.53   261.96   298.76   299.24   313.66   316.00
eigval :      330.09   333.48   341.51   342.43   373.88   376.80
eigval :      377.93   378.04   379.31   382.11   384.83   385.49
eigval :      390.18   391.81   405.42   407.39   415.31   432.73
eigval :      438.45   439.38   466.29   472.80   474.80   490.06
eigval :      492.40   496.55   507.31   509.10   519.79   530.47
eigval :      543.84   561.76   578.46   583.11   584.58   585.70
eigval :      589.84   593.28   593.89   597.95   602.10   602.81
eigval :      613.27   614.90   628.06   633.21   642.49   644.04
eigval :      659.40   659.76   663.64   667.00   676.50   689.15
eigval :      692.55   694.20   701.93   720.20   722.45   755.60
eigval :      757.00   757.34   759.81   764.10   767.81   808.88
eigval :      809.13   832.89   833.58   856.95   863.04   868.77
eigval :      869.06   873.27   873.43   874.48   874.66   876.17
eigval :      893.87   894.13   894.90   895.72   905.67   909.86
eigval :      910.03   915.69   915.96   919.75   920.27   924.57
eigval :      927.08   927.63   927.99   928.02   928.40   929.11
eigval :      929.33   929.75   930.04   930.37   930.74   978.43
eigval :      984.79   988.15  1004.41  1004.46  1009.69  1018.54
eigval :     1037.47  1061.64  1079.68  1082.36  1082.38  1083.30
eigval :     1083.35  1098.29  1121.67  1121.73  1123.92  1124.03
eigval :     1129.87  1142.56  1143.21  1158.48  1160.02  1179.50
eigval :     1180.08  1180.08  1180.77  1184.92  1185.72  1194.00
eigval :     1194.50  1195.81  1196.03  1210.30  1216.05  1220.34
eigval :     1220.81  1252.03  1260.34  1267.28  1271.52  1274.33
eigval :     1277.38  1277.78  1277.79  1281.12  1287.54  1297.02
eigval :     1310.29  1311.39  1316.47  1316.77  1321.25  1322.03
eigval :     1322.21  1325.83  1327.00  1327.13  1329.72  1335.44
eigval :     1356.01  1370.90  1392.85  1404.52  1405.48  1413.56
eigval :     1415.53  1434.95  1435.28  1441.75  1441.84  1447.69
eigval :     1458.41  1464.30  1467.28  1467.79  1469.58  1470.09
eigval :     1489.98  1494.28  1507.44  1527.39  1550.79  1550.79
eigval :     1569.22  1574.17  1574.48  1574.90  1578.43  1578.57
eigval :     1589.45  1589.67  1591.57  1592.35  1598.61  1598.99
eigval :     2313.54  2341.59  3077.99  3078.29  3078.93  3079.22
eigval :     3079.61  3079.64  3080.29  3080.32  3080.71  3080.75
eigval :     3081.90  3081.96  3085.27  3085.34  3088.20  3088.31
eigval :     3088.93  3088.99  3090.09  3090.60  3091.54  3091.81
eigval :     3092.31  3092.40  3093.95  3094.06  3095.96  3097.87
eigval :     3098.05  3099.69  3100.12  3100.83  3101.02  3106.98

   temp. (K)  partition function   enthalpy   heat capacity  entropy
                                   cal/mol     cal/K/mol   cal/K/mol   J/K/mol
 298.15  VIB  0.131E+25            28976.177    177.744    184.255
         ROT  0.263E+09              888.752      2.981     41.512
         INT  0.345E+33            29864.929    180.725    225.766
         TR   0.205E+29             1481.254      4.968     45.770
         TOT                       31346.1832   185.6933   271.5358  1136.1059

       T/K    H(0)-H(T)+PV         H(T)/Eh          T*S/Eh         G(T)/Eh
   ------------------------------------------------------------------------
    298.15    0.499533E-01    0.754373E+00    0.129015E+00    0.625357E+00
   ------------------------------------------------------------------------

         :::::::::::::::::::::::::::::::::::::::::::::::::::::
         ::                  THERMODYNAMIC                  ::
         :::::::::::::::::::::::::::::::::::::::::::::::::::::
         :: total free energy        -149.785373800714 Eh   ::
         ::.................................................::
         :: total energy             -150.410731115917 Eh   ::
         :: zero point energy           0.704419429757 Eh   ::
         :: G(RRHO) w/o ZPVE           -0.079062114554 Eh   ::
         :: G(RRHO) contrib.            0.625357315203 Eh   ::
         :::::::::::::::::::::::::::::::::::::::::::::::::::::

           -------------------------------------------------
          | TOTAL ENERGY             -150.410731115917 Eh   |
          | TOTAL ENTHALPY           -149.656358363486 Eh   |
          | TOTAL FREE ENERGY        -149.785373800714 Eh   |
          | GRADIENT NORM               0.000175987181 Eh/α |
           -------------------------------------------------

 * finished run on 2025/07/17 at 00:59:30.803
