   * xtb version 6.7.1 (edcfbbe) compiled by 'albert@albert-system' on 2024-07-22

   ID    Z sym.   atoms
    1    7 N      1, 4, 14, 38, 57, 60
    2    6 C      2, 3, 5-13, 15-37, 39-56, 58, 59
    3    1 H      61-94

          program call               : xtb data2507/gas/TPA-DCPP/TPA-DCPP_gas_S0_crest.xyz --gfn 2 --ohess vtight --parallel 40 --molden --ceasefiles --namespace data2507/gas/TPA-DCPP/TPA-DCPP_gas_S0_finalOpt
          :  Hamiltonian                  GFN2-xTB          :
 * total energy  :  -150.4639266 Eh     change       -0.7167955E-08 Eh
 * total energy  :  -150.4639233 Eh     change        0.3303153E-05 Eh
 * total energy  :  -150.4639276 Eh     change       -0.4363945E-05 Eh
 * total energy  :  -150.4639245 Eh     change        0.3140196E-05 Eh
 * total energy  :  -150.4639286 Eh     change       -0.4106316E-05 Eh
 * total energy  :  -150.4639292 Eh     change       -0.6198616E-06 Eh
 * total energy  :  -150.4639304 Eh     change       -0.1131064E-05 Eh
 * total energy  :  -150.4639323 Eh     change       -0.1979358E-05 Eh
 * total energy  :  -150.4639347 Eh     change       -0.2342440E-05 Eh
 * total energy  :  -150.4639371 Eh     change       -0.2434613E-05 Eh
 * total energy  :  -150.4639409 Eh     change       -0.7702206E-06 Eh
 * total energy  :  -150.4639415 Eh     change       -0.6203096E-06 Eh
 * total energy  :  -150.4639418 Eh     change       -0.3213693E-06 Eh
 * total energy  :  -150.4639422 Eh     change       -0.3758259E-06 Eh
 * total energy  :  -150.4639427 Eh     change       -0.5475059E-06 Eh
 * total energy  :  -150.4639430 Eh     change       -0.2812125E-06 Eh
 * total energy  :  -150.4639431 Eh     change       -0.1068881E-06 Eh
 * total energy  :  -150.4639432 Eh     change       -0.1011765E-06 Eh
 * total energy  :  -150.4639432 Eh     change       -0.1548244E-08 Eh
   *** GEOMETRY OPTIMIZATION CONVERGED AFTER 22 ITERATIONS ***

 final structure:
================
94
 xtb: 6.7.1 (edcfbbe)
N            1.93138223280534       10.07420364443120        0.04629375249696
C            1.38704048014491        9.06615304501919        0.04297436005063
C            0.67890600486555        7.83832253987316        0.03865671530064
N            1.36389329504440        6.70741083433608        0.03869043534088
C            0.68876009317340        5.55909087770199        0.03505099991104
C            1.41498315875643        4.31988511742725        0.03302866622929
C            2.81547017048190        4.33121974092654        0.02985026930749
C            3.52740047521187        3.15950239324573        0.02631857236851
C            2.85723224297934        1.92866866136637        0.02967691810604
C            3.60204917523709        0.66698166629645        0.02736828384798
C            3.16217525390168       -0.42610857597337        0.77494082105490
C            3.85378878649053       -1.61692108134306        0.77046134850536
C            5.00888477097322       -1.76416868451688       -0.00128470554668
N            5.69914027880348       -2.97306477987459       -0.02255664349163
C            7.09533155472746       -2.98772759546117       -0.14983828941209
C            7.72153480145652       -3.96289774090498       -0.92464045381996
C            9.09791366482384       -3.97963273582608       -1.04120784597957
C            9.86825517923099       -3.02518870263910       -0.39735533143749
C            9.25013080108845       -2.05282912130442        0.37164118099032
C            7.87497404065867       -2.03271502343411        0.50120286700500
C            5.00341190884848       -4.18511209434378        0.08201726747913
C            3.76846608029218       -4.34927885575299       -0.54449231387606
C            3.08682364091018       -5.54570064146217       -0.43495326050332
C            3.62586878250287       -6.59704475484558        0.28815089059549
C            4.85595245110029       -6.44134726937590        0.90586042588099
C            5.54112484963833       -5.24569840124641        0.81003177828640
C            5.45405460965229       -0.67257938336272       -0.75084773860107
C            4.76625810647925        0.52078681991725       -0.72726052440539
C            1.46970507737820        1.91906897355354        0.03188010642622
C            0.71575848434906        3.09351622209706        0.03337299240353
C           -0.73952259046494        3.08777582044974        0.03404666534204
C           -1.48430626930225        1.90745341779036        0.03710794986116
C           -2.87179020049296        1.90649214387939        0.03348096856071
C           -3.60702460993905        0.63912845220736        0.03440880871489
C           -3.16470518856474       -0.44568789029042        0.79237071476832
C           -3.84767753124114       -1.64155921849997        0.79054633313984
C           -4.99517785216903       -1.80263751452884        0.01022434607284
N           -5.67626695821920       -3.01671565621744       -0.00916474225356
C           -7.07078897641897       -3.04240905759246       -0.15325557562709
C           -7.86530714761384       -2.08997238791690        0.48338080176886
C           -9.23855577332290       -2.12055833745776        0.33669282586287
C           -9.84002448936097       -3.10099447831909       -0.43525791237908
C           -9.05490625855713       -4.05304233657262       -1.06463716076025
C           -7.68025074200249       -4.02586265008295       -0.93090536637313
C           -4.97367165510868       -4.22333133959486        0.11099754258489
C           -5.51341748610239       -5.28307661735863        0.83877904325139
C           -4.82206206556964       -6.47382843310851        0.94983146452163
C           -3.58364724841686       -6.62533788118204        0.34793856700935
C           -3.04249422392418       -5.57479652345520       -0.37474454511562
C           -3.73027029895238       -4.38338942131586       -0.49964712735570
C           -5.44237520488376       -0.71928152744309       -0.75006638267748
C           -4.76413532017779        0.47955635449954       -0.72825165216376
C           -3.55164332586570        3.13191052625595        0.02479882576730
C           -2.84886412019358        4.30914984644227        0.02622310500787
C           -1.44833283440141        4.30863525287913        0.03078779697659
C           -0.73182190640411        5.55351012142304        0.03254740302767
N           -1.41595163594760        6.69649159552006        0.03189248650687
C           -0.73987338938835        7.83275323082384        0.03435887119355
C           -1.45755286117810        9.05501732719704        0.03272630728372
N           -2.00957711622560       10.05890863380353        0.03119118527730
H            3.31452467990608        5.28775289707759        0.03398446730270
H            4.60646853609820        3.18035224506548        0.04298471657220
H            2.28555066660395       -0.32860010460592        1.39851335188224
H            3.50897414363571       -2.44468640501243        1.37249687751267
H            7.12144780237931       -4.70278112783408       -1.43393204343895
H            9.57132169425133       -4.73891400215806       -1.64597414816921
H           10.94315041934726       -3.03951796692430       -0.49350017567284
H            9.84347534834945       -1.30888252297707        0.88243601461829
H            7.39525261116675       -1.28081460511687        1.11073301011679
H            3.35202094477137       -3.53516527900898       -1.11969697316638
H            2.13173998282692       -5.66041155896379       -0.92621356379247
H            3.09180332362607       -7.53151600182876        0.36874651606423
H            5.28240211302147       -7.25446755064662        1.47446205097356
H            6.49595065067353       -5.12329731498167        1.29997761852126
H            6.33955320719469       -0.77374799005028       -1.36075444989409
H            5.11487332085300        1.34296219338269       -1.33451349853572
H            0.97480154234472        0.96178872868348        0.00804829070289
H           -0.98229793309080        0.95373490642394        0.01854446957411
H           -2.29341539908303       -0.33744846814699        1.42167037731991
H           -3.50172135767986       -2.46261472638136        1.40105328144658
H           -7.39860119630421       -1.33169340138941        1.09510910567220
H           -9.84356222076958       -1.37841431810848        0.83630436327997
H          -10.91348512983721       -3.12339503768249       -0.54493656568557
H           -9.51526040178217       -4.81862997325597       -1.67152346125349
H           -7.06855473881396       -4.76388993963789       -1.42895572063540
H           -6.47486719536171       -5.16393396339104        1.31641890623506
H           -5.25039315651736       -7.28637564320532        1.51783864968728
H           -3.04479327428040       -7.55595391248922        0.44037551474369
H           -2.08076441829885       -5.68627632645144       -0.85362257894305
H           -3.31199918919753       -3.57014121223991       -1.07474049076554
H           -6.32181535654065       -0.83110582470333       -1.36682282613455
H           -5.11408014045786        1.29548825607486       -1.34313841610649
H           -4.63088383991653        3.14408787322697        0.03970333312903
H           -3.35531042091967        5.26179410069708        0.02771617243132

          :  Hamiltonian                  GFN2-xTB          :
         :: gradient norm              0.000058638412 Eh/a0 ::
         :: HOMO-LUMO gap              1.216983397479 eV    ::
         :: SCC energy              -153.340515557950 Eh    ::
         :: -> dispersion             -0.133088103444 Eh    ::
         :: repulsion energy           2.876572336860 Eh    ::

    * Orbital Energies and Occupations

         #    Occupation            Energy/Eh            Energy/eV
      -------------------------------------------------------------
         1        2.0000           -0.7037256             -19.1493
       ...           ...                  ...                  ...
       128        2.0000           -0.4182490             -11.3811
       129        2.0000           -0.4158728             -11.3165
       130        2.0000           -0.4158655             -11.3163
       131        2.0000           -0.4134289             -11.2500
       132        2.0000           -0.4133196             -11.2470
       133        2.0000           -0.4128675             -11.2347
       134        2.0000           -0.4125723             -11.2267
       135        2.0000           -0.4085914             -11.1183
       136        2.0000           -0.4037113             -10.9855
       137        2.0000           -0.3989162             -10.8551
       138        2.0000           -0.3745392             -10.1917
       139        2.0000           -0.3587223              -9.7613
       140        2.0000           -0.3580251              -9.7424 (HOMO)
       141                         -0.3133018              -8.5254 (LUMO)
       142                         -0.3084513              -8.3934
       143                         -0.2662488              -7.2450
       144                         -0.2641201              -7.1871
       145                         -0.2523737              -6.8674
       146                         -0.2385191              -6.4904
       147                         -0.2385072              -6.4901
       148                         -0.2364679              -6.4346
       149                         -0.2364423              -6.4339
       150                         -0.2350256              -6.3954
       151                         -0.2311205              -6.2891
       ...                                ...                  ...
       274                          1.1704599              31.8498
      -------------------------------------------------------------
                  HL-Gap            0.0447233 Eh            1.2170 eV

     #   Z          covCN         q      C6AA      α(0)
     1   7 N        0.911    -0.197    25.270     7.270
     2   6 C        1.909     0.112    28.337     8.597
     3   6 C        2.953     0.099    25.804     8.332
     4   7 N        1.853    -0.220    26.642     7.650
     5   6 C        2.964     0.087    26.069     8.375
     6   6 C        2.989    -0.004    28.117     8.698
     7   6 C        2.920    -0.026    28.648     8.777
     8   6 C        2.921    -0.032    28.805     8.801
     9   6 C        2.974     0.018    27.605     8.618
    10   6 C        2.977    -0.001    28.046     8.687
    11   6 C        2.924    -0.033    28.829     8.805
    12   6 C        2.920    -0.049    29.217     8.864
    13   6 C        2.924     0.066    26.514     8.444
    14   7 N        2.752    -0.072    22.643     7.067
    15   6 C        2.925     0.064    26.558     8.451
    16   6 C        2.922    -0.046    29.152     8.854
    17   6 C        2.920    -0.029    28.713     8.787
    18   6 C        2.919    -0.037    28.914     8.818
    19   6 C        2.920    -0.029    28.716     8.788
    20   6 C        2.922    -0.047    29.158     8.855
    21   6 C        2.925     0.065    26.550     8.450
    22   6 C        2.922    -0.047    29.168     8.857
    23   6 C        2.920    -0.029    28.722     8.788
    24   6 C        2.919    -0.037    28.925     8.820
    25   6 C        2.920    -0.029    28.713     8.787
    26   6 C        2.922    -0.046    29.154     8.854
    27   6 C        2.920    -0.049    29.209     8.863
    28   6 C        2.924    -0.032    28.810     8.802
    29   6 C        2.929    -0.040    28.995     8.831
    30   6 C        2.975     0.008    27.833     8.654
    31   6 C        2.975     0.008    27.833     8.654
    32   6 C        2.929    -0.040    28.994     8.831
    33   6 C        2.974     0.018    27.604     8.618
    34   6 C        2.977    -0.001    28.046     8.687
    35   6 C        2.924    -0.033    28.829     8.805
    36   6 C        2.920    -0.049    29.218     8.864
    37   6 C        2.923     0.066    26.514     8.444
    38   7 N        2.752    -0.072    22.643     7.067
    39   6 C        2.925     0.064    26.558     8.451
    40   6 C        2.922    -0.047    29.156     8.855
    41   6 C        2.920    -0.029    28.716     8.788
    42   6 C        2.919    -0.037    28.913     8.818
    43   6 C        2.920    -0.029    28.713     8.787
    44   6 C        2.922    -0.046    29.151     8.854
    45   6 C        2.925     0.065    26.551     8.450
    46   6 C        2.922    -0.046    29.154     8.855
    47   6 C        2.920    -0.029    28.713     8.787
    48   6 C        2.919    -0.037    28.926     8.820
    49   6 C        2.920    -0.029    28.722     8.789
    50   6 C        2.922    -0.047    29.169     8.857
    51   6 C        2.920    -0.049    29.210     8.863
    52   6 C        2.924    -0.032    28.810     8.802
    53   6 C        2.921    -0.032    28.804     8.801
    54   6 C        2.920    -0.026    28.647     8.777
    55   6 C        2.989    -0.004    28.117     8.698
    56   6 C        2.964     0.087    26.069     8.375
    57   7 N        1.853    -0.220    26.642     7.650
    58   6 C        2.953     0.099    25.804     8.332
    59   6 C        1.909     0.112    28.337     8.597
    60   7 N        0.911    -0.197    25.270     7.270
    61   1 H        0.926     0.061     2.187     2.312
    62   1 H        0.926     0.042     2.422     2.434
    63   1 H        0.926     0.033     2.538     2.491
    64   1 H        0.926     0.034     2.526     2.485
    65   1 H        0.926     0.033     2.550     2.497
    66   1 H        0.926     0.034     2.534     2.490
    67   1 H        0.926     0.033     2.546     2.495
    68   1 H        0.926     0.034     2.532     2.488
    69   1 H        0.926     0.033     2.551     2.497
    70   1 H        0.926     0.032     2.562     2.503
    71   1 H        0.926     0.032     2.559     2.501
    72   1 H        0.926     0.032     2.557     2.501
    73   1 H        0.926     0.034     2.535     2.490
    74   1 H        0.926     0.033     2.544     2.494
    75   1 H        0.926     0.035     2.513     2.479
    76   1 H        0.926     0.036     2.497     2.471
    77   1 H        0.926     0.041     2.437     2.441
    78   1 H        0.926     0.041     2.438     2.442
    79   1 H        0.926     0.033     2.539     2.492
    80   1 H        0.926     0.034     2.525     2.485
    81   1 H        0.926     0.033     2.550     2.497
    82   1 H        0.926     0.034     2.531     2.488
    83   1 H        0.926     0.033     2.545     2.495
    84   1 H        0.926     0.034     2.534     2.489
    85   1 H        0.926     0.033     2.549     2.497
    86   1 H        0.926     0.033     2.544     2.494
    87   1 H        0.926     0.034     2.535     2.490
    88   1 H        0.926     0.032     2.557     2.501
    89   1 H        0.926     0.032     2.559     2.501
    90   1 H        0.926     0.032     2.562     2.503
    91   1 H        0.926     0.035     2.514     2.479
    92   1 H        0.926     0.036     2.498     2.472
    93   1 H        0.926     0.042     2.423     2.434
    94   1 H        0.926     0.061     2.186     2.312

molecular dipole:
                 x           y           z       tot (Debye)
 q only:        0.015      -4.204      -0.028
   full:        0.018      -4.937      -0.028      12.548

 projected vibrational frequencies (cm⁻¹)
eigval :       -0.00    -0.00     0.00     0.00     0.00     0.00
eigval :        6.89     7.53     9.71    16.93    17.01    19.86
eigval :       27.48    37.86    43.10    43.39    48.05    48.44
eigval :       56.55    60.07    65.85    70.96    73.03    79.80
eigval :       92.88    94.36    94.53    98.01   106.94   113.01
eigval :      137.82   146.94   155.89   158.68   161.11   189.37
eigval :      207.38   211.48   225.74   231.95   234.78   242.31
eigval :      256.42   277.75   297.22   300.08   310.46   319.23
eigval :      327.66   336.28   340.57   350.18   377.35   378.06
eigval :      379.06   379.64   382.07   383.88   387.20   387.50
eigval :      391.72   396.67   402.86   411.52   423.27   433.48
eigval :      440.37   457.85   461.75   473.71   478.55   489.78
eigval :      491.48   499.00   508.38   511.75   537.31   539.78
eigval :      547.96   573.15   580.86   583.91   585.50   586.64
eigval :      591.51   593.79   594.26   600.40   605.74   614.67
eigval :      622.42   636.10   645.01   654.16   656.03   660.14
eigval :      660.61   665.40   668.14   680.05   690.80   695.81
eigval :      701.07   707.96   717.97   720.80   757.28   757.41
eigval :      757.79   757.93   761.80   763.05   772.07   810.83
eigval :      812.08   838.66   838.74   862.07   863.48   869.45
eigval :      870.81   875.02   875.32   876.24   876.32   879.12
eigval :      893.54   893.89   894.28   894.83   910.09   910.28
eigval :      911.40   917.76   918.21   925.32   925.63   927.80
eigval :      928.21   928.29   928.32   929.30   929.36   929.73
eigval :      929.87   930.02   930.73   932.07   937.45   982.89
eigval :      985.60  1005.32  1005.38  1008.10  1019.15  1039.54
eigval :     1064.62  1082.29  1083.06  1083.16  1084.02  1084.08
eigval :     1101.21  1121.68  1121.74  1123.72  1123.85  1143.45
eigval :     1144.72  1153.53  1158.87  1164.33  1179.85  1180.61
eigval :     1180.61  1181.29  1187.07  1187.40  1194.95  1195.55
eigval :     1197.66  1198.37  1212.55  1216.81  1222.23  1228.92
eigval :     1253.28  1268.56  1269.52  1273.11  1276.71  1278.39
eigval :     1279.50  1281.35  1282.19  1298.46  1303.26  1312.33
eigval :     1314.06  1317.61  1317.80  1324.81  1326.33  1326.51
eigval :     1327.37  1330.72  1335.57  1335.90  1337.67  1352.78
eigval :     1385.73  1397.73  1410.75  1411.61  1418.67  1434.32
eigval :     1436.45  1437.04  1442.53  1442.87  1443.54  1466.07
eigval :     1471.29  1472.07  1475.28  1475.83  1479.08  1485.61
eigval :     1498.59  1505.19  1537.05  1544.45  1554.01  1555.59
eigval :     1574.28  1577.91  1578.03  1580.64  1582.07  1582.83
eigval :     1594.41  1594.76  1596.71  1598.06  1602.49  1603.93
eigval :     2367.34  2368.66  3075.95  3076.36  3077.43  3077.65
eigval :     3077.68  3077.77  3078.18  3078.20  3078.99  3079.02
eigval :     3081.35  3081.41  3086.39  3086.55  3087.09  3087.14
eigval :     3089.50  3089.69  3090.44  3090.61  3090.63  3090.71
eigval :     3091.29  3091.53  3093.92  3093.99  3098.55  3098.70
eigval :     3099.35  3099.37  3102.50  3107.40  3107.47  3113.75

   temp. (K)  partition function   enthalpy   heat capacity  entropy
                                   cal/mol     cal/K/mol   cal/K/mol   J/K/mol
 298.15  VIB  0.157E+25            28805.443    176.254    183.463
         ROT  0.261E+09              888.752      2.981     41.496
         INT  0.410E+33            29694.195    179.235    224.959
         TR   0.205E+29             1481.254      4.968     45.770
         TOT                       31175.4490   184.2035   270.7283  1132.7271

       T/K    H(0)-H(T)+PV         H(T)/Eh          T*S/Eh         G(T)/Eh
   ------------------------------------------------------------------------
    298.15    0.496812E-01    0.757304E+00    0.128632E+00    0.628672E+00
   ------------------------------------------------------------------------

         :::::::::::::::::::::::::::::::::::::::::::::::::::::
         ::                  THERMODYNAMIC                  ::
         :::::::::::::::::::::::::::::::::::::::::::::::::::::
         :: total free energy        -149.835271419630 Eh   ::
         ::.................................................::
         :: total energy             -150.463943221089 Eh   ::
         :: zero point energy           0.707622298206 Eh   ::
         :: G(RRHO) w/o ZPVE           -0.078950496746 Eh   ::
         :: G(RRHO) contrib.            0.628671801459 Eh   ::
         :::::::::::::::::::::::::::::::::::::::::::::::::::::

           -------------------------------------------------
          | TOTAL ENERGY             -150.463943221089 Eh   |
          | TOTAL ENTHALPY           -149.706639682507 Eh   |
          | TOTAL FREE ENERGY        -149.835271419630 Eh   |
          | GRADIENT NORM               0.000058686256 Eh/α |
          | HOMO-LUMO GAP               1.216983557456 eV   |
           -------------------------------------------------

 * finished run on 2025/07/17 at 00:59:12.925
