   * xtb version 6.7.1 (edcfbbe) compiled by 'albert@albert-system' on 2024-07-22

   ID    Z sym.   atoms
    1    7 N      1, 4, 14, 38, 57, 60
    2    6 C      2, 3, 5-13, 15-37, 39-56, 58, 59
    3    1 H      61-94

          program call               : xtb data2507/gas/TPA-DCPP/TPA-DCPP.xyz --gfn 2 --ohess vtight --parallel 40 --molden --ceasefiles --namespace data2507/gas/TPA-DCPP/TPA-DCPP_gas_S0_preOpt
          :  Hamiltonian                  GFN2-xTB          :
 * total energy  :  -150.4272938 Eh     change       -0.1054912E-07 Eh
 * total energy  :  -150.4482831 Eh     change       -0.2098928E-01 Eh
 * total energy  :  -150.4563542 Eh     change       -0.8071127E-02 Eh
 * total energy  :  -150.4595858 Eh     change       -0.3231566E-02 Eh
 * total energy  :  -150.4615154 Eh     change       -0.1929642E-02 Eh
 * total energy  :  -150.4620056 Eh     change       -0.4901626E-03 Eh
 * total energy  :  -150.4623075 Eh     change       -0.3019792E-03 Eh
 * total energy  :  -150.4627562 Eh     change       -0.4486680E-03 Eh
 * total energy  :  -150.4630279 Eh     change       -0.2716394E-03 Eh
 * total energy  :  -150.4632329 Eh     change       -0.2050161E-03 Eh
 * total energy  :  -150.4638701 Eh     change       -0.1572560E-05 Eh
 * total energy  :  -150.4638716 Eh     change       -0.1505352E-05 Eh
 * total energy  :  -150.4638729 Eh     change       -0.1317192E-05 Eh
 * total energy  :  -150.4638740 Eh     change       -0.1088535E-05 Eh
 * total energy  :  -150.4638749 Eh     change       -0.8743169E-06 Eh
 * total energy  :  -150.4638757 Eh     change       -0.7776948E-06 Eh
 * total energy  :  -150.4638764 Eh     change       -0.6894003E-06 Eh
 * total energy  :  -150.4638771 Eh     change       -0.7529233E-06 Eh
 * total energy  :  -150.4638771 Eh     change       -0.4932843E-08 Eh
   *** GEOMETRY OPTIMIZATION CONVERGED AFTER 94 ITERATIONS ***

 final structure:
================
94
 xtb: 6.7.1 (edcfbbe)
N            2.00065252222560       10.83314146900622        0.13383640496875
C            1.44990472207554        9.82859657523438        0.12773472934953
C            0.73385960258378        8.60538419081318        0.11942815468043
N            1.41144635557495        7.47003676139689        0.12142315577847
C            0.72882419294521        6.32616125309545        0.11430281236171
C            1.44686651662994        5.08218887273916        0.11146584402333
C            2.84733613213069        5.08553611590731        0.10003343431291
C            3.55201230012201        3.90957990837296        0.08652571599828
C            2.87396591709526        2.68329824061207        0.09420356838906
C            3.61273029963902        1.41802602497572        0.07336893545894
C            3.19629170517921        0.32967855597216        0.84032000874466
C            3.88385598322398       -0.86347345649858        0.81518123700733
C            5.00694587090921       -1.01910813127298       -0.00120401548424
N            5.69040442021486       -2.23078198082516       -0.04631048056636
C            7.07695472605345       -2.25440844696376       -0.25576046031393
C            7.64917023231035       -3.23549786237503       -1.06407624725561
C            9.01576017800829       -3.26080904163193       -1.26430904737747
C            9.82931672256293       -2.30921345188212       -0.67145133957857
C            9.26492449266513       -1.33170860482802        0.13160664094495
C            7.90032594518031       -1.30309140841403        0.34473263027096
C            4.99936936847765       -3.44057793156451        0.10698084397441
C            3.73360035071569       -3.61124152542963       -0.45251313031931
C            3.05905335904796       -4.80629972219936       -0.29436986307364
C            3.63547458023690       -5.84984404109243        0.41097266414026
C            4.89627994414493       -5.68794684824957        0.96148037233552
C            5.57497197229851       -4.49353342178496        0.81690384322184
C            5.42683592857779        0.06800325991786       -0.77184620709732
C            4.74692982834317        1.26504801012896       -0.72403076990115
C            1.48672550731473        2.68097648816674        0.11142472897259
C            0.73986086033786        3.86017921456220        0.11522973519652
C           -0.71547942799389        3.86396146126623        0.11177680151383
C           -1.46849508812212        2.68867339047994        0.11076502045307
C           -2.85558324478297        2.69816666564902        0.08608339937596
C           -3.60118821422807        1.43679878528899        0.07285655168620
C           -3.19481375357439        0.35401239400510        0.85296298936928
C           -3.89005130185439       -0.83484057999913        0.83786462842978
C           -5.01102343210688       -0.99183579425802        0.01884944491810
N           -5.70319304197837       -2.19894405977858       -0.01476665517448
C           -7.08932922647842       -2.21486297169999       -0.22746071336228
C           -7.90708080979961       -1.24963021862797        0.35834747077728
C           -9.27132350770880       -1.27091596822743        0.14213459011209
C           -9.84103844865846       -2.25473841088056       -0.64936333052426
C           -9.03314478137430       -3.22010545145322       -1.22751832271862
C           -7.66689175562162       -3.20227534223375       -1.02420389400889
C           -5.02165410116510       -3.41171417802081        0.15662956001969
C           -5.60703744429188       -4.45096647601220        0.87862617150484
C           -4.93736143538579       -5.64813946793567        1.04132160614949
C           -3.67601249824645       -5.82632791933698        0.49713167077962
C           -3.08991521639594       -4.79644152530186       -0.22021438662678
C           -3.75539939241711       -3.59883828664860       -0.39646381322335
C           -5.42013993128190        0.08931462857022       -0.76585672944641
C           -4.73265963745417        1.28240775058108       -0.72811088249492
C           -3.52711136911489        3.92787311667434        0.06575754525457
C           -2.81638017535228        5.10019861546194        0.07778796014576
C           -1.41606827496474        5.08960597315873        0.09932062967769
C           -0.69161993582976        6.32984127474031        0.10609920123451
N           -1.36832763810250        7.47724147051945        0.10261257861744
C           -0.68489366818371        8.60906329818219        0.10859432130637
C           -1.39463475618284        9.83594552982132        0.10351366512925
N           -1.94027192768110       10.84330945407848        0.09895061697657
H            3.35192798483150        6.03915554690525        0.10249384163428
H            4.63136796005629        3.92270615857801        0.09132307235933
H            2.34265706924396        0.43319366416764        1.49421980615783
H            3.55973994405049       -1.68682093845855        1.43448101222945
H            7.01479499138793       -3.97298532628352       -1.53377323448214
H            9.44696581915493       -4.02425636165427       -1.89484326459729
H           10.89617265599570       -2.32970489508777       -0.83349711153654
H            9.89268756319238       -0.59018017588995        0.60327023139117
H            7.46296534337452       -0.54699955974179        0.98037139152882
H            3.28747291198659       -2.80352723063466       -1.01430695829269
H            2.07963680190032       -4.92618555434684       -0.73374250342681
H            3.10659926948814       -6.78321191991847        0.52961135837496
H            5.35238568690567       -6.49509526634280        1.51537305277185
H            6.55441341298260       -4.36612478728996        1.25416867879888
H            6.28611560871909       -0.03910148851650       -1.41713358683432
H            5.07578984368125        2.08484641570364       -1.34544525417100
H            0.98686847736608        1.72600664177443        0.09407079793246
H           -0.97361866029209        1.73098657854160        0.10318290044981
H           -2.34324348472569        0.45909981775853        1.50929831924784
H           -3.57393327201412       -1.65345676908220        1.46747982028606
H           -7.46571211712969       -0.48850672900885        0.98514845052066
H           -9.89467304041838       -0.51857098253412        0.60238899328942
H          -10.90762815832581       -2.26948326045536       -0.81377354110066
H           -9.46850649752993       -3.98867592425534       -1.84890795948492
H           -7.03690627016504       -3.95064395183406       -1.48245867788555
H           -6.58686867554921       -4.31072799959509        1.31106507748717
H           -5.40093953370269       -6.44452381006887        1.60451409629587
H           -3.15415671545776       -6.76172343207245        0.63001841353908
H           -2.10993806500666       -4.92914154023140       -0.65461904943760
H           -3.30172727034959       -2.80180796718952       -0.96740485642395
H           -6.27735902234479       -0.01928702937974       -1.41363599663158
H           -5.05351344186566        2.09754707887218       -1.35976438332181
H           -4.60639109468249        3.94663172219682        0.06320208639650
H           -3.31597312525678        6.05643205140046        0.07230838191564

          :  Hamiltonian                  GFN2-xTB          :
         :: gradient norm              0.000086713146 Eh/a0 ::
         :: HOMO-LUMO gap              1.217154523981 eV    ::
         :: SCC energy              -153.340477359217 Eh    ::
         :: -> dispersion             -0.133062032730 Eh    ::
         :: repulsion energy           2.876600240701 Eh    ::

    * Orbital Energies and Occupations

         #    Occupation            Energy/Eh            Energy/eV
      -------------------------------------------------------------
         1        2.0000           -0.7036980             -19.1486
       ...           ...                  ...                  ...
       128        2.0000           -0.4180329             -11.3753
       129        2.0000           -0.4159792             -11.3194
       130        2.0000           -0.4159632             -11.3189
       131        2.0000           -0.4134644             -11.2509
       132        2.0000           -0.4133402             -11.2476
       133        2.0000           -0.4129194             -11.2361
       134        2.0000           -0.4126354             -11.2284
       135        2.0000           -0.4086188             -11.1191
       136        2.0000           -0.4036838             -10.9848
       137        2.0000           -0.3989993             -10.8573
       138        2.0000           -0.3745048             -10.1908
       139        2.0000           -0.3586673              -9.7598
       140        2.0000           -0.3579718              -9.7409 (HOMO)
       141                         -0.3132422              -8.5238 (LUMO)
       142                         -0.3083587              -8.3909
       143                         -0.2658262              -7.2335
       144                         -0.2640661              -7.1856
       145                         -0.2518113              -6.8521
       146                         -0.2386189              -6.4932
       147                         -0.2386017              -6.4927
       148                         -0.2363502              -6.4314
       149                         -0.2363446              -6.4313
       150                         -0.2350694              -6.3966
       151                         -0.2310460              -6.2871
       ...                                ...                  ...
       274                          1.1705088              31.8512
      -------------------------------------------------------------
                  HL-Gap            0.0447296 Eh            1.2172 eV

     #   Z          covCN         q      C6AA      α(0)
     1   7 N        0.911    -0.197    25.270     7.270
     2   6 C        1.909     0.112    28.337     8.597
     3   6 C        2.953     0.099    25.804     8.332
     4   7 N        1.853    -0.220    26.642     7.650
     5   6 C        2.965     0.087    26.069     8.375
     6   6 C        2.989    -0.004    28.118     8.698
     7   6 C        2.920    -0.026    28.647     8.777
     8   6 C        2.921    -0.032    28.804     8.801
     9   6 C        2.975     0.018    27.602     8.618
    10   6 C        2.977    -0.001    28.050     8.688
    11   6 C        2.924    -0.033    28.829     8.805
    12   6 C        2.920    -0.049    29.224     8.865
    13   6 C        2.923     0.066    26.516     8.444
    14   7 N        2.752    -0.072    22.642     7.067
    15   6 C        2.925     0.064    26.558     8.451
    16   6 C        2.922    -0.046    29.149     8.854
    17   6 C        2.920    -0.029    28.713     8.787
    18   6 C        2.919    -0.037    28.911     8.817
    19   6 C        2.920    -0.029    28.717     8.788
    20   6 C        2.922    -0.046    29.153     8.854
    21   6 C        2.925     0.065    26.550     8.450
    22   6 C        2.922    -0.047    29.166     8.856
    23   6 C        2.920    -0.029    28.722     8.789
    24   6 C        2.919    -0.037    28.924     8.819
    25   6 C        2.920    -0.029    28.713     8.787
    26   6 C        2.922    -0.046    29.151     8.854
    27   6 C        2.920    -0.049    29.217     8.864
    28   6 C        2.924    -0.033    28.811     8.802
    29   6 C        2.928    -0.040    28.991     8.830
    30   6 C        2.975     0.008    27.832     8.654
    31   6 C        2.975     0.008    27.832     8.654
    32   6 C        2.928    -0.040    28.991     8.830
    33   6 C        2.975     0.018    27.602     8.618
    34   6 C        2.977    -0.001    28.050     8.688
    35   6 C        2.924    -0.033    28.829     8.805
    36   6 C        2.920    -0.049    29.224     8.865
    37   6 C        2.923     0.066    26.516     8.444
    38   7 N        2.752    -0.072    22.642     7.067
    39   6 C        2.925     0.064    26.558     8.451
    40   6 C        2.922    -0.046    29.154     8.854
    41   6 C        2.920    -0.029    28.717     8.788
    42   6 C        2.919    -0.037    28.912     8.817
    43   6 C        2.920    -0.029    28.713     8.787
    44   6 C        2.922    -0.046    29.150     8.854
    45   6 C        2.925     0.065    26.550     8.450
    46   6 C        2.922    -0.046    29.151     8.854
    47   6 C        2.920    -0.029    28.713     8.787
    48   6 C        2.919    -0.037    28.924     8.819
    49   6 C        2.920    -0.029    28.722     8.789
    50   6 C        2.922    -0.047    29.166     8.856
    51   6 C        2.920    -0.049    29.217     8.864
    52   6 C        2.924    -0.033    28.811     8.802
    53   6 C        2.921    -0.032    28.804     8.801
    54   6 C        2.920    -0.026    28.647     8.777
    55   6 C        2.989    -0.004    28.118     8.698
    56   6 C        2.965     0.087    26.069     8.375
    57   7 N        1.853    -0.220    26.642     7.650
    58   6 C        2.953     0.099    25.804     8.332
    59   6 C        1.909     0.112    28.337     8.597
    60   7 N        0.911    -0.197    25.270     7.270
    61   1 H        0.926     0.061     2.186     2.312
    62   1 H        0.926     0.042     2.423     2.434
    63   1 H        0.926     0.033     2.540     2.492
    64   1 H        0.926     0.034     2.526     2.485
    65   1 H        0.926     0.033     2.550     2.497
    66   1 H        0.926     0.034     2.534     2.489
    67   1 H        0.926     0.033     2.545     2.495
    68   1 H        0.926     0.034     2.530     2.488
    69   1 H        0.926     0.033     2.546     2.495
    70   1 H        0.926     0.032     2.560     2.502
    71   1 H        0.926     0.032     2.559     2.502
    72   1 H        0.926     0.032     2.556     2.500
    73   1 H        0.926     0.034     2.535     2.490
    74   1 H        0.926     0.033     2.544     2.494
    75   1 H        0.926     0.035     2.515     2.480
    76   1 H        0.926     0.036     2.501     2.473
    77   1 H        0.926     0.041     2.439     2.442
    78   1 H        0.926     0.041     2.439     2.442
    79   1 H        0.926     0.033     2.540     2.492
    80   1 H        0.926     0.034     2.526     2.485
    81   1 H        0.926     0.033     2.547     2.495
    82   1 H        0.926     0.034     2.531     2.488
    83   1 H        0.926     0.033     2.545     2.495
    84   1 H        0.926     0.034     2.534     2.489
    85   1 H        0.926     0.033     2.550     2.497
    86   1 H        0.926     0.033     2.544     2.494
    87   1 H        0.926     0.034     2.535     2.490
    88   1 H        0.926     0.032     2.556     2.500
    89   1 H        0.926     0.032     2.559     2.501
    90   1 H        0.926     0.032     2.560     2.502
    91   1 H        0.926     0.035     2.515     2.480
    92   1 H        0.926     0.036     2.501     2.473
    93   1 H        0.926     0.042     2.423     2.434
    94   1 H        0.926     0.061     2.186     2.312

molecular dipole:
                 x           y           z       tot (Debye)
 q only:       -0.010      -4.215      -0.058
   full:       -0.012      -4.948      -0.063      12.578

 projected vibrational frequencies (cm⁻¹)
eigval :       -0.00    -0.00     0.00     0.00     0.00     0.00
eigval :        6.82     7.46     9.66    16.94    17.17    19.68
eigval :       27.40    38.15    43.15    43.64    47.94    48.28
eigval :       56.91    60.31    65.69    70.85    72.93    79.76
eigval :       92.90    94.19    94.51    98.25   107.06   113.03
eigval :      137.59   146.80   155.36   158.57   161.02   188.54
eigval :      207.88   211.90   226.08   232.31   235.14   242.41
eigval :      256.09   276.84   297.40   300.24   310.10   319.34
eigval :      327.75   335.75   340.66   350.55   377.35   378.19
eigval :      378.97   379.48   381.49   383.75   386.91   387.70
eigval :      391.59   396.77   402.58   411.76   423.10   433.22
eigval :      439.80   458.04   461.89   473.71   478.71   489.88
eigval :      491.70   499.09   508.43   512.61   537.32   539.74
eigval :      547.99   573.31   580.87   583.99   585.41   586.62
eigval :      591.48   593.84   594.25   600.49   605.31   614.82
eigval :      622.34   636.67   644.95   654.28   655.91   660.32
eigval :      660.81   665.58   668.33   679.98   690.53   695.80
eigval :      700.90   707.98   718.04   720.74   757.37   757.39
eigval :      757.84   758.02   761.86   763.08   772.16   811.08
eigval :      812.36   838.64   838.76   862.48   863.70   869.58
eigval :      870.92   875.21   875.51   876.30   876.45   879.30
eigval :      893.73   894.12   894.48   894.99   910.03   910.21
eigval :      911.42   917.80   918.22   925.32   925.57   928.03
eigval :      928.34   928.40   928.52   929.43   929.44   929.84
eigval :      929.86   930.08   931.14   932.14   937.24   982.91
eigval :      985.63  1005.32  1005.38  1008.05  1019.06  1039.32
eigval :     1064.58  1082.58  1082.99  1083.21  1083.99  1084.04
eigval :     1101.47  1121.60  1121.67  1123.60  1123.74  1143.72
eigval :     1144.88  1153.20  1158.35  1164.14  1179.83  1180.60
eigval :     1180.61  1181.27  1187.15  1187.48  1194.86  1195.48
eigval :     1197.59  1198.24  1212.39  1216.50  1222.00  1228.28
eigval :     1253.31  1268.43  1269.47  1272.70  1276.12  1278.29
eigval :     1279.07  1281.30  1282.04  1298.66  1302.87  1312.10
eigval :     1313.83  1317.15  1317.29  1324.74  1326.22  1326.40
eigval :     1327.42  1330.54  1335.96  1336.20  1337.54  1352.81
eigval :     1386.03  1397.66  1410.87  1411.68  1418.57  1434.40
eigval :     1436.46  1437.04  1442.46  1442.73  1443.44  1466.15
eigval :     1471.29  1472.07  1475.19  1475.73  1479.19  1485.77
eigval :     1498.75  1505.36  1537.10  1544.55  1554.16  1555.69
eigval :     1574.68  1577.95  1578.07  1580.90  1582.09  1582.98
eigval :     1594.37  1594.72  1596.68  1598.01  1602.52  1603.93
eigval :     2367.39  2368.71  3075.94  3076.35  3077.18  3077.49
eigval :     3077.69  3077.71  3078.18  3078.20  3079.01  3079.04
eigval :     3081.18  3081.23  3086.41  3086.56  3087.11  3087.16
eigval :     3089.52  3089.69  3090.36  3090.50  3090.64  3090.73
eigval :     3091.19  3091.46  3093.88  3093.96  3098.58  3098.71
eigval :     3099.34  3099.36  3101.54  3107.42  3107.49  3112.75

   temp. (K)  partition function   enthalpy   heat capacity  entropy
                                   cal/mol     cal/K/mol   cal/K/mol   J/K/mol
 298.15  VIB  0.160E+25            28805.604    176.262    183.496
         ROT  0.262E+09              888.752      2.981     41.500
         INT  0.418E+33            29694.356    179.243    224.996
         TR   0.205E+29             1481.254      4.968     45.770
         TOT                       31175.6098   184.2109   270.7657  1132.8838

       T/K    H(0)-H(T)+PV         H(T)/Eh          T*S/Eh         G(T)/Eh
   ------------------------------------------------------------------------
    298.15    0.496815E-01    0.757298E+00    0.128650E+00    0.628648E+00
   ------------------------------------------------------------------------

         :::::::::::::::::::::::::::::::::::::::::::::::::::::
         ::                  THERMODYNAMIC                  ::
         :::::::::::::::::::::::::::::::::::::::::::::::::::::
         :: total free energy        -149.835228782384 Eh   ::
         ::.................................................::
         :: total energy             -150.463877118514 Eh   ::
         :: zero point energy           0.707616376633 Eh   ::
         :: G(RRHO) w/o ZPVE           -0.078968040503 Eh   ::
         :: G(RRHO) contrib.            0.628648336130 Eh   ::
         :::::::::::::::::::::::::::::::::::::::::::::::::::::

           -------------------------------------------------
          | TOTAL ENERGY             -150.463877118514 Eh   |
          | TOTAL ENTHALPY           -149.706579245296 Eh   |
          | TOTAL FREE ENERGY        -149.835228782384 Eh   |
          | GRADIENT NORM               0.000086737269 Eh/α |
          | HOMO-LUMO GAP               1.217153797677 eV   |
           -------------------------------------------------

 * finished run on 2025/07/17 at 00:48:33.427
