   * xtb version 6.7.1 (edcfbbe) compiled by 'albert@albert-system' on 2024-07-22

   ID    Z sym.   atoms
    1    7 N      1, 4, 14, 38, 57, 60
    2    6 C      2, 3, 5-13, 15-37, 39-56, 58, 59
    3    1 H      61-94

          program call               : xtb data2507/gas/TPA-DCPP/TPA-DCPP_gas_T1_crest.xyz --gfn 2 --spinpol --tblite --uhf 2 --ohess vtight --parallel 40 --molden --ceasefiles --namespace data2507/gas/TPA-DCPP/TPA-DCPP_gas_T1_finalOpt
 * total energy  :  -150.4106686 Eh     change       -0.1459526E-07 Eh
 * total energy  :  -150.4107432 Eh     change       -0.7465354E-04 Eh
 * total energy  :  -150.4107605 Eh     change       -0.1728399E-04 Eh
 * total energy  :  -150.4107610 Eh     change       -0.4676203E-06 Eh
 * total energy  :  -150.4107673 Eh     change       -0.6318760E-05 Eh
 * total energy  :  -150.4107685 Eh     change       -0.1175116E-05 Eh
 * total energy  :  -150.4107699 Eh     change       -0.1477787E-05 Eh
 * total energy  :  -150.4107733 Eh     change       -0.3355821E-05 Eh
 * total energy  :  -150.4107755 Eh     change       -0.2199572E-05 Eh
 * total energy  :  -150.4107778 Eh     change       -0.2288236E-05 Eh
 * total energy  :  -150.4108019 Eh     change       -0.3043228E-06 Eh
 * total energy  :  -150.4108021 Eh     change       -0.2153849E-06 Eh
 * total energy  :  -150.4108023 Eh     change       -0.2228320E-06 Eh
 * total energy  :  -150.4108025 Eh     change       -0.1529455E-06 Eh
 * total energy  :  -150.4108027 Eh     change       -0.1488841E-06 Eh
 * total energy  :  -150.4108028 Eh     change       -0.1086307E-06 Eh
 * total energy  :  -150.4108029 Eh     change       -0.1709553E-06 Eh
 * total energy  :  -150.4108030 Eh     change       -0.3481165E-07 Eh
 * total energy  :  -150.4108030 Eh     change       -0.5904997E-07 Eh
   *** GEOMETRY OPTIMIZATION CONVERGED AFTER 42 ITERATIONS ***

 final structure:
================
94
 xtb: 6.7.1 (edcfbbe)
N            1.92097922173047       10.06635276700993        0.01587179025310
C            1.35801206758061        9.06555538436170        0.01526280195731
C            0.66831079663174        7.83940209226482        0.01471361505271
N            1.34068228139083        6.68974495552630        0.00024418517652
C            0.68145522103109        5.52008990776910        0.00310879793030
C            1.39345634949779        4.28944426561692       -0.01062462609844
C            2.80099118503494        4.30498985549222       -0.02640241927241
C            3.51725387161654        3.14190857218603       -0.03460834072775
C            2.85484334842844        1.90055440891389       -0.03340235232601
C            3.61427578013134        0.64760163950261       -0.04190343179251
C            4.79161533164706        0.51583280538631        0.69582752819986
C            5.49710858996017       -0.66759979884740        0.70635283109355
C            5.05264854466382       -1.76318834705795       -0.03645054409029
N            5.76298882233328       -2.96512039025671       -0.02813042830756
C            7.16139697755986       -2.95126214484599        0.02983371376186
C            7.84714834028063       -3.91124573377338        0.77426206105473
C            9.22723428799537       -3.89493290752193        0.82483839451071
C            9.94315824316807       -2.92359552493142        0.14382203375681
C            9.26628980279476       -1.96609816460655       -0.59432030868943
C            7.88668862025522       -1.97724821265764       -0.65679915955820
C            5.07812517857869       -4.18375933110905       -0.07651111012837
C            5.60176805047515       -5.26100938229506       -0.79214185140706
C            4.92278979337789       -6.46287427439131       -0.83443995505148
C            3.71343847863419       -6.60995334163872       -0.17437873663513
C            3.18778880789079       -5.54252008802075        0.53558397052532
C            3.86232283489395       -4.33870635038685        0.59054199852988
C            3.88309666187556       -1.63422331911985       -0.78819924246673
C            3.17724748408662       -0.45138847652418       -0.78341121031528
C            1.47211273061483        1.88006454688688       -0.01909824575284
C            0.70548279542615        3.05059236075479       -0.00586231617986
C           -0.73603440327125        3.04439088416538        0.01645303808204
C           -1.49264426825637        1.86734997902489        0.02369759340932
C           -2.87549836592725        1.87597066174231        0.03763023063348
C           -3.62359778499785        0.61620734434102        0.04185868332143
C           -3.17721121727218       -0.47992917466332        0.78200320337566
C           -3.87173329776522       -1.66938516844748        0.78355897418077
C           -5.03868775723643       -1.80826660778805        0.02947475444357
N           -5.73665987858443       -3.01726134600397        0.01755723437422
C           -7.13490585226287       -3.01874221359570       -0.04512286930144
C           -7.87354831641153       -2.05298843743721        0.63892070505271
C           -9.25298232268581       -2.05770316416603        0.57190075924670
C           -9.91641173623207       -3.02304115471536       -0.16822618040685
C           -9.18717514463833       -3.98621292932040       -0.84671331962500
C           -7.80717896316131       -3.98665088004564       -0.79160716174185
C           -5.03924449621825       -4.22877948528979        0.06894728598033
C           -5.55303242709436       -5.31023381285392        0.78531807750884
C           -4.86148307457220       -6.50478549704332        0.83114283350626
C           -3.64931143935397       -6.64020894669764        0.17377171574847
C           -3.13356581873188       -5.56859043897843       -0.53715106202051
C           -3.82063786867531       -4.37204260297781       -0.59554069667705
C           -5.49253738281558       -0.71550325799478       -0.71185755435949
C           -4.79857799379327        0.47474584925648       -0.69775390009704
C           -3.54862547643272        3.11148663994337        0.04369867888430
C           -2.84230216662280        4.28067905812001        0.04212863921950
C           -1.43465202739982        4.27724047850182        0.02783437838008
C           -0.73318073476112        5.51396473865289        0.02280341176113
N           -1.40237485283000        6.67794345871228        0.03439277997909
C           -0.73992510123190        7.83327420730237        0.02911363005618
C           -1.44030018069260        9.05340184116655        0.03879155761041
N           -2.01175547508012       10.04932765183452        0.04696309356561
H            3.29520791079087        5.26466473882811       -0.03506040108956
H            4.59597347752566        3.17006021869284       -0.06726032708466
H            5.13877712878641        1.34271211109998        1.29714135173305
H            6.39389924964133       -0.75866164067502        1.30144335427728
H            7.28981611697267       -4.66184703962428        1.31531950972335
H            9.74684091748660       -4.64112444942372        1.40734324963553
H           11.02136670033407       -2.91291503521745        0.18800763610710
H            9.81690084734780       -1.20933485953098       -1.13299659710785
H            7.36069793242830       -1.23788442096703       -1.24273755127891
H            6.53814310008635       -5.14472472231274       -1.31771070296218
H            5.33716783443712       -7.28805682552332       -1.39432181528863
H            3.18492874270054       -7.55017082012578       -0.21233406785172
H            2.24921177923368       -5.65039098780532        1.05894949151827
H            3.45783388176207       -3.51222262323812        1.15621162324158
H            3.54077982492492       -2.46767554788089       -1.38408696304709
H            2.28892628407552       -0.36485058347185       -1.39150829014931
H            0.98067658396146        0.92057032915610        0.00743557334736
H           -0.99310994038329        0.91217673088599       -0.00716726667363
H           -2.29069048981189       -0.38593903932881        1.39161645524499
H           -3.52245701828214       -2.50049883490550        1.37865537125935
H           -7.35803103691494       -1.30761675629570        1.22654875243478
H           -9.81401260611852       -1.30724335894956        1.10864126303154
H          -10.99452293934097       -3.02478129014883       -0.21587941895147
H           -9.69626545773570       -4.73847848001098       -1.43068813962291
H           -7.23947857613744       -4.73095313976330       -1.33058588813281
H           -6.49166187064791       -5.20284782610967        1.30875907245285
H           -5.26821466976547       -7.33329068437240        1.39171721806203
H           -3.11091623817292       -7.57467995278646        0.21457036410914
H           -2.19284732327134       -5.66748766426450       -1.05843653506061
H           -3.42374607943995       -3.54225014094028       -1.16175149803896
H           -6.38739119420220       -0.81401208482555       -1.30867469074216
H           -5.15288398995014        1.29960019858456       -1.29770292772869
H           -4.62759103072471        3.13013307728955        0.07513659386022
H           -3.34468461727376        5.23605057183694        0.05524597137771

 projected vibrational frequencies (cm⁻¹)
eigval :       -0.00    -0.00     0.00     0.00     0.00     0.00
eigval :        7.90     8.19     9.25    15.13    19.24    21.43
eigval :       33.40    37.90    40.47    46.40    48.95    52.83
eigval :       53.94    62.28    63.82    71.81    74.24    75.69
eigval :       92.92    95.36    97.17   100.16   107.37   112.80
eigval :      137.30   148.08   150.77   154.30   162.02   192.83
eigval :      207.34   209.16   224.84   230.48   233.49   241.74
eigval :      257.37   264.46   298.69   298.80   313.12   316.82
eigval :      330.90   333.48   340.08   343.10   375.02   376.30
eigval :      377.99   378.02   379.65   381.25   384.66   385.44
eigval :      390.47   393.06   400.42   412.49   414.32   432.39
eigval :      433.84   449.28   462.45   472.30   475.02   488.22
eigval :      493.19   496.45   503.41   515.19   518.07   530.54
eigval :      543.85   561.84   578.54   583.30   584.41   585.74
eigval :      589.78   593.45   593.73   598.51   601.71   602.46
eigval :      613.38   614.93   628.92   633.50   642.37   642.91
eigval :      659.49   659.80   663.65   667.06   678.07   688.45
eigval :      690.67   696.11   701.78   720.19   722.47   755.80
eigval :      757.27   757.36   760.04   764.51   767.86   808.95
eigval :      809.20   832.78   833.80   856.44   865.53   866.73
eigval :      870.20   873.36   873.63   874.17   874.92   875.84
eigval :      894.05   894.19   894.96   895.77   905.75   909.93
eigval :      909.93   915.83   916.00   920.07   920.25   924.68
eigval :      927.17   928.00   928.04   928.28   928.46   929.43
eigval :      929.58   929.88   930.14   930.65   930.76   978.72
eigval :      984.74   988.17  1004.41  1004.44  1009.62  1018.58
eigval :     1037.53  1061.26  1079.67  1082.42  1082.45  1083.35
eigval :     1083.37  1098.24  1121.76  1121.78  1124.02  1124.06
eigval :     1129.75  1142.77  1143.12  1158.50  1160.14  1179.88
eigval :     1180.14  1180.15  1180.65  1185.03  1185.65  1194.24
eigval :     1194.51  1195.86  1196.20  1210.32  1216.35  1219.89
eigval :     1221.01  1252.05  1260.36  1267.28  1271.77  1274.42
eigval :     1277.45  1277.82  1277.85  1281.16  1287.56  1297.17
eigval :     1310.30  1311.44  1316.41  1316.78  1321.10  1321.95
eigval :     1322.18  1325.82  1326.99  1327.09  1329.72  1335.42
eigval :     1356.23  1370.88  1392.95  1404.52  1405.57  1413.51
eigval :     1415.54  1434.93  1435.31  1441.73  1441.92  1446.80
eigval :     1458.44  1464.35  1467.26  1467.82  1469.62  1470.06
eigval :     1490.19  1494.18  1507.47  1527.40  1550.71  1550.76
eigval :     1569.49  1574.12  1574.39  1574.86  1578.36  1578.53
eigval :     1589.40  1589.58  1591.46  1592.32  1598.68  1599.06
eigval :     2313.62  2341.97  3078.09  3078.23  3079.06  3079.11
eigval :     3079.65  3079.66  3080.33  3080.35  3080.70  3080.73
eigval :     3081.88  3081.92  3085.31  3085.37  3088.27  3088.32
eigval :     3089.02  3089.03  3090.27  3090.54  3091.62  3091.81
eigval :     3092.37  3092.42  3093.90  3093.97  3096.13  3097.87
eigval :     3098.07  3099.57  3099.93  3100.86  3101.04  3107.17

   temp. (K)  partition function   enthalpy   heat capacity  entropy
                                   cal/mol     cal/K/mol   cal/K/mol   J/K/mol
 298.15  VIB  0.113E+25            28969.603    177.746    184.091
         ROT  0.132E+09              888.752      2.981     40.135
         INT  0.149E+33            29858.355    180.727    224.226
         TR   0.205E+29             1481.254      4.968     45.770
         TOT                       31339.6093   185.6955   269.9957  1129.6619

       T/K    H(0)-H(T)+PV         H(T)/Eh          T*S/Eh         G(T)/Eh
   ------------------------------------------------------------------------
    298.15    0.499428E-01    0.754393E+00    0.128284E+00    0.626109E+00
   ------------------------------------------------------------------------

         :::::::::::::::::::::::::::::::::::::::::::::::::::::
         ::                  THERMODYNAMIC                  ::
         :::::::::::::::::::::::::::::::::::::::::::::::::::::
         :: total free energy        -149.784693624388 Eh   ::
         ::.................................................::
         :: total energy             -150.410802973501 Eh   ::
         :: zero point energy           0.704450155780 Eh   ::
         :: G(RRHO) w/o ZPVE           -0.078340806667 Eh   ::
         :: G(RRHO) contrib.            0.626109349113 Eh   ::
         :::::::::::::::::::::::::::::::::::::::::::::::::::::

           -------------------------------------------------
          | TOTAL ENERGY             -150.410802973501 Eh   |
          | TOTAL ENTHALPY           -149.656409971313 Eh   |
          | TOTAL FREE ENERGY        -149.784693624388 Eh   |
          | GRADIENT NORM               0.000106103125 Eh/α |
           -------------------------------------------------

 * finished run on 2025/07/17 at 01:19:22.474
