   * xtb version 6.7.1 (edcfbbe) compiled by 'albert@albert-system' on 2024-07-22

   ID    Z sym.   atoms
    1    8 O      1, 3, 18, 19
    2   16 S      2, 17
    3    6 C      4-9, 11-16, 20-25
    4    7 N      10
    5    1 H      26-36

          program call               : xtb data2507/toluene/BTPO/BTPO.xyz --gfn 2 --gbsa toluene --ohess vtight --parallel 40 --molden --ceasefiles --namespace data2507/toluene/BTPO/BTPO_toluene_S0_preOpt
      * Solvation model:               GBSA
        Solvent                        toluene
        Solvent mass                       9.2140E+01 g/mol
          :  Hamiltonian                  GFN2-xTB          :
 * total energy  :   -69.8253339 Eh     change       -0.2409593E-09 Eh
 * total energy  :   -69.8358734 Eh     change       -0.1053953E-01 Eh
 * total energy  :   -69.8406505 Eh     change       -0.4777109E-02 Eh
 * total energy  :   -69.8417332 Eh     change       -0.1082669E-02 Eh
 * total energy  :   -69.8424496 Eh     change       -0.7164221E-03 Eh
 * total energy  :   -69.8428035 Eh     change       -0.3538948E-03 Eh
 * total energy  :   -69.8430118 Eh     change       -0.2083115E-03 Eh
 * total energy  :   -69.8431932 Eh     change       -0.1814492E-03 Eh
 * total energy  :   -69.8433847 Eh     change       -0.1914605E-03 Eh
 * total energy  :   -69.8435650 Eh     change       -0.1802833E-03 Eh
 * total energy  :   -69.8440713 Eh     change       -0.4681121E-05 Eh
 * total energy  :   -69.8440756 Eh     change       -0.4339679E-05 Eh
 * total energy  :   -69.8440770 Eh     change       -0.1384252E-05 Eh
 * total energy  :   -69.8440779 Eh     change       -0.8588601E-06 Eh
 * total energy  :   -69.8440779 Eh     change       -0.4043416E-07 Eh
 * total energy  :   -69.8440782 Eh     change       -0.3059010E-06 Eh
 * total energy  :   -69.8440785 Eh     change       -0.2910184E-06 Eh
 * total energy  :   -69.8440786 Eh     change       -0.4923787E-07 Eh
 * total energy  :   -69.8440786 Eh     change       -0.7124203E-07 Eh
   *** GEOMETRY OPTIMIZATION CONVERGED AFTER 26 ITERATIONS ***

 final structure:
================
36
 xtb: 6.7.1 (edcfbbe)
O            1.95034300314860       -0.69628092955724       -2.58511794632970
S            2.39405886807391       -1.08400029108510       -1.26431471644296
O            3.64108133568241       -1.80403187710672       -1.18908169601409
C            2.41875426206265        0.35913200344397       -0.22793722657492
C            3.59780249958183        1.01253129803808        0.08110571557363
C            3.56083017642382        2.16335363104607        0.84709325305871
C            2.33795013241650        2.64181663091584        1.30032600189948
C            1.16297906833947        1.97668434227458        1.00787776829415
C            1.18806798714546        0.81513199255894        0.23089960540833
N            0.00000149494635        0.10458076132866        0.00000701546267
C           -1.18803844315900        0.81517473142515       -0.23089289291909
C           -1.16290569503431        1.97672497865591       -1.00787260079796
C           -2.33785268889786        2.64189658653740       -1.30032836564384
C           -3.56075145180428        2.16347585485336       -0.84710173399569
C           -3.59776713501699        1.01265626369338       -0.08111212285520
C           -2.41874272062813        0.35921771854505        0.22793836396423
S           -2.39410048727903       -1.08391554168609        1.26431621831934
O           -1.95037177386317       -0.69621270830979        2.58511958922571
O           -3.64114887569924       -1.80390254108764        1.18908194532848
C           -1.07727300869870       -2.01661986780227        0.50353689571902
C           -1.09054727751489       -3.39701216002477        0.48807946042389
C           -0.00007324707350       -4.10091615309970        0.00000279159439
C            1.09042449342381       -3.39705068500777       -0.48807631941690
C            1.07719851547238       -2.01665779364490       -0.50353584301114
C           -0.00002435096806       -1.28388479594355        0.00000030679516
H            4.52114760872108        0.59977086483384       -0.29366544379985
H            4.47372957272456        2.68362992803822        1.08842766183561
H            2.30061747345622        3.53613058401834        1.90279526898504
H            0.22022250977017        2.33620632636576        1.38994375606199
H           -0.22013513777652        2.33621444490309       -1.38993459757723
H           -2.30048635774504        3.53620737171228       -1.90280021536249
H           -4.47363197267990        2.68378185624163       -1.08844348123419
H           -4.52112830725325        0.59992739691403        0.29365418350950
H           -1.96251055359676       -3.89762243922764        0.87943719918266
H           -0.00009159254323       -5.17844774118959        0.00000381604848
H            1.96237007584263       -3.89769204157180       -0.87943361471497

          :  Hamiltonian                  GFN2-xTB          :
         :: gradient norm              0.000088858052 Eh/a0 ::
         :: HOMO-LUMO gap              3.062544256188 eV    ::
         :: SCC energy               -70.832993152798 Eh    ::
         :: -> dispersion             -0.057236378884 Eh    ::
         :: -> Gsolv                  -0.038483948952 Eh    ::
         :: repulsion energy           0.988914522025 Eh    ::

    * Orbital Energies and Occupations

         #    Occupation            Energy/Eh            Energy/eV
      -------------------------------------------------------------
         1        2.0000           -0.7898486             -21.4929
       ...           ...                  ...                  ...
        50        2.0000           -0.4599547             -12.5160
        51        2.0000           -0.4593788             -12.5003
        52        2.0000           -0.4564966             -12.4219
        53        2.0000           -0.4548341             -12.3767
        54        2.0000           -0.4497819             -12.2392
        55        2.0000           -0.4482546             -12.1976
        56        2.0000           -0.4466375             -12.1536
        57        2.0000           -0.4434596             -12.0671
        58        2.0000           -0.4415769             -12.0159
        59        2.0000           -0.4398775             -11.9697
        60        2.0000           -0.4256847             -11.5835
        61        2.0000           -0.4191970             -11.4069
        62        2.0000           -0.3968190             -10.7980 (HOMO)
        63                         -0.2842724              -7.7354 (LUMO)
        64                         -0.2729940              -7.4285
        65                         -0.2693733              -7.3300
        66                         -0.2635647              -7.1720
        67                         -0.2617555              -7.1227
        68                         -0.2402407              -6.5373
        69                         -0.1627073              -4.4275
        70                         -0.1490762              -4.0566
        71                         -0.1403882              -3.8202
        72                         -0.1376431              -3.7455
        73                         -0.1205551              -3.2805
       ...                                ...                  ...
       121                          1.1799819              32.1089
      -------------------------------------------------------------
                  HL-Gap            0.1125465 Eh            3.0625 eV

     #   Z          covCN         q      C6AA      α(0)
     1   8 O        0.860    -0.575    25.500     6.770
     2  16 S        3.846     0.975   107.356    17.439
     3   8 O        0.860    -0.561    25.173     6.727
     4   6 C        2.973    -0.095    30.379     9.041
     5   6 C        2.950    -0.018    28.465     8.751
     6   6 C        2.920    -0.024    28.600     8.770
     7   6 C        2.919    -0.017    28.443     8.746
     8   6 C        2.924    -0.037    28.930     8.821
     9   6 C        2.983     0.059    26.663     8.470
    10   7 N        2.752    -0.062    22.435     7.035
    11   6 C        2.983     0.059    26.663     8.470
    12   6 C        2.924    -0.037    28.930     8.821
    13   6 C        2.919    -0.017    28.443     8.746
    14   6 C        2.920    -0.024    28.600     8.770
    15   6 C        2.950    -0.018    28.465     8.751
    16   6 C        2.973    -0.095    30.379     9.041
    17  16 S        3.846     0.975   107.356    17.439
    18   8 O        0.860    -0.575    25.500     6.770
    19   8 O        0.860    -0.561    25.173     6.727
    20   6 C        2.975    -0.096    30.410     9.046
    21   6 C        2.950    -0.015    28.387     8.739
    22   6 C        2.920    -0.022    28.565     8.764
    23   6 C        2.950    -0.015    28.387     8.739
    24   6 C        2.975    -0.096    30.410     9.046
    25   6 C        3.025     0.059    26.661     8.470
    26   1 H        0.926     0.067     2.122     2.278
    27   1 H        0.926     0.076     2.018     2.221
    28   1 H        0.926     0.079     1.992     2.207
    29   1 H        0.926     0.069     2.099     2.266
    30   1 H        0.926     0.069     2.099     2.266
    31   1 H        0.926     0.079     1.992     2.207
    32   1 H        0.926     0.076     2.018     2.221
    33   1 H        0.926     0.067     2.122     2.278
    34   1 H        0.926     0.081     1.968     2.194
    35   1 H        0.926     0.089     1.884     2.147
    36   1 H        0.926     0.081     1.968     2.194

molecular dipole:
                 x           y           z       tot (Debye)
 q only:        0.000       2.135      -0.000
   full:        0.000       1.877      -0.000       4.772

 projected vibrational frequencies (cm⁻¹)
eigval :       -0.00    -0.00    -0.00    -0.00     0.00     0.00
eigval :       38.27    41.16    60.30    92.44    93.77   112.78
eigval :      127.41   148.92   190.56   192.92   223.40   227.75
eigval :      234.36   265.92   277.52   278.54   307.97   312.43
eigval :      361.80   379.60   400.00   403.73   445.27   452.34
eigval :      452.43   473.87   481.40   503.09   505.22   518.08
eigval :      537.41   538.22   544.22   601.40   619.89   668.64
eigval :      670.74   681.17   691.42   701.37   728.46   773.70
eigval :      781.88   784.82   803.86   884.25   886.72   907.55
eigval :      909.22   911.79   915.42   916.70   917.82   928.11
eigval :      929.43  1019.37  1049.71  1076.78  1080.01  1080.18
eigval :     1093.64  1095.95  1125.44  1152.47  1155.20  1155.27
eigval :     1165.94  1166.95  1176.65  1198.14  1204.80  1212.20
eigval :     1224.26  1226.74  1292.16  1305.61  1312.95  1319.55
eigval :     1321.01  1407.55  1414.05  1415.98  1437.84  1443.86
eigval :     1451.31  1537.81  1557.30  1561.14  1578.26  1584.30
eigval :     1592.36  3095.41  3096.10  3101.56  3101.86  3102.06
eigval :     3104.19  3105.66  3106.87  3113.21  3113.30  3115.84

   temp. (K)  partition function   enthalpy   heat capacity  entropy
                                   cal/mol     cal/K/mol   cal/K/mol   J/K/mol
 298.15  VIB  0.427E+07            10754.377     72.164     63.785
         ROT  0.455E+07              888.752      2.981     33.446
         INT  0.194E+14            11643.129     75.145     97.230
         TR   0.687E+28             1481.254      4.968     43.593
         TOT                       13124.3832    80.1132   140.8238   589.2068

       T/K    H(0)-H(T)+PV         H(T)/Eh          T*S/Eh         G(T)/Eh
   ------------------------------------------------------------------------
    298.15    0.209150E-01    0.267381E+00    0.669099E-01    0.200472E+00
   ------------------------------------------------------------------------

         :::::::::::::::::::::::::::::::::::::::::::::::::::::
         ::                  THERMODYNAMIC                  ::
         :::::::::::::::::::::::::::::::::::::::::::::::::::::
         :: total free energy         -69.643607070314 Eh   ::
         ::.................................................::
         :: total energy              -69.844078629664 Eh   ::
         :: zero point energy           0.246466456513 Eh   ::
         :: G(RRHO) w/o ZPVE           -0.045994897163 Eh   ::
         :: G(RRHO) contrib.            0.200471559350 Eh   ::
         :::::::::::::::::::::::::::::::::::::::::::::::::::::

           -------------------------------------------------
          | TOTAL ENERGY              -69.844078629664 Eh   |
          | TOTAL ENTHALPY            -69.576697137228 Eh   |
          | TOTAL FREE ENERGY         -69.643607070314 Eh   |
          | GRADIENT NORM               0.000088923575 Eh/α |
          | HOMO-LUMO GAP               3.062546909766 eV   |
           -------------------------------------------------

 * finished run on 2025/09/05 at 00:24:29.559
