   * xtb version 6.7.1 (edcfbbe) compiled by 'albert@albert-system' on 2024-07-22

   ID    Z sym.   atoms
    1    8 O      1, 3, 18, 19
    2   16 S      2, 17
    3    6 C      4-9, 11-16, 20-25
    4    7 N      10
    5    1 H      26-36

          program call               : xtb data2507/toluene/BTPO/BTPO_toluene_S0_crest.xyz --gfn 2 --gbsa toluene --ohess vtight --parallel 40 --molden --ceasefiles --namespace data2507/toluene/BTPO/BTPO_toluene_S0_finalOpt
      * Solvation model:               GBSA
        Solvent                        toluene
        Solvent mass                       9.2140E+01 g/mol
          :  Hamiltonian                  GFN2-xTB          :
 * total energy  :   -69.8438194 Eh     change       -0.9818280E-10 Eh
 * total energy  :   -69.8439533 Eh     change       -0.1338152E-03 Eh
 * total energy  :   -69.8440365 Eh     change       -0.8324832E-04 Eh
 * total energy  :   -69.8440455 Eh     change       -0.8970859E-05 Eh
 * total energy  :   -69.8440546 Eh     change       -0.9138579E-05 Eh
 * total energy  :   -69.8440571 Eh     change       -0.2468691E-05 Eh
 * total energy  :   -69.8440581 Eh     change       -0.1068543E-05 Eh
 * total energy  :   -69.8440592 Eh     change       -0.1055015E-05 Eh
 * total energy  :   -69.8440603 Eh     change       -0.1137270E-05 Eh
 * total energy  :   -69.8440610 Eh     change       -0.6297378E-06 Eh
 * total energy  :   -69.8440612 Eh     change       -0.2382858E-06 Eh
 * total energy  :   -69.8440613 Eh     change       -0.1236536E-06 Eh
 * total energy  :   -69.8440614 Eh     change       -0.3115110E-07 Eh
 * total energy  :   -69.8440615 Eh     change       -0.1467648E-06 Eh
 * total energy  :   -69.8440617 Eh     change       -0.1652136E-06 Eh
 * total energy  :   -69.8440617 Eh     change       -0.4395116E-07 Eh
   *** GEOMETRY OPTIMIZATION CONVERGED AFTER 16 ITERATIONS ***

 final structure:
================
36
 xtb: 6.7.1 (edcfbbe)
O            2.44071410610693       -0.36689669225311       -2.13047572963454
S            2.60322818890867       -0.75510271892761       -0.74684866735462
O            3.80865382772358       -1.47421262662668       -0.41654355447223
C            2.41320953839179        0.68848294506495        0.27138036797913
C            3.50377997135314        1.34583095424967        0.81102019146834
C            3.31024146789735        2.49999169046594        1.54781017948361
C            2.01984039965660        2.97593828646792        1.74310880646467
C            0.92986731375667        2.30610813206966        1.22166900667920
C            1.11419695924982        1.14291263709534        0.46886143050904
N           -0.00103897362313        0.43064728996840        0.00095778427036
C           -1.11797564104520        1.14029639720727       -0.46683838980925
C           -0.93650222397399        2.30448053530803       -1.21881140844926
C           -2.02806738191189        2.97161258096502       -1.74037489948970
C           -3.31723419127112        2.49192444728422       -1.54609364982510
C           -3.50794900161745        1.33682325372438       -0.81004023790081
C           -2.41583720728745        0.68221578855148       -0.27018563828097
S           -2.60238091575049       -0.76228508923579        0.74738449773861
O           -2.44130540296975       -0.37419359841570        2.13121151941576
O           -3.80582212033136       -1.48441934101526        0.41644467850467
C           -1.15549472315573       -1.69241286632046        0.27357236644868
C           -1.16335151816415       -3.07282518570933        0.25601402512172
C            0.00444361444855       -3.77517651668142       -0.00028049316293
C            1.17038816073512       -3.06963523286337       -0.25624130896795
C            1.15891891062346       -1.68923748831862       -0.27304582328505
C            0.00076484000046       -0.95790709050790        0.00051168148789
H            4.48463341077858        0.93389575663808        0.63331807218796
H            4.15441351081495        3.02401001165426        1.96618002749267
H            1.85944984283296        3.87234000382290        2.32179245578666
H           -0.07150108821337        2.66404909326899        1.40376767477782
H            0.06395040901451        2.66529498806529       -1.40025848834462
H           -1.86986159368345        3.86882631291552       -2.31840052075259
H           -4.16264408862124        3.01380425703590       -1.96463575884315
H           -4.48774877348340        0.92207355866662       -0.63306616178242
H           -2.09621618209724       -3.57464871385434        0.46104143522965
H            0.00584743401237       -4.85275291767230       -0.00053171604056
H            2.10455742569491       -3.56890232178790       -0.46158557285070

          :  Hamiltonian                  GFN2-xTB          :
         :: gradient norm              0.000040614385 Eh/a0 ::
         :: HOMO-LUMO gap              3.062388375931 eV    ::
         :: SCC energy               -70.832935267398 Eh    ::
         :: -> dispersion             -0.057234787280 Eh    ::
         :: -> Gsolv                  -0.038469480635 Eh    ::
         :: repulsion energy           0.988873547628 Eh    ::

    * Orbital Energies and Occupations

         #    Occupation            Energy/Eh            Energy/eV
      -------------------------------------------------------------
         1        2.0000           -0.7898580             -21.4931
       ...           ...                  ...                  ...
        50        2.0000           -0.4599450             -12.5157
        51        2.0000           -0.4593864             -12.5005
        52        2.0000           -0.4565088             -12.4222
        53        2.0000           -0.4548425             -12.3769
        54        2.0000           -0.4497999             -12.2397
        55        2.0000           -0.4482419             -12.1973
        56        2.0000           -0.4466742             -12.1546
        57        2.0000           -0.4434676             -12.0674
        58        2.0000           -0.4415690             -12.0157
        59        2.0000           -0.4398398             -11.9687
        60        2.0000           -0.4256765             -11.5832
        61        2.0000           -0.4192065             -11.4072
        62        2.0000           -0.3968064             -10.7977 (HOMO)
        63                         -0.2842656              -7.7353 (LUMO)
        64                         -0.2730468              -7.4300
        65                         -0.2693754              -7.3301
        66                         -0.2635337              -7.1711
        67                         -0.2617943              -7.1238
        68                         -0.2401380              -6.5345
        69                         -0.1626776              -4.4267
        70                         -0.1490737              -4.0565
        71                         -0.1404235              -3.8211
        72                         -0.1375660              -3.7434
        73                         -0.1205061              -3.2791
       ...                                ...                  ...
       121                          1.1799523              32.1081
      -------------------------------------------------------------
                  HL-Gap            0.1125408 Eh            3.0624 eV

     #   Z          covCN         q      C6AA      α(0)
     1   8 O        0.860    -0.575    25.500     6.770
     2  16 S        3.846     0.976   107.355    17.439
     3   8 O        0.860    -0.561    25.174     6.727
     4   6 C        2.973    -0.095    30.378     9.041
     5   6 C        2.950    -0.018    28.465     8.751
     6   6 C        2.920    -0.024    28.600     8.770
     7   6 C        2.919    -0.017    28.443     8.746
     8   6 C        2.924    -0.037    28.931     8.821
     9   6 C        2.982     0.059    26.664     8.470
    10   7 N        2.752    -0.062    22.434     7.035
    11   6 C        2.982     0.059    26.664     8.470
    12   6 C        2.924    -0.037    28.932     8.821
    13   6 C        2.919    -0.017    28.444     8.746
    14   6 C        2.920    -0.024    28.600     8.770
    15   6 C        2.950    -0.018    28.465     8.751
    16   6 C        2.973    -0.095    30.379     9.041
    17  16 S        3.846     0.976   107.356    17.439
    18   8 O        0.860    -0.575    25.500     6.770
    19   8 O        0.860    -0.561    25.174     6.727
    20   6 C        2.975    -0.096    30.409     9.046
    21   6 C        2.950    -0.015    28.387     8.739
    22   6 C        2.920    -0.022    28.564     8.764
    23   6 C        2.950    -0.015    28.387     8.739
    24   6 C        2.975    -0.096    30.410     9.046
    25   6 C        3.025     0.059    26.662     8.470
    26   1 H        0.926     0.067     2.122     2.278
    27   1 H        0.926     0.076     2.018     2.221
    28   1 H        0.926     0.079     1.992     2.207
    29   1 H        0.926     0.069     2.099     2.265
    30   1 H        0.926     0.069     2.099     2.265
    31   1 H        0.926     0.079     1.992     2.207
    32   1 H        0.926     0.076     2.018     2.221
    33   1 H        0.926     0.067     2.122     2.278
    34   1 H        0.926     0.081     1.968     2.194
    35   1 H        0.926     0.089     1.884     2.147
    36   1 H        0.926     0.081     1.968     2.194

molecular dipole:
                 x           y           z       tot (Debye)
 q only:       -0.002       2.140       0.001
   full:       -0.002       1.881       0.001       4.781

 projected vibrational frequencies (cm⁻¹)
eigval :       -0.00    -0.00    -0.00    -0.00     0.00     0.00
eigval :       33.26    38.29    59.77    86.65    94.95   108.07
eigval :      130.36   149.38   189.65   194.27   223.96   228.08
eigval :      235.22   263.38   278.24   278.38   306.32   311.52
eigval :      362.34   379.56   399.68   404.26   444.65   451.02
eigval :      451.12   473.93   482.13   502.42   505.46   518.89
eigval :      537.39   538.46   543.99   600.65   620.11   666.89
eigval :      670.04   682.69   692.05   701.31   728.34   773.08
eigval :      779.10   782.17   804.71   882.53   885.22   907.94
eigval :      909.17   911.48   915.64   916.93   917.04   925.62
eigval :      927.19  1019.56  1049.92  1076.95  1080.61  1080.68
eigval :     1093.72  1096.25  1125.72  1152.15  1153.40  1154.99
eigval :     1166.62  1167.41  1177.16  1198.19  1204.81  1212.32
eigval :     1224.68  1227.10  1292.05  1305.74  1312.64  1319.21
eigval :     1320.74  1407.19  1413.35  1415.76  1437.87  1443.75
eigval :     1451.23  1537.89  1556.95  1560.91  1578.41  1584.04
eigval :     1592.30  3095.85  3096.50  3101.42  3102.42  3102.74
eigval :     3103.51  3106.31  3107.51  3113.53  3113.62  3115.92

   temp. (K)  partition function   enthalpy   heat capacity  entropy
                                   cal/mol     cal/K/mol   cal/K/mol   J/K/mol
 298.15  VIB  0.555E+07            10777.635     72.020     63.953
         ROT  0.455E+07              888.752      2.981     33.446
         INT  0.252E+14            11666.387     75.001     97.400
         TR   0.687E+28             1481.254      4.968     43.593
         TOT                       13147.6412    79.9687   140.9931   589.9152

       T/K    H(0)-H(T)+PV         H(T)/Eh          T*S/Eh         G(T)/Eh
   ------------------------------------------------------------------------
    298.15    0.209521E-01    0.267351E+00    0.669904E-01    0.200361E+00
   ------------------------------------------------------------------------

         :::::::::::::::::::::::::::::::::::::::::::::::::::::
         ::                  THERMODYNAMIC                  ::
         :::::::::::::::::::::::::::::::::::::::::::::::::::::
         :: total free energy         -69.643701198758 Eh   ::
         ::.................................................::
         :: total energy              -69.844061717738 Eh   ::
         :: zero point energy           0.246398802350 Eh   ::
         :: G(RRHO) w/o ZPVE           -0.046038283370 Eh   ::
         :: G(RRHO) contrib.            0.200360518980 Eh   ::
         :::::::::::::::::::::::::::::::::::::::::::::::::::::

           -------------------------------------------------
          | TOTAL ENERGY              -69.844061717738 Eh   |
          | TOTAL ENTHALPY            -69.576710815532 Eh   |
          | TOTAL FREE ENERGY         -69.643701198758 Eh   |
          | GRADIENT NORM               0.000040479128 Eh/α |
          | HOMO-LUMO GAP               3.062389787485 eV   |
           -------------------------------------------------

 * finished run on 2025/09/05 at 00:25:43.049
