   * xtb version 6.7.1 (edcfbbe) compiled by 'albert@albert-system' on 2024-07-22

   ID    Z sym.   atoms
    1    8 O      1, 3, 18, 19
    2   16 S      2, 17
    3    6 C      4-9, 11-16, 20-25
    4    7 N      10
    5    1 H      26-36

          program call               : xtb data2507/toluene/BTPO/BTPO_toluene_T1_crest.xyz --gfn 2 --uhf 2 --gbsa toluene --ohess vtight --parallel 40 --molden --ceasefiles --namespace data2507/toluene/BTPO/BTPO_toluene_T1_finalOpt
      * Solvation model:               GBSA
        Solvent                        toluene
        Solvent mass                       9.2140E+01 g/mol
          :  Hamiltonian                  GFN2-xTB          :
 * total energy  :   -69.7261966 Eh     change       -0.1290744E-08 Eh
 * total energy  :   -69.7263481 Eh     change       -0.1515323E-03 Eh
 * total energy  :   -69.7264644 Eh     change       -0.1163172E-03 Eh
 * total energy  :   -69.7264806 Eh     change       -0.1619825E-04 Eh
 * total energy  :   -69.7264991 Eh     change       -0.1847469E-04 Eh
 * total energy  :   -69.7265041 Eh     change       -0.4987848E-05 Eh
 * total energy  :   -69.7265086 Eh     change       -0.4524969E-05 Eh
 * total energy  :   -69.7265109 Eh     change       -0.2262535E-05 Eh
 * total energy  :   -69.7265137 Eh     change       -0.2825274E-05 Eh
 * total energy  :   -69.7265145 Eh     change       -0.8473445E-06 Eh
 * total energy  :   -69.7265151 Eh     change       -0.5758765E-06 Eh
 * total energy  :   -69.7265157 Eh     change       -0.6095061E-06 Eh
 * total energy  :   -69.7265161 Eh     change       -0.4108874E-06 Eh
 * total energy  :   -69.7265163 Eh     change       -0.2039977E-06 Eh
 * total energy  :   -69.7265165 Eh     change       -0.1118698E-06 Eh
 * total energy  :   -69.7265165 Eh     change       -0.7029116E-07 Eh
   *** GEOMETRY OPTIMIZATION CONVERGED AFTER 16 ITERATIONS ***

 final structure:
================
36
 xtb: 6.7.1 (edcfbbe)
O            2.31875554082248       -0.22955703930805       -2.15734983602013
S            2.57592753335355       -0.70714636141382       -0.81191018623967
O            3.81661374799236       -1.41293293520134       -0.60182250878077
C            2.41077752341089        0.64546783570716        0.30871557878255
C            3.48139027530677        1.29637228254421        0.89157760034371
C            3.27412810854991        2.43137911443915        1.65555536056024
C            1.96934991185285        2.92710844892867        1.83167759026330
C            0.89480476176731        2.28678516299893        1.25907531290788
C            1.08649550060056        1.12674729820018        0.48747261921784
N           -0.00265582554709        0.42889353395777       -0.00681748085572
C           -1.09441077771006        1.12944955932239       -0.46356375220216
C           -0.92856183131839        2.35651328209686       -1.14126006161431
C           -2.00902027299154        3.00286707794830       -1.68605766495944
C           -3.30575178057256        2.45637940653388       -1.57377329973399
C           -3.49165465461860        1.26466663685455       -0.89332024796460
C           -2.41469228052008        0.59973426686217       -0.34406141326093
S           -2.58579561716487       -0.78119103726267        0.74093627981030
O           -2.42420206696344       -0.32211546916066        2.10709858811907
O           -3.78495844772023       -1.52753484258003        0.44901112828571
C           -1.13490437176713       -1.70233291298722        0.29481688048301
C           -1.11846765556405       -3.09878175101382        0.31043213057586
C            0.07442714929391       -3.77561109834304        0.06355928507632
C            1.22682062533033       -3.06993448320076       -0.22276933823881
C            1.19257603467198       -1.66997547550338       -0.28186773652029
C            0.01052831797919       -0.97111395632304       -0.00143131603771
H            4.46961484121623        0.90169379139495        0.71343634234795
H            4.10876656087660        2.93874558995807        2.11132392687461
H            1.80828015530325        3.80485123643116        2.43596917094399
H           -0.11264193141587        2.62964815470684        1.44046834459920
H            0.07114735123666        2.73957590885447       -1.27923452776389
H           -1.86613387131658        3.92564968240830       -2.22417549365029
H           -4.14619795576423        2.97103246013792       -2.00961555099867
H           -4.47241477582051        0.83593975689000       -0.75620981620072
H           -2.03856053890136       -3.61442555677878        0.52684362344564
H            0.09370797950959       -4.85357145426929        0.09353806369389
H            2.16724244380206       -3.55607731752995       -0.42322182768899

          :  Hamiltonian                  GFN2-xTB          :
         :: gradient norm              0.000055451182 Eh/a0 ::
         :: HOMO-LUMO gap              0.291200402630 eV    ::
         :: SCC energy               -70.692459939258 Eh    ::
         :: -> dispersion             -0.057337658616 Eh    ::
         :: -> Gsolv                  -0.040413214741 Eh    ::
         :: repulsion energy           0.965943410125 Eh    ::

    * Orbital Energies and Occupations

         #    Occupation            Energy/Eh            Energy/eV
      -------------------------------------------------------------
         1        2.0000           -0.7875984             -21.4316
       ...           ...                  ...                  ...
        51        2.0000           -0.4578322             -12.4582
        52        2.0000           -0.4539490             -12.3526
        53        2.0000           -0.4521113             -12.3026
        54        2.0000           -0.4504009             -12.2560
        55        2.0000           -0.4485455             -12.2055
        56        2.0000           -0.4457571             -12.1297
        57        2.0000           -0.4428623             -12.0509
        58        2.0000           -0.4415367             -12.0148
        59        2.0000           -0.4395550             -11.9609
        60        2.0000           -0.4248464             -11.5607
        61        1.9997           -0.4184378             -11.3863
        62        1.0003           -0.4031372             -10.9699
        63        0.9963           -0.2855120              -7.7692 (HOMO)
        64        0.0034           -0.2748106              -7.4780 (LUMO)
        65        0.0003           -0.2725515              -7.4165
        66        0.0000           -0.2668252              -7.2607
        67                         -0.2639122              -7.1814
        68                         -0.2464991              -6.7076
        69                         -0.1626337              -4.4255
        70                         -0.1553301              -4.2267
        71                         -0.1433292              -3.9002
        72                         -0.1373187              -3.7366
        73                         -0.1172143              -3.1896
        74                         -0.1035021              -2.8164
       ...                                ...                  ...
       121                          1.1734281              31.9306
      -------------------------------------------------------------
                  HL-Gap            0.0107013 Eh            0.2912 eV

     #   Z          covCN         q      C6AA      α(0)
     1   8 O        0.860    -0.582    25.677     6.794
     2  16 S        3.846     0.953   108.019    17.492
     3   8 O        0.860    -0.558    25.107     6.718
     4   6 C        2.965    -0.100    30.509     9.060
     5   6 C        2.939    -0.013    28.337     8.731
     6   6 C        2.917    -0.015    28.381     8.736
     7   6 C        2.914    -0.029    28.722     8.788
     8   6 C        2.915    -0.023    28.573     8.765
     9   6 C        2.994     0.042    27.047     8.531
    10   7 N        2.754     0.024    20.834     6.779
    11   6 C        2.985     0.040    27.089     8.538
    12   6 C        2.914    -0.022    28.563     8.764
    13   6 C        2.913    -0.029    28.724     8.788
    14   6 C        2.916    -0.016    28.402     8.739
    15   6 C        2.941    -0.012    28.306     8.726
    16   6 C        2.963    -0.102    30.559     9.067
    17  16 S        3.843     0.960   107.820    17.476
    18   8 O        0.860    -0.581    25.649     6.790
    19   8 O        0.860    -0.558    25.110     6.718
    20   6 C        2.968    -0.094    30.352     9.037
    21   6 C        2.943    -0.040    28.986     8.830
    22   6 C        2.915    -0.011    28.279     8.720
    23   6 C        2.940    -0.033    28.811     8.803
    24   6 C        2.969    -0.103    30.604     9.074
    25   6 C        3.037     0.050    26.852     8.499
    26   1 H        0.926     0.072     2.062     2.246
    27   1 H        0.926     0.082     1.961     2.190
    28   1 H        0.926     0.082     1.959     2.189
    29   1 H        0.926     0.076     2.021     2.223
    30   1 H        0.926     0.076     2.017     2.221
    31   1 H        0.926     0.082     1.960     2.190
    32   1 H        0.926     0.082     1.962     2.190
    33   1 H        0.926     0.072     2.066     2.248
    34   1 H        0.926     0.070     2.083     2.257
    35   1 H        0.926     0.084     1.937     2.177
    36   1 H        0.926     0.072     2.059     2.244

molecular dipole:
                 x           y           z       tot (Debye)
 q only:        0.041       2.666       0.183
   full:        0.028       2.427       0.176       6.186

 projected vibrational frequencies (cm⁻¹)
eigval :       -0.00    -0.00    -0.00     0.00     0.00     0.00
eigval :       17.04    39.80    60.13    80.08    87.67   109.04
eigval :      125.11   144.11   183.59   189.21   211.50   219.39
eigval :      230.26   259.00   261.04   274.93   305.33   308.88
eigval :      341.40   365.82   389.04   391.48   403.03   422.10
eigval :      426.32   443.35   447.73   475.45   476.71   498.85
eigval :      510.21   523.05   546.90   587.64   606.19   610.67
eigval :      616.38   654.55   677.53   689.55   719.45   733.64
eigval :      741.70   757.04   759.08   827.36   839.91   848.46
eigval :      879.92   888.13   891.27   891.98   894.01   900.72
eigval :      902.95   971.15  1003.08  1030.65  1035.36  1049.73
eigval :     1056.59  1066.13  1084.73  1094.97  1141.98  1142.95
eigval :     1148.43  1153.57  1159.72  1183.19  1185.24  1193.49
eigval :     1193.63  1205.46  1210.66  1258.90  1304.71  1323.09
eigval :     1324.18  1350.67  1360.18  1373.57  1378.97  1386.95
eigval :     1399.46  1413.50  1436.62  1441.98  1455.10  1460.64
eigval :     1509.35  3092.22  3094.32  3097.94  3099.60  3099.98
eigval :     3108.26  3109.29  3116.10  3116.58  3117.47  3123.18

   temp. (K)  partition function   enthalpy   heat capacity  entropy
                                   cal/mol     cal/K/mol   cal/K/mol   J/K/mol
 298.15  VIB  0.191E+08            11251.281     74.676     67.112
         ROT  0.902E+07              888.752      2.981     34.806
         INT  0.172E+15            12140.034     77.657    101.918
         TR   0.687E+28             1481.254      4.968     43.593
         TOT                       13621.2875    82.6255   145.5118   608.8212

       T/K    H(0)-H(T)+PV         H(T)/Eh          T*S/Eh         G(T)/Eh
   ------------------------------------------------------------------------
    298.15    0.217069E-01    0.261710E+00    0.691373E-01    0.192573E+00
   ------------------------------------------------------------------------

         :::::::::::::::::::::::::::::::::::::::::::::::::::::
         ::                  THERMODYNAMIC                  ::
         :::::::::::::::::::::::::::::::::::::::::::::::::::::
         :: total free energy         -69.533943743068 Eh   ::
         ::.................................................::
         :: total energy              -69.726516526697 Eh   ::
         :: zero point energy           0.240003216719 Eh   ::
         :: G(RRHO) w/o ZPVE           -0.047430433090 Eh   ::
         :: G(RRHO) contrib.            0.192572783628 Eh   ::
         :::::::::::::::::::::::::::::::::::::::::::::::::::::

           -------------------------------------------------
          | TOTAL ENERGY              -69.726516526697 Eh   |
          | TOTAL ENTHALPY            -69.464806406682 Eh   |
          | TOTAL FREE ENERGY         -69.533943743068 Eh   |
          | GRADIENT NORM               0.000054735897 Eh/α |
          | HOMO-LUMO GAP               0.291198164884 eV   |
           -------------------------------------------------

 * finished run on 2025/09/05 at 00:27:15.161
