   * xtb version 6.7.1 (edcfbbe) compiled by 'albert@albert-system' on 2024-07-22

   ID    Z sym.   atoms
    1    8 O      1, 3, 18, 19
    2   16 S      2, 17
    3    6 C      4-9, 11-16, 20-25
    4    7 N      10
    5    1 H      26-36

          program call               : xtb data2507/toluene/BTPO/BTPO_toluene_S0_finalOpt.xtbopt.xyz --gfn 2 --uhf 2 --gbsa toluene --ohess vtight --parallel 40 --molden --ceasefiles --namespace data2507/toluene/BTPO/BTPO_toluene_T1_preOpt
      * Solvation model:               GBSA
        Solvent                        toluene
        Solvent mass                       9.2140E+01 g/mol
          :  Hamiltonian                  GFN2-xTB          :
 * total energy  :   -69.7218803 Eh     change       -0.6253174E-08 Eh
 * total energy  :   -69.7251974 Eh     change       -0.3317126E-02 Eh
 * total energy  :   -69.7261437 Eh     change       -0.9462981E-03 Eh
 * total energy  :   -69.7262871 Eh     change       -0.1433917E-03 Eh
 * total energy  :   -69.7263836 Eh     change       -0.9657684E-04 Eh
 * total energy  :   -69.7264201 Eh     change       -0.3642518E-04 Eh
 * total energy  :   -69.7264525 Eh     change       -0.3244383E-04 Eh
 * total energy  :   -69.7264684 Eh     change       -0.1591679E-04 Eh
 * total energy  :   -69.7264783 Eh     change       -0.9878998E-05 Eh
 * total energy  :   -69.7264858 Eh     change       -0.7494446E-05 Eh
 * total energy  :   -69.7264989 Eh     change       -0.1416898E-05 Eh
 * total energy  :   -69.7264999 Eh     change       -0.1032448E-05 Eh
 * total energy  :   -69.7265008 Eh     change       -0.8418868E-06 Eh
 * total energy  :   -69.7265014 Eh     change       -0.6818821E-06 Eh
 * total energy  :   -69.7265019 Eh     change       -0.5034800E-06 Eh
 * total energy  :   -69.7265023 Eh     change       -0.3838931E-06 Eh
 * total energy  :   -69.7265026 Eh     change       -0.3066081E-06 Eh
 * total energy  :   -69.7265029 Eh     change       -0.2659094E-06 Eh
 * total energy  :   -69.7265029 Eh     change       -0.3715243E-08 Eh
   *** GEOMETRY OPTIMIZATION CONVERGED AFTER 22 ITERATIONS ***

 final structure:
================
36
 xtb: 6.7.1 (edcfbbe)
O            2.36058578866438       -0.26719884919668       -2.14798747755847
S            2.57771971777775       -0.73410778764996       -0.79195053635383
O            3.80011135026850       -1.45974288725041       -0.54682370192907
C            2.41452650820694        0.63373807313359        0.30965756459421
C            3.49159654181921        1.29755005433636        0.86312236200702
C            3.29885662197803        2.46646704104955        1.57891526184954
C            1.99770415616138        2.98594981841731        1.73273895076591
C            0.91684796063259        2.33573688660702        1.18867729974585
C            1.09194721268891        1.13797953165967        0.46754468283943
N           -0.00098742296425        0.43662997649012        0.00056832176907
C           -1.09567186098568        1.13545087487960       -0.46598032947461
C           -0.92365673507847        2.33416967301798       -1.18632202763254
C           -2.00615389056925        2.98186657594478       -1.73008069644565
C           -3.30596239581228        2.45884966189506       -1.57678045562031
C           -3.49571417527869        1.28896387544471       -0.86174309610411
C           -2.41697416550653        0.62765267221852       -0.30856586585859
S           -2.57679349237432       -0.74116958625993        0.79233400914677
O           -2.36119780988634       -0.27438943953702        2.14866027645012
O           -3.79722454896733       -1.46988343534539        0.54657140848727
C           -1.15971959747939       -1.68006944331271        0.29534257215472
C           -1.16721183363443       -3.08008634353264        0.27307530032098
C            0.00454735210881       -3.76981179304976       -0.00010944484246
C            1.17444432299239       -3.07693767318228       -0.27310897901192
C            1.16325838507009       -1.67692328656452       -0.29503864002763
C            0.00081348252461       -0.96396665239137        0.00028120513023
H            4.47566521736445        0.88651212820034        0.69895970264426
H            4.13930154733320        2.98286688095811        2.01299717274194
H            1.84854393450992        3.89013690087812        2.29989200427389
H           -0.08629011724778        2.69729511326416        1.35686204627437
H            0.07855187966970        2.69845978493678       -1.35418030301841
H           -1.85931241837450        3.88679579947297       -2.29667250380879
H           -4.14772185678493        2.97327493316015       -2.01067298236397
H           -4.47872784609006        0.87522829196754       -0.69800080111797
H           -2.09603213181583       -3.58178862091647        0.48653629061795
H            0.00597082397975       -4.84842966645874       -0.00023681891764
H            2.10458971787567       -3.57611836893896       -0.48671409979282

          :  Hamiltonian                  GFN2-xTB          :
         :: gradient norm              0.000049905735 Eh/a0 ::
         :: HOMO-LUMO gap              0.284211129207 eV    ::
         :: SCC energy               -70.692367112248 Eh    ::
         :: -> dispersion             -0.057335449480 Eh    ::
         :: -> Gsolv                  -0.040411501180 Eh    ::
         :: repulsion energy           0.965864205794 Eh    ::

    * Orbital Energies and Occupations

         #    Occupation            Energy/Eh            Energy/eV
      -------------------------------------------------------------
         1        2.0000           -0.7867569             -21.4087
       ...           ...                  ...                  ...
        51        2.0000           -0.4577919             -12.4572
        52        2.0000           -0.4536377             -12.3441
        53        2.0000           -0.4524131             -12.3108
        54        2.0000           -0.4504449             -12.2572
        55        2.0000           -0.4485818             -12.2065
        56        2.0000           -0.4457163             -12.1286
        57        2.0000           -0.4430072             -12.0548
        58        2.0000           -0.4414725             -12.0131
        59        2.0000           -0.4397084             -11.9651
        60        2.0000           -0.4248657             -11.5612
        61        1.9997           -0.4185833             -11.3902
        62        1.0003           -0.4031887             -10.9713
        63        0.9957           -0.2854108              -7.7664 (HOMO)
        64        0.0039           -0.2749663              -7.4822 (LUMO)
        65        0.0004           -0.2727784              -7.4227
        66        0.0000           -0.2668604              -7.2616
        67                         -0.2640417              -7.1849
        68                         -0.2463180              -6.7027
        69                         -0.1624386              -4.4202
        70                         -0.1553641              -4.2277
        71                         -0.1433647              -3.9012
        72                         -0.1374491              -3.7402
        73                         -0.1172332              -3.1901
        74                         -0.1027210              -2.7952
       ...                                ...                  ...
       121                          1.1733228              31.9277
      -------------------------------------------------------------
                  HL-Gap            0.0104445 Eh            0.2842 eV

     #   Z          covCN         q      C6AA      α(0)
     1   8 O        0.860    -0.581    25.666     6.792
     2  16 S        3.845     0.956   107.919    17.484
     3   8 O        0.860    -0.558    25.108     6.718
     4   6 C        2.964    -0.101    30.538     9.064
     5   6 C        2.940    -0.012    28.321     8.728
     6   6 C        2.916    -0.015    28.390     8.737
     7   6 C        2.913    -0.029    28.728     8.789
     8   6 C        2.915    -0.023    28.568     8.765
     9   6 C        2.989     0.041    27.071     8.535
    10   7 N        2.754     0.024    20.837     6.780
    11   6 C        2.989     0.041    27.072     8.535
    12   6 C        2.915    -0.023    28.568     8.765
    13   6 C        2.913    -0.029    28.728     8.789
    14   6 C        2.916    -0.015    28.391     8.737
    15   6 C        2.940    -0.012    28.321     8.728
    16   6 C        2.964    -0.101    30.538     9.064
    17  16 S        3.845     0.956   107.919    17.484
    18   8 O        0.860    -0.581    25.666     6.792
    19   8 O        0.860    -0.558    25.108     6.718
    20   6 C        2.969    -0.099    30.480     9.056
    21   6 C        2.942    -0.037    28.910     8.818
    22   6 C        2.915    -0.010    28.263     8.718
    23   6 C        2.942    -0.037    28.910     8.818
    24   6 C        2.969    -0.099    30.481     9.056
    25   6 C        3.036     0.051    26.820     8.494
    26   1 H        0.926     0.072     2.064     2.247
    27   1 H        0.926     0.082     1.961     2.190
    28   1 H        0.926     0.082     1.960     2.189
    29   1 H        0.926     0.076     2.018     2.221
    30   1 H        0.926     0.076     2.018     2.221
    31   1 H        0.926     0.082     1.960     2.189
    32   1 H        0.926     0.082     1.961     2.190
    33   1 H        0.926     0.072     2.064     2.247
    34   1 H        0.926     0.071     2.071     2.251
    35   1 H        0.926     0.084     1.936     2.176
    36   1 H        0.926     0.071     2.071     2.250

molecular dipole:
                 x           y           z       tot (Debye)
 q only:       -0.003       2.678       0.001
   full:       -0.003       2.438       0.001       6.197

 projected vibrational frequencies (cm⁻¹)
eigval :       -0.00    -0.00    -0.00     0.00     0.00     0.00
eigval :      -10.34    36.62    57.77    77.05    87.20   105.25
eigval :      124.98   143.72   183.88   189.09   211.59   219.49
eigval :      230.09   258.06   259.96   273.70   304.99   306.71
eigval :      339.66   365.92   388.82   390.37   402.71   421.09
eigval :      422.44   441.02   448.81   474.00   476.37   499.67
eigval :      509.59   522.65   546.45   587.07   607.42   610.50
eigval :      611.64   655.80   677.05   690.08   719.31   734.58
eigval :      738.55   756.37   760.63   826.24   840.75   846.23
eigval :      880.15   888.44   890.96   892.73   894.78   900.12
eigval :      902.80   965.81  1004.46  1031.17  1037.91  1046.26
eigval :     1056.25  1067.21  1082.85  1092.89  1141.81  1142.29
eigval :     1146.86  1153.42  1158.52  1184.87  1185.63  1192.55
eigval :     1193.31  1204.12  1210.84  1259.03  1308.25  1318.86
eigval :     1323.64  1353.69  1363.76  1374.97  1382.87  1383.81
eigval :     1393.22  1416.33  1431.75  1440.09  1453.61  1457.61
eigval :     1500.62  3091.60  3093.75  3098.82  3098.92  3099.48
eigval :     3108.71  3108.87  3116.76  3116.98  3118.25  3121.95

   temp. (K)  partition function   enthalpy   heat capacity  entropy
                                   cal/mol     cal/K/mol   cal/K/mol   J/K/mol
 298.15  VIB  0.376E+08            11291.425     74.610     67.835
         ROT  0.451E+07              888.752      2.981     33.430
         INT  0.170E+15            12180.178     77.591    101.265
         TR   0.687E+28             1481.254      4.968     43.593
         TOT                       13661.4316    82.5589   144.8584   606.0877

       T/K    H(0)-H(T)+PV         H(T)/Eh          T*S/Eh         G(T)/Eh
   ------------------------------------------------------------------------
    298.15    0.217709E-01    0.261611E+00    0.688269E-01    0.192784E+00
   ------------------------------------------------------------------------

         :::::::::::::::::::::::::::::::::::::::::::::::::::::
         ::                  THERMODYNAMIC                  ::
         :::::::::::::::::::::::::::::::::::::::::::::::::::::
         :: total free energy         -69.533719134374 Eh   ::
         ::.................................................::
         :: total energy              -69.726502904405 Eh   ::
         :: zero point energy           0.239839810890 Eh   ::
         :: G(RRHO) w/o ZPVE           -0.047056040859 Eh   ::
         :: G(RRHO) contrib.            0.192783770031 Eh   ::
         :::::::::::::::::::::::::::::::::::::::::::::::::::::

           -------------------------------------------------
          | TOTAL ENERGY              -69.726502904405 Eh   |
          | TOTAL ENTHALPY            -69.464892216446 Eh   |
          | TOTAL FREE ENERGY         -69.533719134374 Eh   |
          | GRADIENT NORM               0.000050052940 Eh/α |
          | HOMO-LUMO GAP               0.284210428279 eV   |
           -------------------------------------------------

 * finished run on 2025/09/05 at 00:25:44.688
