   * xtb version 6.7.1 (edcfbbe) compiled by 'albert@albert-system' on 2024-07-22

   ID    Z sym.   atoms
    1    6 C      1-4, 6-26, 28-38
    2    7 N      5, 27
    3    1 H      39-62

          program call               : xtb data2507/toluene/DPhBCz/DPhBCz_toluene_T1_crest.xyz --gfn 2 --uhf 2 --gbsa toluene --ohess vtight --parallel 40 --molden --ceasefiles --namespace data2507/toluene/DPhBCz/DPhBCz_toluene_T1_finalOpt
      * Solvation model:               GBSA
        Solvent                        toluene
        Solvent mass                       9.2140E+01 g/mol
          :  Hamiltonian                  GFN2-xTB          :
 * total energy  :   -95.1726073 Eh     change       -0.1304628E-08 Eh
 * total energy  :   -95.1726319 Eh     change       -0.2451038E-04 Eh
 * total energy  :   -95.1726479 Eh     change       -0.1608341E-04 Eh
 * total energy  :   -95.1726551 Eh     change       -0.7168760E-05 Eh
 * total energy  :   -95.1726647 Eh     change       -0.9623637E-05 Eh
 * total energy  :   -95.1726696 Eh     change       -0.4833461E-05 Eh
 * total energy  :   -95.1726721 Eh     change       -0.2586293E-05 Eh
 * total energy  :   -95.1726733 Eh     change       -0.1129011E-05 Eh
 * total energy  :   -95.1726740 Eh     change       -0.7370251E-06 Eh
 * total energy  :   -95.1726749 Eh     change       -0.8780239E-06 Eh
 * total energy  :   -95.1726772 Eh     change       -0.4280367E-06 Eh
 * total energy  :   -95.1726777 Eh     change       -0.4329782E-06 Eh
 * total energy  :   -95.1726780 Eh     change       -0.3050033E-06 Eh
 * total energy  :   -95.1726782 Eh     change       -0.2593130E-06 Eh
 * total energy  :   -95.1726785 Eh     change       -0.2821017E-06 Eh
 * total energy  :   -95.1726788 Eh     change       -0.3178585E-06 Eh
 * total energy  :   -95.1726791 Eh     change       -0.3104418E-06 Eh
 * total energy  :   -95.1726794 Eh     change       -0.3003490E-06 Eh
 * total energy  :   -95.1726794 Eh     change       -0.5066312E-08 Eh
   *** GEOMETRY OPTIMIZATION CONVERGED AFTER 22 ITERATIONS ***

 final structure:
================
62
 xtb: 6.7.1 (edcfbbe)
C           -7.87707904690262       -3.09480691046808       -0.12295152598015
C           -7.95813779939246       -1.98425685902634       -0.95071147594727
C           -6.97376740427761       -1.01621590430876       -0.92066367573497
C           -5.89090262655731       -1.14983566714653       -0.04930098999189
N           -4.88913488368977       -0.17526501557520       -0.01171442454450
C           -5.09623687164381        1.19015842744914        0.10744976549573
C           -6.28437134968245        1.89464000883595        0.23574525542059
C           -6.20816375241134        3.27210932945548        0.37316964781512
C           -4.98606903343037        3.93177002213851        0.39380033097089
C           -3.79417301580525        3.22643763106008        0.29638230431526
C           -3.84653924367115        1.85067918237001        0.15867625508385
C           -2.83225761450420        0.82470961928120        0.06354671149814
C           -1.46797937448729        0.86670104158460        0.04970404393401
C           -0.70343004731971       -0.35110943849167       -0.04946579112423
C            0.70189864012673       -0.35232300888257       -0.00763214439953
C            1.46014295240019       -1.57385156099975        0.14811495771012
C            2.81999040566256       -1.61583456505619        0.16868814534359
C            3.53675886446247       -0.41521320514932        0.01269832223186
C            2.83287361249227        0.82251636027884       -0.08977258941751
C            1.46849283478625        0.86510493143546       -0.09402884508114
C            3.84851603699351        1.84879895338197       -0.16441309036287
C            3.79847244666234        3.22524283276816       -0.29632953656849
C            4.99178708232815        3.93084029718381       -0.37122280160988
C            6.21339942698104        3.27097523045890       -0.33353496101297
C            6.28729857914869        1.89289215224383       -0.20132908611801
C            5.09718668073175        1.18792086007478       -0.09593123389291
N            4.88821479776918       -0.17806123198528        0.01317393944293
C            5.88987940829418       -1.15207653360340        0.06640351221009
C            5.82611819888516       -2.26899199824155       -0.76906473088243
C            6.81378952942275       -3.23203930774071       -0.71071873663965
C            7.87533230063216       -3.09651905207771        0.17269411041101
C            7.94065436069759       -1.98755153678567        1.00394739933123
C            6.95664997025043       -1.01979839007079        0.95765082962379
C           -1.46425511605929       -1.57048266211310       -0.21073164796243
C           -2.82425145968628       -1.61172521934559       -0.21333264317007
C           -3.53791881672417       -0.41237287454493       -0.03505482959319
C           -5.81081761357661       -2.26874436931273        0.78212341825789
C           -6.79917194286232       -3.23191341676263        0.74022799565906
H           -8.64827090584791       -3.84957828073935       -0.15140903719040
H           -8.79022323170326       -1.87753990610091       -1.63124573798632
H           -7.02041075455269       -0.16610432247451       -1.58492303365109
H           -7.23896373985649        1.39134725919938        0.24228512612409
H           -7.12069747523052        3.84203422173481        0.46994393549906
H           -4.96399653807724        5.00650022672290        0.49898155769284
H           -2.84494007580251        3.73956886426165        0.33278832211214
H           -0.97047082091992        1.81717815939944        0.14202418736833
H            0.92385282558002       -2.49550297425913        0.30436419208044
H            3.34118908474452       -2.54924337874295        0.32378402652057
H            0.97276805933997        1.81627853646804       -0.18890416545969
H            2.84996638787921        3.73862413808349       -0.34579809176803
H            4.97148916938082        5.00604437079977       -0.47182809385378
H            7.12741816945993        3.84126895491409       -0.41256881891782
H            7.24185692619912        1.38952566008343       -0.19456801036449
H            5.01130198867775       -2.35872623135100       -1.47209852888297
H            6.76067330708624       -4.09114427194778       -1.36342727655226
H            8.64602143999381       -3.85120108103460        0.21415086579760
H            8.76009742488414       -1.88176917678525        1.69981516816615
H            6.99111163937588       -0.17103020226681        1.62435274444927
H           -0.93037089333386       -2.49037068194840       -0.38478588904443
H           -3.34843096144563       -2.54303651621415       -0.37119369090521
H           -4.98263625501027       -2.35981394229254        1.46924067752921
H           -6.73363324346465       -4.09248596112214        1.38986562011606

          :  Hamiltonian                  GFN2-xTB          :
         :: gradient norm              0.000052931958 Eh/a0 ::
         :: HOMO-LUMO gap              0.234506788086 eV    ::
         :: SCC energy               -96.973051274504 Eh    ::
         :: -> dispersion             -0.083423016433 Eh    ::
         :: -> Gsolv                  -0.039020922075 Eh    ::
         :: repulsion energy           1.800371828934 Eh    ::

    * Orbital Energies and Occupations

         #    Occupation            Energy/Eh            Energy/eV
      -------------------------------------------------------------
         1        2.0000           -0.6766414             -18.4124
       ...           ...                  ...                  ...
        78        2.0000           -0.4167640             -11.3407
        79        2.0000           -0.4113813             -11.1943
        80        2.0000           -0.4106440             -11.1742
        81        2.0000           -0.4105416             -11.1714
        82        2.0000           -0.4081812             -11.1072
        83        2.0000           -0.4078828             -11.0991
        84        2.0000           -0.4000068             -10.8847
        85        2.0000           -0.3932825             -10.7018
        86        2.0000           -0.3809507             -10.3662
        87        2.0000           -0.3765438             -10.2463
        88        2.0000           -0.3693228             -10.0498
        89        1.0000           -0.3433443              -9.3429
        90        0.9869           -0.2510349              -6.8310 (HOMO)
        91        0.0086           -0.2424168              -6.5965 (LUMO)
        92        0.0046           -0.2418200              -6.5803
        93        0.0000           -0.2318782              -6.3097
        94                         -0.2314012              -6.2967
        95                         -0.2285931              -6.2203
        96                         -0.2285869              -6.2202
        97                         -0.2133153              -5.8046
        98                         -0.2025204              -5.5109
        99                         -0.1851803              -5.0390
       100                         -0.1848704              -5.0306
       101                         -0.1607061              -4.3730
       ...                                ...                  ...
       176                          0.7629238              20.7602
      -------------------------------------------------------------
                  HL-Gap            0.0086180 Eh            0.2345 eV

     #   Z          covCN         q      C6AA      α(0)
     1   6 C        2.918    -0.036    28.904     8.816
     2   6 C        2.919    -0.029    28.724     8.789
     3   6 C        2.920    -0.043    29.076     8.843
     4   6 C        2.913     0.058    26.707     8.474
     5   7 N        2.797    -0.021    21.643     6.910
     6   6 C        3.069     0.045    26.915     8.507
     7   6 C        2.910    -0.050    29.235     8.866
     8   6 C        2.923    -0.035    28.860     8.810
     9   6 C        2.919    -0.040    29.005     8.832
    10   6 C        2.912    -0.034    28.858     8.809
    11   6 C        3.060    -0.015    28.316     8.726
    12   6 C        3.046    -0.014    28.321     8.728
    13   6 C        2.910    -0.047    29.163     8.855
    14   6 C        2.964    -0.006    28.165     8.705
    15   6 C        2.964    -0.006    28.165     8.705
    16   6 C        2.919    -0.048    29.185     8.859
    17   6 C        2.901    -0.047    29.164     8.855
    18   6 C        3.067     0.027    27.325     8.572
    19   6 C        3.046    -0.014    28.320     8.728
    20   6 C        2.910    -0.047    29.163     8.855
    21   6 C        3.060    -0.015    28.316     8.726
    22   6 C        2.912    -0.034    28.858     8.809
    23   6 C        2.919    -0.040    29.005     8.832
    24   6 C        2.923    -0.035    28.860     8.810
    25   6 C        2.910    -0.050    29.234     8.866
    26   6 C        3.069     0.045    26.916     8.507
    27   7 N        2.797    -0.021    21.644     6.910
    28   6 C        2.913     0.058    26.707     8.474
    29   6 C        2.921    -0.042    29.052     8.839
    30   6 C        2.919    -0.029    28.724     8.789
    31   6 C        2.918    -0.036    28.904     8.816
    32   6 C        2.919    -0.029    28.724     8.789
    33   6 C        2.921    -0.043    29.076     8.843
    34   6 C        2.919    -0.048    29.185     8.859
    35   6 C        2.901    -0.047    29.163     8.855
    36   6 C        3.067     0.027    27.326     8.572
    37   6 C        2.921    -0.042    29.051     8.839
    38   6 C        2.919    -0.029    28.724     8.789
    39   1 H        0.926     0.036     2.498     2.472
    40   1 H        0.926     0.038     2.474     2.460
    41   1 H        0.926     0.040     2.449     2.447
    42   1 H        0.926     0.034     2.529     2.487
    43   1 H        0.926     0.033     2.549     2.497
    44   1 H        0.926     0.031     2.577     2.510
    45   1 H        0.926     0.032     2.564     2.504
    46   1 H        0.926     0.029     2.602     2.523
    47   1 H        0.926     0.028     2.609     2.526
    48   1 H        0.926     0.027     2.629     2.536
    49   1 H        0.926     0.029     2.603     2.523
    50   1 H        0.926     0.032     2.564     2.504
    51   1 H        0.926     0.031     2.577     2.510
    52   1 H        0.926     0.033     2.549     2.497
    53   1 H        0.926     0.034     2.529     2.487
    54   1 H        0.926     0.040     2.449     2.447
    55   1 H        0.926     0.038     2.478     2.461
    56   1 H        0.926     0.036     2.498     2.472
    57   1 H        0.926     0.038     2.474     2.460
    58   1 H        0.926     0.040     2.449     2.447
    59   1 H        0.926     0.028     2.610     2.526
    60   1 H        0.926     0.027     2.630     2.536
    61   1 H        0.926     0.040     2.450     2.448
    62   1 H        0.926     0.038     2.478     2.461

molecular dipole:
                 x           y           z       tot (Debye)
 q only:        0.001      -0.492       0.009
   full:        0.001      -0.552       0.010       1.403

 projected vibrational frequencies (cm⁻¹)
eigval :       -0.00     0.00     0.00     0.00     0.00     0.00
eigval :       10.16    14.13    29.11    45.89    57.30    58.30
eigval :       65.33    69.78    75.77    92.04   102.64   120.03
eigval :      128.63   152.78   165.09   174.43   212.50   226.38
eigval :      247.95   252.12   263.33   272.64   279.68   293.18
eigval :      347.21   352.45   379.02   379.87   383.34   386.53
eigval :      392.47   395.88   398.77   409.56   428.57   463.53
eigval :      464.97   480.62   516.72   529.94   533.92   544.44
eigval :      554.16   571.73   576.91   585.53   587.15   590.64
eigval :      594.88   609.26   610.68   638.52   646.11   649.75
eigval :      661.47   666.31   693.59   697.20   702.00   719.68
eigval :      752.32   755.79   760.19   764.51   767.67   770.64
eigval :      771.19   782.90   785.30   838.69   861.98   862.07
eigval :      871.59   874.57   878.74   881.74   887.78   888.84
eigval :      894.74   895.24   898.32   898.90   914.69   914.98
eigval :      915.85   918.91   925.05   927.53   928.78   934.29
eigval :      971.67   987.10   989.35   996.89  1007.71  1069.28
eigval :     1069.70  1074.16  1074.79  1075.05  1115.42  1117.78
eigval :     1118.27  1123.85  1139.77  1164.84  1169.79  1175.45
eigval :     1175.96  1176.62  1177.17  1192.74  1197.05  1201.52
eigval :     1204.78  1222.13  1242.99  1247.39  1250.57  1268.38
eigval :     1271.04  1271.97  1275.72  1290.41  1309.42  1321.28
eigval :     1321.43  1339.88  1342.12  1344.22  1349.54  1373.82
eigval :     1374.97  1396.80  1416.96  1421.88  1425.56  1431.08
eigval :     1437.21  1445.00  1460.33  1462.87  1466.56  1470.52
eigval :     1502.28  1505.28  1531.20  1532.32  1533.69  1551.03
eigval :     1553.22  1572.32  1572.77  1577.27  1582.98  1592.08
eigval :     3071.38  3072.48  3073.21  3073.33  3075.48  3075.67
eigval :     3076.31  3076.85  3080.09  3080.17  3087.25  3087.51
eigval :     3088.37  3088.43  3090.49  3090.59  3094.60  3094.91
eigval :     3096.71  3097.34  3099.89  3105.65  3110.49  3118.17

   temp. (K)  partition function   enthalpy   heat capacity  entropy
                                   cal/mol     cal/K/mol   cal/K/mol   J/K/mol
 298.15  VIB  0.183E+13            16783.614    111.234    103.121
         ROT  0.523E+08              888.752      2.981     38.300
         INT  0.958E+20            17672.366    114.215    141.420
         TR   0.103E+29             1481.254      4.968     44.402
         TOT                       19153.6202   119.1835   185.8223   777.4804

       T/K    H(0)-H(T)+PV         H(T)/Eh          T*S/Eh         G(T)/Eh
   ------------------------------------------------------------------------
    298.15    0.305232E-01    0.504398E+00    0.882902E-01    0.416108E+00
   ------------------------------------------------------------------------

         :::::::::::::::::::::::::::::::::::::::::::::::::::::
         ::                  THERMODYNAMIC                  ::
         :::::::::::::::::::::::::::::::::::::::::::::::::::::
         :: total free energy         -94.756571663320 Eh   ::
         ::.................................................::
         :: total energy              -95.172679449924 Eh   ::
         :: zero point energy           0.473874712826 Eh   ::
         :: G(RRHO) w/o ZPVE           -0.057766926223 Eh   ::
         :: G(RRHO) contrib.            0.416107786603 Eh   ::
         :::::::::::::::::::::::::::::::::::::::::::::::::::::

           -------------------------------------------------
          | TOTAL ENERGY              -95.172679449924 Eh   |
          | TOTAL ENTHALPY            -94.668281500391 Eh   |
          | TOTAL FREE ENERGY         -94.756571663320 Eh   |
          | GRADIENT NORM               0.000052968194 Eh/α |
          | HOMO-LUMO GAP               0.234508521180 eV   |
           -------------------------------------------------

 * finished run on 2025/08/29 at 11:49:31.728
