   * xtb version 6.7.1 (edcfbbe) compiled by 'albert@albert-system' on 2024-07-22

   ID    Z sym.   atoms
    1    6 C      1-4, 6-26, 28-38
    2    7 N      5, 27
    3    1 H      39-62

          program call               : xtb data2507/toluene/DPhBCz/DPhBCz_toluene_S0_finalOpt.xtbopt.xyz --gfn 2 --uhf 2 --gbsa toluene --ohess vtight --parallel 40 --molden --ceasefiles --namespace data2507/toluene/DPhBCz/DPhBCz_toluene_T1_preOpt
      * Solvation model:               GBSA
        Solvent                        toluene
        Solvent mass                       9.2140E+01 g/mol
          :  Hamiltonian                  GFN2-xTB          :
 * total energy  :   -95.1667986 Eh     change        0.3154398E-08 Eh
 * total energy  :   -95.1689052 Eh     change       -0.2106558E-02 Eh
 * total energy  :   -95.1695839 Eh     change       -0.6787179E-03 Eh
 * total energy  :   -95.1697248 Eh     change       -0.1408934E-03 Eh
 * total energy  :   -95.1698471 Eh     change       -0.1223468E-03 Eh
 * total energy  :   -95.1699192 Eh     change       -0.7208223E-04 Eh
 * total energy  :   -95.1700127 Eh     change       -0.9350734E-04 Eh
 * total energy  :   -95.1701156 Eh     change       -0.1028741E-03 Eh
 * total energy  :   -95.1702613 Eh     change       -0.1456779E-03 Eh
 * total energy  :   -95.1704177 Eh     change       -0.1564230E-03 Eh
 * total energy  :   -95.1726520 Eh     change       -0.5373021E-06 Eh
 * total energy  :   -95.1726526 Eh     change       -0.5501670E-06 Eh
 * total energy  :   -95.1726531 Eh     change       -0.5475439E-06 Eh
 * total energy  :   -95.1726537 Eh     change       -0.5478076E-06 Eh
 * total energy  :   -95.1726542 Eh     change       -0.5148983E-06 Eh
 * total energy  :   -95.1726547 Eh     change       -0.5045469E-06 Eh
 * total energy  :   -95.1726552 Eh     change       -0.4787589E-06 Eh
 * total energy  :   -95.1726557 Eh     change       -0.4884437E-06 Eh
 * total energy  :   -95.1726557 Eh     change       -0.1464929E-07 Eh
   *** GEOMETRY OPTIMIZATION CONVERGED AFTER 300 ITERATIONS ***

 final structure:
================
62
 xtb: 6.7.1 (edcfbbe)
C           -7.86488066152957       -3.09857483755796       -0.27082343829470
C           -7.93578240476794       -1.96672995629865       -1.07021318270137
C           -6.95507329804679       -0.99724017727654       -0.99852224598357
C           -5.88572311095095       -1.15095120157855       -0.11374066930175
N           -4.88667438225724       -0.17590079693029       -0.03583586869859
C           -5.09856320025453        1.18570627949646        0.11512528011454
C           -6.28989656914037        1.88417512366911        0.24655070822440
C           -6.21883821913580        3.25735452067009        0.42419523948884
C           -4.99873644696953        3.91859575761933        0.47929319702791
C           -3.80394645328688        3.21876762655503        0.37691193225104
C           -3.85122627506438        1.84731697290691        0.19957687019051
C           -2.83334226768232        0.82654658764545        0.09021805441536
C           -1.46890879231545        0.87162032860143        0.09159750209334
C           -0.70240073217043       -0.34234049701654       -0.02509620966591
C            0.70324102838883       -0.34143318900235        0.02126822214937
C            1.45905119826535       -1.55915002309334        0.21022350606265
C            2.81894890333580       -1.60078493106356        0.23422383657411
C            3.53559378746942       -0.40529992018209        0.04250687655846
C            2.83269652879629        0.83008705766952       -0.09469132982396
C            1.46820995713865        0.87342145199162       -0.09612721386320
C            3.84928737534591        1.85208047394704       -0.20464583711506
C            3.80027582091175        3.22336586923904       -0.38280888445016
C            4.99418465160856        3.92464026443262       -0.48562959213269
C            6.21511903974469        3.26497610651340       -0.43016654002633
C            6.28790838606247        1.89199423264620       -0.25167982306666
C            5.09746068857340        1.19210514080898       -0.11978520345278
N            4.88730963709955       -0.16967842239426        0.03202310168843
C            5.88761789034023       -1.14337315881837        0.11073436637234
C            5.81991995794481       -2.28396545891518       -0.69189102049433
C            6.80573383136440       -3.24693140886487       -0.60769081062641
C            7.86934269520594       -3.08826081774532        0.26943616607908
C            7.93862999832315       -1.95577154940921        1.06805688593253
C            6.95664155937377       -0.98763987843684        0.99556386726168
C           -1.45666942959023       -1.56111578993716       -0.21329894093311
C           -2.81651044415814       -1.60449713787639       -0.23722689777247
C           -3.53466917706028       -0.40980010183178       -0.04621823278535
C           -5.81641252949946       -2.29088572882783        0.68967951349963
C           -6.80094962742330       -3.25522535680932        0.60627382609540
H           -8.63293319220749       -3.85457177786924       -0.33222577574605
H           -8.75697564762266       -1.84421811838588       -1.76127157759071
H           -6.99411058356647       -0.13023079529240       -1.64092700905200
H           -7.24330936409831        1.37898511372468        0.22681485223774
H           -7.13395354823161        3.82233380535139        0.52539928221487
H           -4.98049804518660        4.98984885095653        0.61594448909845
H           -2.85652594574729        3.73257366441247        0.44027087274201
H           -0.97208484609610        1.81898443429776        0.21636243157942
H            0.91969216172983       -2.47392753329856        0.39504906573054
H            3.34018990179592       -2.52888538272144        0.41826972388447
H            0.97018757558451        1.82008575155435       -0.22145224482466
H            2.85220874964355        3.73593893671842       -0.44647120049893
H            4.97459926731099        4.99578424930644       -0.62293782098651
H            7.12951822168134        3.83104365840699       -0.53175941875533
H            7.24195223448885        1.38800938222323       -0.23166400669496
H            5.00333784012737       -2.39257316238741       -1.39018350638552
H            6.74947376782811       -4.12445372903194       -1.23512998663650
H            8.63839988599538       -3.84318456931550        0.33145564598154
H            8.75956967305897       -1.83168879599785        1.75913719848314
H            6.99444756705169       -0.12013474571611        1.63736926945277
H           -0.91615553499398       -2.47532197260458       -0.39758941783859
H           -3.33657477483021       -2.53336890099085       -0.42070110022109
H           -4.99959595196588       -2.39791360075734        1.38794254902086
H           -6.74344176717343       -4.13223822547790        1.23431358210681

          :  Hamiltonian                  GFN2-xTB          :
         :: gradient norm              0.000059060860 Eh/a0 ::
         :: HOMO-LUMO gap              0.224948201424 eV    ::
         :: SCC energy               -96.972986099384 Eh    ::
         :: -> dispersion             -0.083418596186 Eh    ::
         :: -> Gsolv                  -0.039006185597 Eh    ::
         :: repulsion energy           1.800330415670 Eh    ::

    * Orbital Energies and Occupations

         #    Occupation            Energy/Eh            Energy/eV
      -------------------------------------------------------------
         1        2.0000           -0.6766405             -18.4123
       ...           ...                  ...                  ...
        78        2.0000           -0.4167135             -11.3394
        79        2.0000           -0.4113212             -11.1926
        80        2.0000           -0.4105917             -11.1728
        81        2.0000           -0.4104373             -11.1686
        82        2.0000           -0.4081301             -11.1058
        83        2.0000           -0.4078559             -11.0983
        84        2.0000           -0.4004593             -10.8971
        85        2.0000           -0.3933801             -10.7044
        86        2.0000           -0.3809113             -10.3651
        87        2.0000           -0.3766016             -10.2478
        88        2.0000           -0.3692611             -10.0481
        89        1.0000           -0.3435662              -9.3489
        90        0.9841           -0.2507121              -6.8222 (HOMO)
        91        0.0102           -0.2424453              -6.5973 (LUMO)
        92        0.0057           -0.2418912              -6.5822
        93        0.0000           -0.2318579              -6.3092
        94                         -0.2313588              -6.2956
        95                         -0.2285226              -6.2184
        96                         -0.2285204              -6.2184
        97                         -0.2134150              -5.8073
        98                         -0.2024752              -5.5096
        99                         -0.1852122              -5.0399
       100                         -0.1849538              -5.0328
       101                         -0.1611870              -4.3861
       ...                                ...                  ...
       176                          0.7626383              20.7524
      -------------------------------------------------------------
                  HL-Gap            0.0082668 Eh            0.2249 eV

     #   Z          covCN         q      C6AA      α(0)
     1   6 C        2.918    -0.036    28.906     8.817
     2   6 C        2.919    -0.029    28.725     8.789
     3   6 C        2.921    -0.043    29.076     8.843
     4   6 C        2.913     0.058    26.710     8.475
     5   7 N        2.797    -0.020    21.641     6.909
     6   6 C        3.068     0.045    26.915     8.507
     7   6 C        2.910    -0.050    29.235     8.866
     8   6 C        2.923    -0.035    28.861     8.810
     9   6 C        2.919    -0.040    29.004     8.832
    10   6 C        2.912    -0.035    28.861     8.809
    11   6 C        3.060    -0.015    28.316     8.726
    12   6 C        3.046    -0.014    28.319     8.728
    13   6 C        2.910    -0.047    29.156     8.854
    14   6 C        2.965    -0.006    28.164     8.705
    15   6 C        2.965    -0.006    28.164     8.705
    16   6 C        2.919    -0.048    29.185     8.859
    17   6 C        2.901    -0.047    29.162     8.854
    18   6 C        3.066     0.027    27.326     8.572
    19   6 C        3.046    -0.014    28.319     8.728
    20   6 C        2.910    -0.047    29.156     8.854
    21   6 C        3.060    -0.015    28.316     8.726
    22   6 C        2.912    -0.035    28.861     8.809
    23   6 C        2.919    -0.040    29.004     8.832
    24   6 C        2.923    -0.035    28.861     8.810
    25   6 C        2.910    -0.050    29.235     8.866
    26   6 C        3.068     0.045    26.915     8.507
    27   7 N        2.797    -0.020    21.641     6.909
    28   6 C        2.913     0.058    26.710     8.475
    29   6 C        2.921    -0.042    29.052     8.839
    30   6 C        2.919    -0.029    28.725     8.789
    31   6 C        2.918    -0.036    28.906     8.817
    32   6 C        2.919    -0.029    28.725     8.789
    33   6 C        2.921    -0.043    29.076     8.843
    34   6 C        2.919    -0.048    29.185     8.859
    35   6 C        2.901    -0.047    29.162     8.854
    36   6 C        3.066     0.027    27.326     8.572
    37   6 C        2.921    -0.042    29.052     8.839
    38   6 C        2.919    -0.029    28.725     8.789
    39   1 H        0.926     0.036     2.500     2.472
    40   1 H        0.926     0.038     2.475     2.460
    41   1 H        0.926     0.040     2.450     2.448
    42   1 H        0.926     0.034     2.530     2.488
    43   1 H        0.926     0.033     2.549     2.497
    44   1 H        0.926     0.031     2.577     2.510
    45   1 H        0.926     0.032     2.564     2.504
    46   1 H        0.926     0.029     2.601     2.522
    47   1 H        0.926     0.028     2.608     2.526
    48   1 H        0.926     0.027     2.627     2.535
    49   1 H        0.926     0.029     2.601     2.522
    50   1 H        0.926     0.032     2.564     2.504
    51   1 H        0.926     0.031     2.577     2.510
    52   1 H        0.926     0.033     2.549     2.497
    53   1 H        0.926     0.034     2.531     2.488
    54   1 H        0.926     0.040     2.450     2.448
    55   1 H        0.926     0.038     2.478     2.462
    56   1 H        0.926     0.036     2.500     2.472
    57   1 H        0.926     0.038     2.475     2.460
    58   1 H        0.926     0.040     2.450     2.448
    59   1 H        0.926     0.028     2.608     2.526
    60   1 H        0.926     0.027     2.627     2.535
    61   1 H        0.926     0.040     2.450     2.448
    62   1 H        0.926     0.038     2.478     2.462

molecular dipole:
                 x           y           z       tot (Debye)
 q only:        0.000      -0.490       0.000
   full:        0.000      -0.550       0.000       1.399

 projected vibrational frequencies (cm⁻¹)
eigval :       -0.00    -0.00    -0.00     0.00     0.00     0.00
eigval :       13.81    19.63    28.23    47.92    58.17    63.60
eigval :       68.33    70.71    75.66    94.61   104.42   123.54
eigval :      129.21   155.66   165.64   179.90   212.40   226.73
eigval :      251.42   253.27   265.28   275.73   279.56   293.56
eigval :      346.69   352.96   379.61   380.40   386.35   387.09
eigval :      395.05   396.62   400.73   412.41   428.55   464.21
eigval :      465.64   479.84   516.93   532.32   534.82   547.42
eigval :      553.61   571.82   578.67   585.73   587.13   590.49
eigval :      594.93   609.21   610.21   640.38   648.09   649.63
eigval :      661.33   666.12   696.30   698.94   702.62   719.49
eigval :      755.36   755.76   760.30   767.21   768.16   771.60
eigval :      773.60   785.92   788.49   838.94   861.20   861.28
eigval :      873.78   874.29   878.65   881.09   887.35   888.07
eigval :      895.07   895.47   899.09   899.15   914.95   915.74
eigval :      916.03   918.66   928.24   928.33   933.13   933.22
eigval :      972.90   986.84   989.09   997.20  1007.37  1066.52
eigval :     1069.42  1072.69  1074.53  1075.35  1115.03  1118.22
eigval :     1118.48  1122.99  1139.75  1163.79  1169.34  1174.51
eigval :     1175.39  1177.26  1177.42  1193.06  1197.32  1200.59
eigval :     1204.05  1221.67  1242.22  1246.75  1249.52  1266.80
eigval :     1271.43  1271.92  1275.92  1290.00  1307.29  1321.47
eigval :     1321.54  1337.21  1342.30  1343.58  1349.64  1373.48
eigval :     1374.53  1395.06  1416.79  1421.61  1425.62  1430.72
eigval :     1436.67  1443.06  1460.17  1462.80  1466.25  1470.30
eigval :     1501.47  1504.04  1526.95  1530.98  1531.41  1549.85
eigval :     1550.21  1571.56  1571.63  1576.39  1582.58  1589.92
eigval :     3071.73  3072.77  3073.13  3073.15  3075.69  3075.76
eigval :     3076.90  3076.95  3079.88  3079.93  3087.53  3087.60
eigval :     3088.41  3088.45  3090.99  3091.08  3094.62  3094.95
eigval :     3097.16  3097.54  3098.18  3104.43  3107.94  3115.76

   temp. (K)  partition function   enthalpy   heat capacity  entropy
                                   cal/mol     cal/K/mol   cal/K/mol   J/K/mol
 298.15  VIB  0.751E+12            16711.858    111.307    102.013
         ROT  0.262E+08              888.752      2.981     36.923
         INT  0.196E+20            17600.610    114.288    138.936
         TR   0.103E+29             1481.254      4.968     44.402
         TOT                       19081.8640   119.2565   183.3379   767.0858

       T/K    H(0)-H(T)+PV         H(T)/Eh          T*S/Eh         G(T)/Eh
   ------------------------------------------------------------------------
    298.15    0.304089E-01    0.504405E+00    0.871098E-01    0.417296E+00
   ------------------------------------------------------------------------

         :::::::::::::::::::::::::::::::::::::::::::::::::::::
         ::                  THERMODYNAMIC                  ::
         :::::::::::::::::::::::::::::::::::::::::::::::::::::
         :: total free energy         -94.755360066057 Eh   ::
         ::.................................................::
         :: total energy              -95.172655687409 Eh   ::
         :: zero point energy           0.473996490327 Eh   ::
         :: G(RRHO) w/o ZPVE           -0.056700868975 Eh   ::
         :: G(RRHO) contrib.            0.417295621352 Eh   ::
         :::::::::::::::::::::::::::::::::::::::::::::::::::::

           -------------------------------------------------
          | TOTAL ENERGY              -95.172655687409 Eh   |
          | TOTAL ENTHALPY            -94.668250311122 Eh   |
          | TOTAL FREE ENERGY         -94.755360066057 Eh   |
          | GRADIENT NORM               0.000059088391 Eh/α |
          | HOMO-LUMO GAP               0.224949743592 eV   |
           -------------------------------------------------

 * finished run on 2025/08/29 at 11:46:43.351
