   * xtb version 6.7.1 (edcfbbe) compiled by 'albert@albert-system' on 2024-07-22

   ID    Z sym.   atoms
    1    6 C      1-4, 6-26, 28-38
    2    7 N      5, 27
    3    1 H      39-62

          program call               : xtb data2507/toluene/DPhBCz/DPhBCz.xyz --gfn 2 --gbsa toluene --ohess vtight --parallel 40 --molden --ceasefiles --namespace data2507/toluene/DPhBCz/DPhBCz_toluene_S0_preOpt
      * Solvation model:               GBSA
        Solvent                        toluene
        Solvent mass                       9.2140E+01 g/mol
          :  Hamiltonian                  GFN2-xTB          :
 * total energy  :   -95.2606434 Eh     change       -0.2627587E-09 Eh
 * total energy  :   -95.2720810 Eh     change       -0.1143760E-01 Eh
 * total energy  :   -95.2745523 Eh     change       -0.2471257E-02 Eh
 * total energy  :   -95.2751421 Eh     change       -0.5898184E-03 Eh
 * total energy  :   -95.2755337 Eh     change       -0.3915912E-03 Eh
 * total energy  :   -95.2756728 Eh     change       -0.1391636E-03 Eh
 * total energy  :   -95.2758007 Eh     change       -0.1278483E-03 Eh
 * total energy  :   -95.2759468 Eh     change       -0.1461646E-03 Eh
 * total energy  :   -95.2760996 Eh     change       -0.1527245E-03 Eh
 * total energy  :   -95.2762403 Eh     change       -0.1407566E-03 Eh
 * total energy  :   -95.2768300 Eh     change       -0.5965710E-06 Eh
 * total energy  :   -95.2768306 Eh     change       -0.5857063E-06 Eh
 * total energy  :   -95.2768311 Eh     change       -0.5792943E-06 Eh
 * total energy  :   -95.2768317 Eh     change       -0.5712427E-06 Eh
 * total energy  :   -95.2768323 Eh     change       -0.5666781E-06 Eh
 * total energy  :   -95.2768328 Eh     change       -0.5597466E-06 Eh
 * total energy  :   -95.2768334 Eh     change       -0.5547154E-06 Eh
 * total energy  :   -95.2768339 Eh     change       -0.5469450E-06 Eh
 * total energy  :   -95.2768340 Eh     change       -0.4801024E-08 Eh
   *** GEOMETRY OPTIMIZATION CONVERGED AFTER 152 ITERATIONS ***

 final structure:
================
62
 xtb: 6.7.1 (edcfbbe)
C           -7.87321586620373       -2.83000877617920       -0.96125696500213
C           -7.88764285782696       -1.54009077117107       -1.46643813080551
C           -6.89455092102210       -0.64302836347925       -1.11744710432888
C           -5.88102153462194       -1.03278653947355       -0.24663874492007
N           -4.87344619373729       -0.12345402644405        0.11395914825394
C           -5.07319305930741        1.15032844113277        0.60731130064695
C           -6.25881197998848        1.80379285006008        0.91378279694481
C           -6.17653581100141        3.08240175389086        1.43159490691492
C           -4.94716639066291        3.70152071321049        1.65006824912273
C           -3.76371901813510        3.04885921882629        1.36671519440865
C           -3.82041260901586        1.76250779370076        0.84573168523713
C           -2.81986366634704        0.80366963444010        0.46652555761540
C           -1.43331843909287        0.82984562545438        0.45399896870465
C           -0.73598976640248       -0.28574084204106        0.00885187996479
C            0.73598865567021       -0.28574385070586       -0.00884654990194
C            1.44421702044325       -1.41070356948178        0.43678096579987
C            2.82331320654788       -1.45569178919394        0.44231032118594
C            3.51414658203495       -0.34752521243567       -0.02816231027175
C            2.81986681651887        0.80365661538696       -0.46652461729154
C            1.43332171305027        0.82983831175294       -0.45399755887375
C            3.82041949915217        1.76248996200017       -0.84573294758092
C            3.76373079746707        3.04884066416101       -1.36671877656188
C            4.94718064642925        3.70149551312842       -1.65007689303979
C            6.17654761416112        3.08237122479361       -1.43160483804929
C            6.25881890758250        1.80376358247703       -0.91378875948726
C            5.07319756240014        1.15030531531008       -0.60731364630997
N            4.87344572245375       -0.12347499142399       -0.11395775376998
C            5.88101740644778       -1.03281147372047        0.24664007113156
C            5.87051714420966       -2.32745798697914       -0.26419853383429
C            6.86207560079568       -3.22082472216813        0.09867031755042
C            7.87320603289910       -2.83004105970291        0.96125602440816
C            7.88764151157593       -1.54012134513785        1.46643262476234
C            6.89455136512502       -0.64305591356159        1.11744429298741
C           -1.44422252448780       -1.41069910684769       -0.43677232931691
C           -2.82331889337521       -1.45568150231934       -0.44230260118572
C           -3.51414795842602       -0.34751056896593        0.02816614109180
C           -5.87052911149233       -2.32743163282578        0.26420353285346
C           -6.86209165627758       -3.22079406677247       -0.09866473666777
H           -8.64805492515407       -3.52862901445124       -1.23933132786413
H           -8.67171078448946       -1.23221155409790       -2.14258483638805
H           -6.89101328003191        0.35746744577983       -1.52421659678362
H           -7.21569263029253        1.32673614228894        0.76358252268085
H           -7.08564387811621        3.61249403236951        1.67644070363930
H           -4.92450286755189        4.70271208756198        2.05531713583592
H           -2.81087619264594        3.52299201632816        1.55042006766934
H           -0.90212674974002        1.70280296266668        0.80322812310613
H            0.88958827103643       -2.25914861429391        0.81057723397138
H            3.34529778383425       -2.32470858717975        0.81407546569831
H            0.90213348172162        1.70279756896720       -0.80322712157541
H            2.81088978644507        3.52297677099543       -1.55042438933439
H            4.92452101959101        4.70268726858241       -2.05532502433921
H            7.08565781619212        3.61246073892682       -1.67644866977215
H            7.21569774936459        1.32670362345431       -0.76358740920002
H            5.09143573770488       -2.62164049454754       -0.95179526544196
H            6.84876334213136       -4.22430065596695       -0.30087375505237
H            8.64804069664091       -3.52866525071709        1.23933250612289
H            8.67170852960296       -1.23224657164811        2.14258237588668
H            6.89101840857178        0.35744018237812        1.52421314245522
H           -0.88959711540102       -2.25914711021172       -0.81056688292612
H           -3.34530692290402       -2.32469650032151       -0.81406709607248
H           -5.09144900032611       -2.62161715557877        0.95180046572996
H           -6.84878282372567       -4.22427043999249        0.30087844956648

          :  Hamiltonian                  GFN2-xTB          :
         :: gradient norm              0.000056247729 Eh/a0 ::
         :: HOMO-LUMO gap              2.955638639067 eV    ::
         :: SCC energy               -97.097331997338 Eh    ::
         :: -> dispersion             -0.083339127535 Eh    ::
         :: -> Gsolv                  -0.039230096948 Eh    ::
         :: repulsion energy           1.820498045878 Eh    ::

    * Orbital Energies and Occupations

         #    Occupation            Energy/Eh            Energy/eV
      -------------------------------------------------------------
         1        2.0000           -0.6743533             -18.3501
       ...           ...                  ...                  ...
        77        2.0000           -0.4196399             -11.4190
        78        2.0000           -0.4137017             -11.2574
        79        2.0000           -0.4133518             -11.2479
        80        2.0000           -0.4115286             -11.1983
        81        2.0000           -0.4110777             -11.1860
        82        2.0000           -0.4089842             -11.1290
        83        2.0000           -0.4086864             -11.1209
        84        2.0000           -0.4066533             -11.0656
        85        2.0000           -0.3965268             -10.7900
        86        2.0000           -0.3780588             -10.2875
        87        2.0000           -0.3756490             -10.2219
        88        2.0000           -0.3649094              -9.9297
        89        2.0000           -0.3529528              -9.6043 (HOMO)
        90                         -0.2443350              -6.6487 (LUMO)
        91                         -0.2441589              -6.6439
        92                         -0.2363403              -6.4311
        93                         -0.2318101              -6.3079
        94                         -0.2302474              -6.2653
        95                         -0.2302459              -6.2653
        96                         -0.2291557              -6.2356
        97                         -0.2133307              -5.8050
        98                         -0.1974088              -5.3718
        99                         -0.1860523              -5.0627
       100                         -0.1855012              -5.0477
       ...                                ...                  ...
       176                          0.7540492              20.5187
      -------------------------------------------------------------
                  HL-Gap            0.1086177 Eh            2.9556 eV

     #   Z          covCN         q      C6AA      α(0)
     1   6 C        2.919    -0.033    28.825     8.804
     2   6 C        2.920    -0.028    28.705     8.786
     3   6 C        2.922    -0.042    29.047     8.838
     4   6 C        2.913     0.064    26.557     8.450
     5   7 N        2.802    -0.048    22.158     6.991
     6   6 C        3.076     0.048    26.854     8.496
     7   6 C        2.909    -0.052    29.296     8.875
     8   6 C        2.924    -0.036    28.884     8.814
     9   6 C        2.919    -0.043    29.073     8.842
    10   6 C        2.912    -0.035    28.874     8.811
    11   6 C        3.067    -0.019    28.411     8.740
    12   6 C        3.064    -0.020    28.433     8.744
    13   6 C        2.918    -0.040    29.003     8.831
    14   6 C        2.976    -0.002    28.079     8.692
    15   6 C        2.976    -0.002    28.079     8.692
    16   6 C        2.928    -0.040    28.996     8.831
    17   6 C        2.908    -0.053    29.315     8.878
    18   6 C        3.076     0.046    26.899     8.503
    19   6 C        3.064    -0.020    28.433     8.744
    20   6 C        2.918    -0.040    29.003     8.831
    21   6 C        3.067    -0.019    28.411     8.740
    22   6 C        2.912    -0.035    28.874     8.811
    23   6 C        2.919    -0.043    29.073     8.842
    24   6 C        2.924    -0.036    28.884     8.814
    25   6 C        2.909    -0.052    29.296     8.875
    26   6 C        3.076     0.048    26.854     8.496
    27   7 N        2.802    -0.048    22.158     6.991
    28   6 C        2.913     0.064    26.557     8.450
    29   6 C        2.922    -0.042    29.048     8.838
    30   6 C        2.920    -0.028    28.705     8.786
    31   6 C        2.919    -0.033    28.825     8.804
    32   6 C        2.920    -0.028    28.705     8.786
    33   6 C        2.922    -0.042    29.047     8.838
    34   6 C        2.928    -0.040    28.996     8.831
    35   6 C        2.908    -0.053    29.315     8.878
    36   6 C        3.076     0.046    26.899     8.503
    37   6 C        2.922    -0.042    29.048     8.838
    38   6 C        2.920    -0.028    28.705     8.786
    39   1 H        0.926     0.039     2.463     2.454
    40   1 H        0.926     0.040     2.452     2.449
    41   1 H        0.926     0.041     2.441     2.443
    42   1 H        0.926     0.029     2.599     2.521
    43   1 H        0.926     0.029     2.599     2.521
    44   1 H        0.926     0.027     2.632     2.537
    45   1 H        0.926     0.029     2.600     2.521
    46   1 H        0.926     0.030     2.585     2.514
    47   1 H        0.926     0.031     2.574     2.509
    48   1 H        0.926     0.029     2.595     2.519
    49   1 H        0.926     0.030     2.585     2.514
    50   1 H        0.926     0.029     2.600     2.521
    51   1 H        0.926     0.027     2.632     2.537
    52   1 H        0.926     0.029     2.599     2.521
    53   1 H        0.926     0.029     2.599     2.521
    54   1 H        0.926     0.041     2.437     2.441
    55   1 H        0.926     0.040     2.451     2.448
    56   1 H        0.926     0.039     2.463     2.454
    57   1 H        0.926     0.040     2.452     2.449
    58   1 H        0.926     0.041     2.441     2.443
    59   1 H        0.926     0.031     2.574     2.509
    60   1 H        0.926     0.029     2.595     2.519
    61   1 H        0.926     0.041     2.437     2.441
    62   1 H        0.926     0.040     2.451     2.448

molecular dipole:
                 x           y           z       tot (Debye)
 q only:       -0.000      -0.943       0.000
   full:       -0.000      -0.991       0.000       2.518

 projected vibrational frequencies (cm⁻¹)
eigval :       -0.00     0.00     0.00     0.00     0.00     0.00
eigval :       19.33    19.91    25.72    47.83    56.87    62.83
eigval :       64.46    65.72    68.74    99.23   104.40   127.67
eigval :      134.29   160.72   169.06   193.63   214.35   230.67
eigval :      248.81   264.25   272.25   272.38   305.96   330.54
eigval :      358.32   376.28   380.28   380.50   395.43   397.49
eigval :      404.85   417.82   426.47   433.90   436.49   472.61
eigval :      478.22   481.39   528.56   536.24   536.77   557.05
eigval :      571.83   579.22   586.82   592.50   592.79   606.75
eigval :      607.41   619.02   625.20   654.63   669.00   674.20
eigval :      677.26   686.07   705.48   706.57   714.92   729.68
eigval :      762.95   763.18   769.37   776.52   776.73   807.71
eigval :      825.71   844.92   865.18   870.19   870.88   878.27
eigval :      881.54   882.56   893.06   899.45   900.42   903.20
eigval :      904.57   908.73   912.17   917.51   922.31   924.01
eigval :      924.02   931.75   932.06   932.85   933.65   934.49
eigval :      996.96   997.34  1011.96  1029.27  1069.42  1070.90
eigval :     1072.16  1079.02  1079.04  1116.73  1116.78  1119.58
eigval :     1122.72  1152.65  1156.86  1176.33  1176.38  1178.47
eigval :     1178.47  1182.35  1183.65  1199.05  1199.31  1212.33
eigval :     1227.56  1242.49  1245.97  1255.23  1272.99  1273.27
eigval :     1279.53  1286.66  1302.28  1315.49  1315.52  1318.56
eigval :     1345.33  1349.90  1358.91  1360.51  1360.93  1371.72
eigval :     1417.17  1420.38  1426.42  1432.55  1434.16  1436.18
eigval :     1467.81  1479.69  1479.72  1481.11  1483.75  1492.21
eigval :     1562.32  1567.32  1581.17  1581.87  1582.51  1583.65
eigval :     1593.13  1593.21  1595.38  1598.65  1610.94  1615.65
eigval :     3070.29  3070.29  3073.87  3075.46  3075.47  3075.70
eigval :     3075.96  3076.20  3077.82  3077.87  3081.17  3082.93
eigval :     3083.47  3084.07  3086.69  3087.08  3087.35  3088.28
eigval :     3090.63  3090.67  3091.20  3091.55  3096.84  3096.88

   temp. (K)  partition function   enthalpy   heat capacity  entropy
                                   cal/mol     cal/K/mol   cal/K/mol   J/K/mol
 298.15  VIB  0.422E+12            16327.404    108.704     99.597
         ROT  0.261E+08              888.752      2.981     36.918
         INT  0.110E+20            17216.156    111.685    136.515
         TR   0.103E+29             1481.254      4.968     44.402
         TOT                       18697.4098   116.6530   180.9170   756.9569

       T/K    H(0)-H(T)+PV         H(T)/Eh          T*S/Eh         G(T)/Eh
   ------------------------------------------------------------------------
    298.15    0.297962E-01    0.508833E+00    0.859595E-01    0.422874E+00
   ------------------------------------------------------------------------

         :::::::::::::::::::::::::::::::::::::::::::::::::::::
         ::                  THERMODYNAMIC                  ::
         :::::::::::::::::::::::::::::::::::::::::::::::::::::
         :: total free energy         -94.853960451642 Eh   ::
         ::.................................................::
         :: total energy              -95.276833951784 Eh   ::
         :: zero point energy           0.479036800484 Eh   ::
         :: G(RRHO) w/o ZPVE           -0.056163300342 Eh   ::
         :: G(RRHO) contrib.            0.422873500142 Eh   ::
         :::::::::::::::::::::::::::::::::::::::::::::::::::::

           -------------------------------------------------
          | TOTAL ENERGY              -95.276833951784 Eh   |
          | TOTAL ENTHALPY            -94.768000932118 Eh   |
          | TOTAL FREE ENERGY         -94.853960451642 Eh   |
          | GRADIENT NORM               0.000056246438 Eh/α |
          | HOMO-LUMO GAP               2.955638690283 eV   |
           -------------------------------------------------

 * finished run on 2025/08/29 at 11:44:18.061
