   * xtb version 6.7.1 (edcfbbe) compiled by 'albert@albert-system' on 2024-07-22

   ID    Z sym.   atoms
    1    6 C      1-4, 6-26, 28-38
    2    7 N      5, 27
    3    1 H      39-62

          program call               : xtb data2507/toluene/DPhBCz/DPhBCz_toluene_S0_crest.xyz --gfn 2 --gbsa toluene --ohess vtight --parallel 40 --molden --ceasefiles --namespace data2507/toluene/DPhBCz/DPhBCz_toluene_S0_finalOpt
      * Solvation model:               GBSA
        Solvent                        toluene
        Solvent mass                       9.2140E+01 g/mol
          :  Hamiltonian                  GFN2-xTB          :
 * total energy  :   -95.2767865 Eh     change       -0.3242775E-09 Eh
 * total energy  :   -95.2768089 Eh     change       -0.2231842E-04 Eh
 * total energy  :   -95.2768230 Eh     change       -0.1415008E-04 Eh
 * total energy  :   -95.2768295 Eh     change       -0.6474688E-05 Eh
 * total energy  :   -95.2768364 Eh     change       -0.6917682E-05 Eh
 * total energy  :   -95.2768412 Eh     change       -0.4787677E-05 Eh
 * total energy  :   -95.2768449 Eh     change       -0.3767619E-05 Eh
 * total energy  :   -95.2768476 Eh     change       -0.2687716E-05 Eh
 * total energy  :   -95.2768490 Eh     change       -0.1403156E-05 Eh
 * total energy  :   -95.2768498 Eh     change       -0.7637642E-06 Eh
 * total energy  :   -95.2768503 Eh     change       -0.5208692E-06 Eh
 * total energy  :   -95.2768506 Eh     change       -0.3110544E-06 Eh
 * total energy  :   -95.2768508 Eh     change       -0.1476244E-06 Eh
 * total energy  :   -95.2768509 Eh     change       -0.1594108E-06 Eh
 * total energy  :   -95.2768512 Eh     change       -0.2261293E-06 Eh
 * total energy  :   -95.2768513 Eh     change       -0.1507813E-06 Eh
 * total energy  :   -95.2768514 Eh     change       -0.8483114E-07 Eh
   *** GEOMETRY OPTIMIZATION CONVERGED AFTER 17 ITERATIONS ***

 final structure:
================
62
 xtb: 6.7.1 (edcfbbe)
C           -7.84600553162878       -2.91034991782373       -1.02606173321695
C           -7.86136394574046       -1.62994132269873       -1.55485305238550
C           -6.87770999640342       -0.72079368635653       -1.21020935118958
C           -5.87304424355145       -1.08876272239794       -0.31993368194605
N           -4.87502114932498       -0.16771307005032        0.03736418682520
C           -5.08706674946059        1.11191818511487        0.50983264798251
C           -6.27983892025361        1.76568271463850        0.78626294451482
C           -6.21048538140159        3.05203684785273        1.28648674463587
C           -4.98697094356024        3.67842595311796        1.51675453213124
C           -3.79677140356241        3.02549204543869        1.26387699640215
C           -3.84033067294629        1.73136520294198        0.76117542903585
C           -2.83040979326582        0.77059091548921        0.41259526619508
C           -1.44386537475803        0.79975994665303        0.42588057514497
C           -0.73561575784782       -0.31903238872665        0.00628976300240
C            0.73630040097701       -0.31748674017770        0.01459931382894
C            1.43751829526270       -1.44591228826625        0.46323583823859
C            2.81624189437479       -1.49331557207552        0.48615767660413
C            3.51480303831160       -0.38303202025077        0.03244299519103
C            2.82804954022829        0.77350935578283       -0.40346223941470
C            1.44145690764067        0.80093041796882       -0.41116195895859
C            3.83521510582732        1.73393661274673       -0.76074966981049
C            3.78763703144287        3.02630741317592       -1.26756179813780
C            4.97579958223109        3.67921541942295       -1.52986878387036
C            6.20110371171010        3.05439350957353       -1.30496779307675
C            6.27441597772734        1.76979679800733       -0.80078821377855
C            5.08383722408919        1.11618317545838       -0.51470606892077
N            4.87542806185040       -0.16191909091237       -0.03637390578994
C            5.87650125331817       -1.08216811615038        0.31436899041474
C            5.86091246106013       -2.36820459928834       -0.21784288028150
C            6.84657777124474       -3.27268378279754        0.13311642276470
C            7.85694086471041       -2.90150676288065        1.00523481835032
C            7.87621182903599       -1.62034572325028        1.53206357947269
C            6.88888921573854       -0.71230601616921        1.19505356411538
C           -1.43359535201881       -1.45034384199857       -0.44013795523732
C           -2.81212620171291       -1.49951402121938       -0.46870019945287
C           -3.51387373049414       -0.38803840206178       -0.02295251278469
C           -5.86160984494206       -2.37390854964781        0.21448931536577
C           -6.84349223841800       -3.27953382755796       -0.14409713072176
H           -8.61341256325861       -3.61844171820353       -1.30077112867421
H           -8.63874211909578       -1.33910803857556       -2.24609618564486
H           -6.87461353360239        0.27208006440716       -1.63529770905166
H           -7.23246341986330        1.28325036085962        0.62652028580572
H           -7.12530345687454        3.58271667719001        1.50763010599876
H           -4.97446033682457        4.68572721504046        1.90701728341038
H           -2.84878139619066        3.50564463432982        1.45681489773719
H           -0.92166055805721        1.67786494666703        0.77567323035574
H            0.87742290564658       -2.29605954245528        0.82466971435035
H            3.33214982212457       -2.36597861319161        0.85792312847598
H            0.91676500493796        1.67704811793881       -0.76219617848075
H            2.83812177349848        3.50510242794465       -1.45632605938941
H            4.96019046251366        4.68519019967428       -1.92342075030439
H            7.11419730092141        3.58486878070864       -1.53359953418517
H            7.22837303467608        1.28858253131011       -0.64544700445691
H            5.08252088800073       -2.64677774272199       -0.91271129445687
H            6.82938430494639       -4.26921618983841       -0.28330229310673
H            8.62745884402884       -3.60860830062916        1.27372048614476
H            8.65969286815425       -1.32798815280060        2.21572748741179
H            6.88913582764257        0.28122619899496        1.61860061803943
H           -0.87096210920354       -2.30119694273401       -0.79591345522148
H           -3.32541594197079       -2.37417370188467       -0.83937350632493
H           -5.08935021909154       -2.65095475274133        0.91677681192284
H           -6.82948899624871       -4.27545023411434        0.27390655480177

          :  Hamiltonian                  GFN2-xTB          :
         :: gradient norm              0.000026391304 Eh/a0 ::
         :: HOMO-LUMO gap              2.951563014144 eV    ::
         :: SCC energy               -97.097297316511 Eh    ::
         :: -> dispersion             -0.083349883398 Eh    ::
         :: -> Gsolv                  -0.039225620053 Eh    ::
         :: repulsion energy           1.820445911430 Eh    ::

    * Orbital Energies and Occupations

         #    Occupation            Energy/Eh            Energy/eV
      -------------------------------------------------------------
         1        2.0000           -0.6743668             -18.3505
       ...           ...                  ...                  ...
        77        2.0000           -0.4196514             -11.4193
        78        2.0000           -0.4137542             -11.2588
        79        2.0000           -0.4132663             -11.2455
        80        2.0000           -0.4115367             -11.1985
        81        2.0000           -0.4110879             -11.1863
        82        2.0000           -0.4089563             -11.1283
        83        2.0000           -0.4086825             -11.1208
        84        2.0000           -0.4067323             -11.0677
        85        2.0000           -0.3964732             -10.7886
        86        2.0000           -0.3780863             -10.2883
        87        2.0000           -0.3756166             -10.2210
        88        2.0000           -0.3649887              -9.9318
        89        2.0000           -0.3528346              -9.6011 (HOMO)
        90                         -0.2443666              -6.6496 (LUMO)
        91                         -0.2441244              -6.6430
        92                         -0.2365723              -6.4375
        93                         -0.2318007              -6.3076
        94                         -0.2302604              -6.2657
        95                         -0.2302526              -6.2655
        96                         -0.2292085              -6.2371
        97                         -0.2132520              -5.8029
        98                         -0.1975121              -5.3746
        99                         -0.1860275              -5.0621
       100                         -0.1855211              -5.0483
       ...                                ...                  ...
       176                          0.7540453              20.5186
      -------------------------------------------------------------
                  HL-Gap            0.1084679 Eh            2.9516 eV

     #   Z          covCN         q      C6AA      α(0)
     1   6 C        2.919    -0.033    28.825     8.804
     2   6 C        2.920    -0.028    28.705     8.786
     3   6 C        2.922    -0.042    29.048     8.838
     4   6 C        2.913     0.064    26.557     8.450
     5   7 N        2.802    -0.048    22.158     6.991
     6   6 C        3.076     0.048    26.854     8.496
     7   6 C        2.909    -0.052    29.297     8.875
     8   6 C        2.924    -0.036    28.884     8.814
     9   6 C        2.919    -0.043    29.074     8.842
    10   6 C        2.912    -0.035    28.874     8.811
    11   6 C        3.068    -0.019    28.411     8.740
    12   6 C        3.064    -0.020    28.434     8.744
    13   6 C        2.918    -0.040    29.004     8.831
    14   6 C        2.976    -0.002    28.080     8.692
    15   6 C        2.976    -0.002    28.080     8.692
    16   6 C        2.929    -0.040    28.998     8.831
    17   6 C        2.908    -0.053    29.315     8.878
    18   6 C        3.077     0.046    26.898     8.503
    19   6 C        3.064    -0.020    28.434     8.744
    20   6 C        2.918    -0.040    29.004     8.831
    21   6 C        3.068    -0.019    28.411     8.740
    22   6 C        2.912    -0.035    28.874     8.811
    23   6 C        2.919    -0.043    29.073     8.842
    24   6 C        2.924    -0.036    28.884     8.814
    25   6 C        2.909    -0.052    29.297     8.875
    26   6 C        3.076     0.048    26.854     8.496
    27   7 N        2.802    -0.048    22.157     6.991
    28   6 C        2.913     0.064    26.557     8.450
    29   6 C        2.922    -0.042    29.047     8.838
    30   6 C        2.920    -0.028    28.705     8.786
    31   6 C        2.919    -0.033    28.825     8.804
    32   6 C        2.920    -0.028    28.705     8.786
    33   6 C        2.922    -0.042    29.048     8.838
    34   6 C        2.929    -0.040    28.998     8.831
    35   6 C        2.908    -0.053    29.315     8.878
    36   6 C        3.077     0.046    26.898     8.503
    37   6 C        2.922    -0.042    29.047     8.838
    38   6 C        2.920    -0.028    28.705     8.786
    39   1 H        0.926     0.039     2.463     2.454
    40   1 H        0.926     0.040     2.452     2.449
    41   1 H        0.926     0.041     2.440     2.443
    42   1 H        0.926     0.029     2.599     2.521
    43   1 H        0.926     0.029     2.599     2.521
    44   1 H        0.926     0.027     2.632     2.537
    45   1 H        0.926     0.029     2.600     2.522
    46   1 H        0.926     0.030     2.584     2.514
    47   1 H        0.926     0.031     2.572     2.508
    48   1 H        0.926     0.029     2.596     2.519
    49   1 H        0.926     0.030     2.584     2.514
    50   1 H        0.926     0.029     2.600     2.522
    51   1 H        0.926     0.027     2.632     2.537
    52   1 H        0.926     0.029     2.599     2.521
    53   1 H        0.926     0.029     2.599     2.521
    54   1 H        0.926     0.041     2.438     2.442
    55   1 H        0.926     0.040     2.451     2.448
    56   1 H        0.926     0.039     2.463     2.454
    57   1 H        0.926     0.040     2.452     2.449
    58   1 H        0.926     0.041     2.440     2.443
    59   1 H        0.926     0.031     2.572     2.508
    60   1 H        0.926     0.029     2.595     2.519
    61   1 H        0.926     0.041     2.438     2.442
    62   1 H        0.926     0.040     2.451     2.448

molecular dipole:
                 x           y           z       tot (Debye)
 q only:        0.002      -0.953      -0.003
   full:        0.002      -1.002      -0.004       2.546

 projected vibrational frequencies (cm⁻¹)
eigval :       -0.00    -0.00    -0.00     0.00     0.00     0.00
eigval :       19.94    20.52    25.95    48.56    56.71    63.34
eigval :       65.33    68.05    71.59    98.82   104.50   127.76
eigval :      134.72   161.03   168.62   193.90   214.19   230.90
eigval :      249.13   264.01   272.71   272.91   305.67   331.13
eigval :      357.95   376.91   381.27   381.47   395.28   397.30
eigval :      404.68   418.00   426.34   434.04   436.50   473.26
eigval :      479.33   482.26   528.74   536.15   536.73   557.40
eigval :      571.50   579.35   586.80   592.53   592.59   606.87
eigval :      607.90   618.97   625.15   654.90   669.57   674.74
eigval :      677.13   686.12   705.94   707.10   715.04   729.74
eigval :      763.30   763.89   769.29   775.52   775.75   807.65
eigval :      825.95   844.86   865.05   869.98   870.60   878.08
eigval :      882.43   883.42   892.93   899.24   899.89   902.92
eigval :      904.25   908.49   912.58   917.52   922.27   922.67
eigval :      922.83   932.50   933.24   933.70   934.07   934.93
eigval :      996.93   997.32  1011.96  1029.45  1069.27  1070.96
eigval :     1072.09  1079.10  1079.23  1116.59  1116.72  1119.50
eigval :     1122.63  1152.58  1157.21  1176.21  1176.26  1177.95
eigval :     1177.98  1182.40  1183.90  1199.06  1199.42  1213.34
eigval :     1227.46  1242.48  1246.41  1255.10  1273.15  1273.52
eigval :     1279.48  1286.80  1302.32  1315.48  1315.53  1318.62
eigval :     1345.26  1349.89  1358.98  1360.45  1360.88  1371.86
eigval :     1417.19  1420.41  1426.48  1432.44  1434.18  1436.36
eigval :     1467.87  1479.67  1479.80  1481.19  1483.67  1491.95
eigval :     1562.22  1567.28  1581.15  1581.87  1582.43  1583.60
eigval :     1593.13  1593.24  1595.21  1598.63  1610.83  1615.60
eigval :     3070.13  3070.21  3074.11  3075.43  3075.49  3075.79
eigval :     3075.98  3076.36  3077.83  3077.92  3081.37  3083.03
eigval :     3083.56  3084.17  3086.74  3087.00  3087.33  3088.43
eigval :     3090.44  3090.55  3091.16  3091.54  3096.81  3096.84

   temp. (K)  partition function   enthalpy   heat capacity  entropy
                                   cal/mol     cal/K/mol   cal/K/mol   J/K/mol
 298.15  VIB  0.357E+12            16311.459    108.769     99.409
         ROT  0.261E+08              888.752      2.981     36.919
         INT  0.932E+19            17200.211    111.750    136.328
         TR   0.103E+29             1481.254      4.968     44.402
         TOT                       18681.4650   116.7185   180.7300   756.1744

       T/K    H(0)-H(T)+PV         H(T)/Eh          T*S/Eh         G(T)/Eh
   ------------------------------------------------------------------------
    298.15    0.297708E-01    0.508851E+00    0.858707E-01    0.422980E+00
   ------------------------------------------------------------------------

         :::::::::::::::::::::::::::::::::::::::::::::::::::::
         ::                  THERMODYNAMIC                  ::
         :::::::::::::::::::::::::::::::::::::::::::::::::::::
         :: total free energy         -94.853871477228 Eh   ::
         ::.................................................::
         :: total energy              -95.276851404724 Eh   ::
         :: zero point energy           0.479079782957 Eh   ::
         :: G(RRHO) w/o ZPVE           -0.056099855461 Eh   ::
         :: G(RRHO) contrib.            0.422979927496 Eh   ::
         :::::::::::::::::::::::::::::::::::::::::::::::::::::

           -------------------------------------------------
          | TOTAL ENERGY              -95.276851404724 Eh   |
          | TOTAL ENTHALPY            -94.768000812267 Eh   |
          | TOTAL FREE ENERGY         -94.853871477228 Eh   |
          | GRADIENT NORM               0.000026392086 Eh/α |
          | HOMO-LUMO GAP               2.951563003740 eV   |
           -------------------------------------------------

 * finished run on 2025/08/29 at 11:46:28.567
