   * xtb version 6.7.1 (edcfbbe) compiled by 'albert@albert-system' on 2024-07-22

   ID    Z sym.   atoms
    1    6 C      1-7, 9-22, 24-36, 38-51
    2    7 N      8, 23, 37
    3    1 H      52-88

          program call               : xtb data2507/toluene/DFPBI/DFPBI_toluene_T1_crest.xyz --gfn 2 --uhf 2 --gbsa toluene --ohess vtight --parallel 40 --molden --ceasefiles --namespace data2507/toluene/DFPBI/DFPBI_toluene_T1_finalOpt
      * Solvation model:               GBSA
        Solvent                        toluene
        Solvent mass                       9.2140E+01 g/mol
          :  Hamiltonian                  GFN2-xTB          :
 * total energy  :  -130.4463779 Eh     change       -0.2403397E-08 Eh
 * total energy  :  -130.4464383 Eh     change       -0.6042885E-04 Eh
 * total energy  :  -130.4464778 Eh     change       -0.3953251E-04 Eh
 * total energy  :  -130.4464956 Eh     change       -0.1779303E-04 Eh
 * total energy  :  -130.4465188 Eh     change       -0.2316431E-04 Eh
 * total energy  :  -130.4465366 Eh     change       -0.1776679E-04 Eh
 * total energy  :  -130.4465473 Eh     change       -0.1070365E-04 Eh
 * total energy  :  -130.4465546 Eh     change       -0.7323020E-05 Eh
 * total energy  :  -130.4465600 Eh     change       -0.5387263E-05 Eh
 * total energy  :  -130.4465637 Eh     change       -0.3721950E-05 Eh
 * total energy  :  -130.4465918 Eh     change       -0.6871831E-06 Eh
 * total energy  :  -130.4465926 Eh     change       -0.7369903E-06 Eh
 * total energy  :  -130.4465933 Eh     change       -0.6987460E-06 Eh
 * total energy  :  -130.4465940 Eh     change       -0.6995299E-06 Eh
 * total energy  :  -130.4465946 Eh     change       -0.6221208E-06 Eh
 * total energy  :  -130.4465951 Eh     change       -0.5507841E-06 Eh
 * total energy  :  -130.4465956 Eh     change       -0.4358563E-06 Eh
 * total energy  :  -130.4465958 Eh     change       -0.2758092E-06 Eh
 * total energy  :  -130.4465958 Eh     change       -0.2313953E-08 Eh
   *** GEOMETRY OPTIMIZATION CONVERGED AFTER 44 ITERATIONS ***

 final structure:
================
88
 xtb: 6.7.1 (edcfbbe)
C            1.61827172767069        1.19228940392270        1.92197732685017
C            1.66475890859852        0.87294028350839        0.42356634238205
C            1.63380052548800        2.16849519014831       -0.39524420343058
C            0.53458107943121       -0.05200625516629        0.02344597872979
C           -0.79964675786758        0.17281876110672        0.09621292365790
C           -1.71414299225379       -0.83984728590499       -0.33151828302615
C           -3.11221805119713       -0.71713195411415       -0.29218383766930
N           -3.92967766252947       -1.78004536075928       -0.36514084728877
C           -5.17686783661726       -1.34577041526378       -0.16541291607088
C           -6.30434372699034       -2.26526463945365       -0.21943180609349
C           -7.54621984960689       -1.88018326216376       -0.72425966684439
C           -8.58973075680635       -2.78533222182711       -0.77221468676406
C           -8.41073750192511       -4.08514827765035       -0.32591759103147
C           -7.17353986492820       -4.48224320224044        0.15681081971358
C           -6.12694979739801       -3.58191506651922        0.20667657272436
C           -5.18460304449059        0.05056622460291        0.02567525868071
C           -6.29306984413035        0.93866392146068        0.28286303647298
C           -7.28115507281454        0.56158154631703        1.20337886247705
C           -8.35171655144800        1.39060473185024        1.46411618413732
C           -8.46710650515498        2.61239275330329        0.81540888021752
C           -7.50113232207803        2.99287968509729       -0.10426362797220
C           -6.42445212406495        2.17117331755299       -0.36968447295975
N           -3.86702879697671        0.44455220416174       -0.08418092183889
C           -3.41683395528650        1.77090480750896       -0.06382520958805
C           -2.66134865155419        2.26692608783177       -1.12798628663161
C           -2.23516230742650        3.58042280204984       -1.11547952331934
C           -2.56030936952696        4.41237560255232       -0.05400360816143
C           -3.31338191448289        3.92127815933720        1.00163682158794
C           -3.74355751315235        2.60811731812767        1.00216326360514
C           -1.17268161407889       -2.09145417377518       -0.77445854952231
C            0.16506410979329       -2.31207438450025       -0.85743052292513
C            1.06373463875594       -1.28690172188280       -0.47294404933958
C            2.46806614415232       -1.23081755821374       -0.44101652000443
C            3.45337002372693       -2.16851962466754       -0.81479122777487
C            4.77630513776874       -1.84856957626625       -0.66611741393876
C            5.17570872226234       -0.59767022747625       -0.15236749542340
N            6.52355099933817       -0.29203456197002       -0.01608636053923
C            6.96972174398555        1.01775322068159       -0.22285850852089
C            7.98265196132005        1.55490580062817        0.57463529822160
C            8.41792945084971        2.84871559495225        0.36534892530763
C            7.85148689111739        3.62785109060038       -0.63217120642408
C            6.84357479624940        3.09994660934377       -1.42494089707971
C            6.40394912479496        1.80585223763431       -1.22793372086496
C            7.44163376037554       -1.28868978052166        0.33094439033583
C            8.71895994667981       -1.30156393397331       -0.23383796446600
C            9.62117104669972       -2.28767329556604        0.11339080499834
C            9.26752962053020       -3.27544990543492        1.02009484025375
C            7.99966726301439       -3.26838396518943        1.58173767732261
C            7.09105129438979       -2.28442753363123        1.24551480080040
C            4.19342874534164        0.34867201625376        0.21904711651573
C            2.87611888541008        0.03540695953756        0.07868424810073
H            0.70856802008681        1.73882973860471        2.16045991535421
H            1.63285720101854        0.27238123682531        2.50334615916911
H            2.47501542760866        1.79893165739663        2.20619824386347
H            0.72136735694702        2.72145652437013       -0.18407471185351
H            2.48875444682431        2.79344302965589       -0.14739495474595
H            1.66326274416799        1.94101681769850       -1.45908884333341
H           -1.17491773817538        1.09263056816876        0.51484997599038
H           -7.68773634165526       -0.87480025989069       -1.09283143684674
H           -9.54731840542149       -2.47514737739256       -1.16531446751121
H           -9.23030114464327       -4.78801716336742       -0.36171121757911
H           -7.02584634918018       -5.49757316167980        0.49581419155360
H           -5.15704631218089       -3.87723763494361        0.57780413572238
H           -7.18615294187737       -0.38389410514619        1.71775451344055
H           -9.09982564015093        1.08693927440936        2.18211738353624
H           -9.30519319330592        3.26074029426024        1.02301395871913
H           -7.59055721459039        3.93672729746926       -0.62273576198558
H           -5.69309737600119        2.46761689537047       -1.10729246134042
H           -2.41473816066473        1.61239966208943       -1.95133760740198
H           -1.65082595021447        3.95838402040283       -1.94140861801524
H           -2.22747465770577        5.43924669410818       -0.04978627751951
H           -3.56553446646038        4.56371444042006        1.83227230081934
H           -4.32443149912326        2.21921198627235        1.82553005982354
H           -1.88342402167516       -2.85159224776726       -1.05988866092816
H            0.54822927040688       -3.25759918820100       -1.21284337465583
H            3.16285825670067       -3.12272018595626       -1.22730849506965
H            5.53989373517590       -2.55120164252586       -0.96778676132503
H            8.41484900737467        0.95372397263849        1.36108669245438
H            9.19944464392413        3.25484281774837        0.99053796295617
H            8.19340017111249        4.63937018183894       -0.79085378022111
H            6.40241452934819        3.69804757612203       -2.20872359596676
H            5.62900617415047        1.38946045374751       -1.85455023361563
H            8.99073485556540       -0.54039382823815       -0.95036357502077
H           10.60472794107769       -2.29015910802224       -0.33282305245514
H            9.97498671817496       -4.04565436487167        1.28737075540320
H            7.71924540168195       -4.03063796766294        2.29368158452435
H            6.10833764284016       -2.26992618786810        1.69356328289892
H            4.50488424937498        1.29771579666699        0.63007006987606

          :  Hamiltonian                  GFN2-xTB          :
         :: gradient norm              0.000040989657 Eh/a0 ::
         :: HOMO-LUMO gap              0.564735677475 eV    ::
         :: SCC energy              -132.860054256375 Eh    ::
         :: -> dispersion             -0.124710345385 Eh    ::
         :: -> Gsolv                  -0.054595463459 Eh    ::
         :: repulsion energy           2.413458405658 Eh    ::

    * Orbital Energies and Occupations

         #    Occupation            Energy/Eh            Energy/eV
      -------------------------------------------------------------
         1        2.0000           -0.6784000             -18.4602
       ...           ...                  ...                  ...
       111        2.0000           -0.4094722             -11.1423
       112        2.0000           -0.4074576             -11.0875
       113        2.0000           -0.4063521             -11.0574
       114        2.0000           -0.4030980             -10.9689
       115        2.0000           -0.4024031             -10.9499
       116        2.0000           -0.4013118             -10.9202
       117        2.0000           -0.3940564             -10.7228
       118        2.0000           -0.3906224             -10.6294
       119        2.0000           -0.3842475             -10.4559
       120        2.0000           -0.3726087             -10.1392
       121        1.9999           -0.3605077              -9.8099
       122        1.0001           -0.3426758              -9.3247
       123        1.0000           -0.2685814              -7.3085 (HOMO)
       124        0.0000           -0.2478279              -6.7437 (LUMO)
       125                         -0.2375198              -6.4632
       126                         -0.2345807              -6.3833
       127                         -0.2321375              -6.3168
       128                         -0.2320222              -6.3136
       129                         -0.2277829              -6.1983
       130                         -0.2255603              -6.1378
       131                         -0.2240680              -6.0972
       132                         -0.2194294              -5.9710
       133                         -0.2173034              -5.9131
       134                         -0.2147390              -5.8433
       ...                                ...                  ...
       241                          0.7442772              20.2528
      -------------------------------------------------------------
                  HL-Gap            0.0207535 Eh            0.5647 eV

     #   Z          covCN         q      C6AA      α(0)
     1   6 C        3.758    -0.099    22.438     6.753
     2   6 C        3.930     0.017    20.225     6.391
     3   6 C        3.758    -0.099    22.441     6.754
     4   6 C        3.047    -0.004    28.074     8.690
     5   6 C        2.909    -0.051    29.272     8.872
     6   6 C        2.969    -0.018    28.458     8.750
     7   6 C        3.115     0.127    25.076     8.203
     8   7 N        1.897    -0.326    29.301     8.025
     9   6 C        3.136     0.072    26.178     8.375
    10   6 C        2.974     0.006    27.884     8.662
    11   6 C        2.923    -0.035    28.873     8.812
    12   6 C        2.918    -0.030    28.759     8.794
    13   6 C        2.919    -0.031    28.774     8.796
    14   6 C        2.918    -0.030    28.751     8.793
    15   6 C        2.927    -0.029    28.726     8.789
    16   6 C        3.038     0.024    27.439     8.592
    17   6 C        2.969     0.001    28.010     8.681
    18   6 C        2.925    -0.035    28.876     8.812
    19   6 C        2.917    -0.030    28.747     8.792
    20   6 C        2.919    -0.035    28.866     8.810
    21   6 C        2.917    -0.031    28.765     8.795
    22   6 C        2.922    -0.036    28.892     8.815
    23   7 N        2.825    -0.063    22.460     7.039
    24   6 C        2.911     0.065    26.537     8.447
    25   6 C        2.921    -0.040    28.999     8.831
    26   6 C        2.919    -0.029    28.722     8.788
    27   6 C        2.919    -0.036    28.897     8.815
    28   6 C        2.919    -0.029    28.724     8.789
    29   6 C        2.920    -0.041    29.030     8.836
    30   6 C        2.923    -0.038    28.957     8.825
    31   6 C        2.904    -0.040    28.993     8.829
    32   6 C        3.031    -0.013    28.308     8.727
    33   6 C        3.031    -0.005    28.106     8.696
    34   6 C        2.908    -0.041    29.029     8.835
    35   6 C        2.916    -0.046    29.142     8.852
    36   6 C        2.926     0.049    26.905     8.506
    37   7 N        2.752    -0.040    22.009     6.968
    38   6 C        2.926     0.063    26.587     8.456
    39   6 C        2.921    -0.044    29.086     8.844
    40   6 C        2.919    -0.028    28.699     8.785
    41   6 C        2.919    -0.034    28.857     8.809
    42   6 C        2.919    -0.028    28.698     8.785
    43   6 C        2.921    -0.042    29.054     8.839
    44   6 C        2.926     0.063    26.591     8.457
    45   6 C        2.921    -0.044    29.088     8.844
    46   6 C        2.919    -0.028    28.696     8.785
    47   6 C        2.919    -0.034    28.852     8.808
    48   6 C        2.919    -0.028    28.695     8.784
    49   6 C        2.921    -0.042    29.055     8.839
    50   6 C        2.912    -0.051    29.260     8.870
    51   6 C        3.051    -0.003    28.042     8.685
    52   1 H        0.925     0.039     2.457     2.451
    53   1 H        0.925     0.033     2.542     2.493
    54   1 H        0.925     0.043     2.403     2.424
    55   1 H        0.925     0.040     2.445     2.445
    56   1 H        0.925     0.044     2.398     2.422
    57   1 H        0.925     0.034     2.534     2.489
    58   1 H        0.926     0.019     2.754     2.595
    59   1 H        0.926     0.026     2.644     2.543
    60   1 H        0.926     0.033     2.543     2.494
    61   1 H        0.926     0.035     2.515     2.480
    62   1 H        0.926     0.035     2.514     2.480
    63   1 H        0.926     0.042     2.422     2.434
    64   1 H        0.926     0.025     2.657     2.549
    65   1 H        0.926     0.032     2.553     2.499
    66   1 H        0.926     0.032     2.551     2.498
    67   1 H        0.926     0.031     2.568     2.506
    68   1 H        0.926     0.022     2.697     2.568
    69   1 H        0.926     0.033     2.541     2.493
    70   1 H        0.926     0.040     2.445     2.445
    71   1 H        0.926     0.039     2.458     2.452
    72   1 H        0.926     0.038     2.471     2.458
    73   1 H        0.926     0.031     2.570     2.507
    74   1 H        0.926     0.039     2.459     2.452
    75   1 H        0.926     0.026     2.644     2.543
    76   1 H        0.926     0.031     2.572     2.508
    77   1 H        0.926     0.033     2.550     2.497
    78   1 H        0.926     0.038     2.474     2.460
    79   1 H        0.926     0.039     2.459     2.452
    80   1 H        0.926     0.038     2.478     2.462
    81   1 H        0.926     0.039     2.457     2.451
    82   1 H        0.926     0.040     2.450     2.447
    83   1 H        0.926     0.038     2.470     2.458
    84   1 H        0.926     0.040     2.453     2.449
    85   1 H        0.926     0.038     2.475     2.460
    86   1 H        0.926     0.039     2.459     2.452
    87   1 H        0.926     0.039     2.458     2.452
    88   1 H        0.926     0.033     2.544     2.494

molecular dipole:
                 x           y           z       tot (Debye)
 q only:        2.952       1.132       0.297
   full:        2.762       1.443       0.341       7.968

 projected vibrational frequencies (cm⁻¹)
eigval :       -0.00     0.00     0.00     0.00     0.00     0.00
eigval :        8.66    12.68    18.46    26.83    28.60    30.73
eigval :       33.93    42.34    44.04    54.47    60.31    61.85
eigval :       64.56    69.25    80.14    85.47    96.08   110.18
eigval :      116.87   130.35   134.03   143.99   157.61   160.77
eigval :      188.14   203.20   223.07   227.48   228.11   232.46
eigval :      236.72   240.57   244.35   255.41   262.94   270.42
eigval :      289.14   307.33   315.72   326.16   335.71   342.55
eigval :      358.86   368.17   372.01   377.67   378.80   382.17
eigval :      384.68   399.22   417.83   436.13   443.15   460.00
eigval :      465.63   477.43   483.45   501.47   504.90   527.99
eigval :      534.78   549.21   560.23   566.69   572.26   584.51
eigval :      585.39   586.06   588.27   588.84   609.54   613.18
eigval :      621.08   628.09   638.96   655.03   658.82   659.31
eigval :      659.99   671.73   673.97   676.49   677.57   695.96
eigval :      698.83   721.86   728.76   749.13   754.41   755.11
eigval :      758.59   765.29   794.62   803.37   810.12   843.58
eigval :      852.15   866.76   869.82   871.54   871.62   873.45
eigval :      874.30   887.12   891.51   892.93   894.72   900.23
eigval :      905.07   907.51   908.80   921.65   922.31   922.92
eigval :      924.49   924.70   925.94   927.59   927.76   929.53
eigval :      931.14   931.72   935.83   941.53   960.59   963.95
eigval :      967.01   970.57   990.94   994.96  1001.20  1010.96
eigval :     1012.41  1051.42  1072.70  1078.35  1078.69  1079.99
eigval :     1080.15  1082.29  1090.72  1115.85  1118.59  1119.99
eigval :     1120.74  1122.03  1134.61  1141.96  1153.05  1170.78
eigval :     1172.65  1176.40  1176.74  1177.33  1177.46  1181.58
eigval :     1183.14  1189.89  1193.88  1198.40  1200.76  1203.77
eigval :     1211.35  1222.44  1237.74  1246.74  1261.79  1273.26
eigval :     1273.52  1277.62  1277.92  1280.94  1284.92  1293.81
eigval :     1300.08  1307.50  1316.51  1317.80  1318.95  1319.76
eigval :     1325.13  1335.58  1347.35  1358.17  1366.36  1385.99
eigval :     1391.78  1402.34  1408.68  1420.86  1429.18  1429.38
eigval :     1431.17  1436.45  1437.45  1439.21  1456.34  1458.20
eigval :     1461.62  1468.53  1469.37  1478.96  1484.33  1487.82
eigval :     1495.13  1497.78  1499.08  1512.20  1534.51  1546.53
eigval :     1556.32  1562.81  1567.60  1573.76  1576.07  1576.90
eigval :     1578.43  1585.64  1591.70  1594.55  1613.30  3022.94
eigval :     3026.11  3026.79  3028.43  3032.68  3035.04  3068.67
eigval :     3069.79  3070.36  3070.54  3071.51  3074.38  3075.90
eigval :     3076.61  3077.04  3077.46  3077.76  3078.15  3080.06
eigval :     3080.33  3081.75  3083.07  3085.62  3086.15  3086.49
eigval :     3088.41  3088.56  3089.19  3089.45  3089.46  3092.00
eigval :     3095.65  3096.76  3097.21  3098.06  3100.21  3106.13

   temp. (K)  partition function   enthalpy   heat capacity  entropy
                                   cal/mol     cal/K/mol   cal/K/mol   J/K/mol
 298.15  VIB  0.873E+20            25236.860    157.221    158.011
         ROT  0.115E+09              888.752      2.981     39.860
         INT  0.100E+29            26125.613    160.202    197.871
         TR   0.162E+29             1481.254      4.968     45.303
         TOT                       27606.8665   165.1702   243.1745  1017.4421

       T/K    H(0)-H(T)+PV         H(T)/Eh          T*S/Eh         G(T)/Eh
   ------------------------------------------------------------------------
    298.15    0.439943E-01    0.734056E+00    0.115540E+00    0.618516E+00
   ------------------------------------------------------------------------

         :::::::::::::::::::::::::::::::::::::::::::::::::::::
         ::                  THERMODYNAMIC                  ::
         :::::::::::::::::::::::::::::::::::::::::::::::::::::
         :: total free energy        -129.828080215555 Eh   ::
         ::.................................................::
         :: total energy             -130.446595851646 Eh   ::
         :: zero point energy           0.690061350503 Eh   ::
         :: G(RRHO) w/o ZPVE           -0.071545714412 Eh   ::
         :: G(RRHO) contrib.            0.618515636091 Eh   ::
         :::::::::::::::::::::::::::::::::::::::::::::::::::::

           -------------------------------------------------
          | TOTAL ENERGY             -130.446595851646 Eh   |
          | TOTAL ENTHALPY           -129.712540159021 Eh   |
          | TOTAL FREE ENERGY        -129.828080215555 Eh   |
          | GRADIENT NORM               0.000040915261 Eh/α |
          | HOMO-LUMO GAP               0.564731101719 eV   |
           -------------------------------------------------

 * finished run on 2025/09/05 at 09:56:12.703
