   * xtb version 6.7.1 (edcfbbe) compiled by 'albert@albert-system' on 2024-07-22

   ID    Z sym.   atoms
    1    6 C      1-7, 9-22, 24-36, 38-51
    2    7 N      8, 23, 37
    3    1 H      52-88

          program call               : xtb data2507/toluene/DFPBI/DFPBI_toluene_S0_finalOpt.xtbopt.xyz --gfn 2 --uhf 2 --gbsa toluene --ohess vtight --parallel 40 --molden --ceasefiles --namespace data2507/toluene/DFPBI/DFPBI_toluene_T1_preOpt
      * Solvation model:               GBSA
        Solvent                        toluene
        Solvent mass                       9.2140E+01 g/mol
          :  Hamiltonian                  GFN2-xTB          :
 * total energy  :  -130.4359638 Eh     change       -0.1927236E-07 Eh
 * total energy  :  -130.4420497 Eh     change       -0.6085928E-02 Eh
 * total energy  :  -130.4442220 Eh     change       -0.2172269E-02 Eh
 * total energy  :  -130.4445093 Eh     change       -0.2873764E-03 Eh
 * total energy  :  -130.4449003 Eh     change       -0.3909978E-03 Eh
 * total energy  :  -130.4450697 Eh     change       -0.1693989E-03 Eh
 * total energy  :  -130.4452006 Eh     change       -0.1308492E-03 Eh
 * total energy  :  -130.4452817 Eh     change       -0.8107322E-04 Eh
 * total energy  :  -130.4453599 Eh     change       -0.7821039E-04 Eh
 * total energy  :  -130.4454445 Eh     change       -0.8464504E-04 Eh
 * total energy  :  -130.4465827 Eh     change       -0.1542679E-05 Eh
 * total energy  :  -130.4465835 Eh     change       -0.7952692E-06 Eh
 * total energy  :  -130.4465839 Eh     change       -0.4638108E-06 Eh
 * total energy  :  -130.4465844 Eh     change       -0.4806805E-06 Eh
 * total energy  :  -130.4465849 Eh     change       -0.4939446E-06 Eh
 * total energy  :  -130.4465853 Eh     change       -0.3806736E-06 Eh
 * total energy  :  -130.4465857 Eh     change       -0.3679908E-06 Eh
 * total energy  :  -130.4465861 Eh     change       -0.3969427E-06 Eh
 * total energy  :  -130.4465861 Eh     change       -0.3820020E-08 Eh
   *** GEOMETRY OPTIMIZATION CONVERGED AFTER 68 ITERATIONS ***

 final structure:
================
88
 xtb: 6.7.1 (edcfbbe)
C            1.61839823277850        1.18393370745789        1.93966655831618
C            1.66910314742493        0.85784083019822        0.44293919004221
C            1.64957446664839        2.15011108984834       -0.38156887326789
C            0.53457746983967       -0.06085263746651        0.04094009362530
C           -0.79837288247879        0.17312443685722        0.10748627322955
C           -1.71775653686015       -0.83438838126556       -0.32170346492458
C           -3.11502612416694       -0.70007199350540       -0.29048079726204
N           -3.94144474750826       -1.75623840525013       -0.35704973415483
C           -5.18570189350113       -1.30870456059214       -0.16863870219408
C           -6.32034602863228       -2.21952544595884       -0.22001322205335
C           -7.55513764957618       -1.83073983839391       -0.73912534691673
C           -8.60507482519685       -2.72853359173778       -0.78550753500384
C           -8.43972514643482       -4.02442095030091       -0.32280832778748
C           -7.20971753430436       -4.42519751701770        0.17500231326433
C           -6.15660525186180       -3.53241155322374        0.22285646411695
C           -5.18206753157272        0.08978739203436        0.00759963783051
C           -6.28383384035709        0.99057548781402        0.24817747067975
C           -7.28398752324944        0.63064273982861        1.16265915628131
C           -8.34799841805050        1.47266163183528        1.40798743410313
C           -8.44508430374960        2.69084484301059        0.74953572933605
C           -7.46743879225443        3.05420794149448       -0.16473942848488
C           -6.39725415260919        2.21940081881992       -0.41487461217353
N           -3.86019983669572        0.47045745804601       -0.09849420604497
C           -3.39540905796839        1.79185062142872       -0.09273727308200
C           -2.62767114159397        2.26444527506652       -1.15878963040147
C           -2.18402352980364        3.57217591165752       -1.16036865242246
C           -2.50394251988363        4.42168186472966       -0.11128151187255
C           -3.26974970807116        3.95407220557237        0.94587001614552
C           -3.71721817071661        2.64675706475158        0.96063282799623
C           -1.18320231784519       -2.09116792219424       -0.75784803293110
C            0.15343411538575       -2.32057567448936       -0.83577454745833
C            1.05741830890283       -1.30007576284747       -0.45122412832109
C            2.46200547279924       -1.25267228918834       -0.41480162730783
C            3.44281617454888       -2.19632663984270       -0.78533203985694
C            4.76723229555143       -1.88450179962811       -0.63257069671712
C            5.17286120339150       -0.63658681604091       -0.11625101326434
N            6.52173724615672       -0.33931370971984        0.02523283948057
C            6.97552072161363        0.97011283655692       -0.16841158449622
C            7.98480355448916        1.49587401293455        0.64112561366500
C            8.42650459014604        2.78985980338650        0.44684842540323
C            7.87052675611541        3.58001707368413       -0.54788356253212
C            6.86723763909462        3.06287161024166       -1.35351967298735
C            6.42098933595419        1.76886467477006       -1.17126019087837
C            7.43518538181844       -1.34282752335427        0.36505303974142
C            8.71210952059456       -1.35693311456927       -0.20060880141458
C            9.60994757117629       -2.35003071744692        0.13786218109112
C            9.25238472525735       -3.34331202751173        1.03698342122048
C            7.98521595113572       -3.33445408245491        1.60018188620195
C            7.08086927310495       -2.34368224732986        1.27251162237098
C            4.19498062397810        0.31573597680729        0.25180788733321
C            2.87627518385238        0.01130797867926        0.10547646081776
H            0.70993659238831        1.73501947959006        2.17231706480642
H            1.62740592998042        0.26665542725173        2.52527056589393
H            2.47632933330893        1.78870181334885        2.22428496537433
H            0.73807798714646        2.70787206117612       -0.17906806722800
H            2.50555221284365        2.77240316800377       -0.13061824600740
H            1.68516194936542        1.91782833626322       -1.44419534682495
H           -1.16947382708477        1.09616840983559        0.52278189511528
H           -7.68590464706439       -0.82852130366675       -1.12009186834941
H           -9.55702511072351       -2.41570797532930       -1.19003102005849
H           -9.26416006903724       -4.72161136340720       -0.35759751536322
H           -7.07266508451068       -5.43743111640307        0.52744540879841
H           -5.19199540751439       -3.83089253278785        0.60510169864692
H           -7.20373889790494       -0.31194295865102        1.68475498155862
H           -9.10543157074995        1.18201563165920        2.12158615320721
H           -9.27787188057729        3.34959921410990        0.94535736437547
H           -7.54257351543804        3.99495479819732       -0.69105788629906
H           -5.65693731164839        2.50275179529674       -1.14865334138424
H           -2.38541853726971        1.59646058917742       -1.97257828916188
H           -1.58996298423633        3.93178808953893       -1.98751920138977
H           -2.15702317142390        5.44386769439202       -0.11788469083446
H           -3.51788541443057        4.61018767023721        1.76698143414196
H           -4.30773613051857        2.27601553364641        1.78551344424516
H           -1.89791364406091       -2.84757416553891       -1.04338407231637
H            0.53165033724044       -3.26961817904469       -1.18707919876099
H            3.14786032754934       -3.14863855327486       -1.19905664107357
H            5.52719700911455       -2.59164966607731       -0.93276556943663
H            8.40880840282731        0.88577399782338        1.42517386468087
H            9.20458085786392        3.18751211809700        1.08169640418325
H            8.21704866117235        4.59179139585425       -0.69451459119162
H            6.43468564891974        3.66953597346108       -2.13551548960278
H            5.64939760945577        1.36092503282237       -1.80751104864795
H            8.98684209653332       -0.59126224773375       -0.91118307493241
H           10.59300952855113       -2.35373984333558       -0.30943253512008
H            9.95623882305336       -4.11924405752651        1.29710699846866
H            7.70201741128736       -4.10077673018952        2.30662756528964
H            6.09873324013265       -2.32792821953705        1.72178391974920
H            4.51059148401557        1.26258906085405        0.66463589296321

          :  Hamiltonian                  GFN2-xTB          :
         :: gradient norm              0.000051343056 Eh/a0 ::
         :: HOMO-LUMO gap              0.563222825045 eV    ::
         :: SCC energy              -132.860043121181 Eh    ::
         :: -> dispersion             -0.124735823805 Eh    ::
         :: -> Gsolv                  -0.054590038973 Eh    ::
         :: repulsion energy           2.413457059089 Eh    ::

    * Orbital Energies and Occupations

         #    Occupation            Energy/Eh            Energy/eV
      -------------------------------------------------------------
         1        2.0000           -0.6783703             -18.4594
       ...           ...                  ...                  ...
       111        2.0000           -0.4095222             -11.1437
       112        2.0000           -0.4074117             -11.0862
       113        2.0000           -0.4063310             -11.0568
       114        2.0000           -0.4031279             -10.9697
       115        2.0000           -0.4023919             -10.9496
       116        2.0000           -0.4012911             -10.9197
       117        2.0000           -0.3940664             -10.7231
       118        2.0000           -0.3905722             -10.6280
       119        2.0000           -0.3842792             -10.4568
       120        2.0000           -0.3726445             -10.1402
       121        1.9999           -0.3605177              -9.8102
       122        1.0001           -0.3426574              -9.3242
       123        1.0000           -0.2685483              -7.3076 (HOMO)
       124        0.0000           -0.2478504              -6.7444 (LUMO)
       125                         -0.2375601              -6.4643
       126                         -0.2345516              -6.3825
       127                         -0.2321291              -6.3166
       128                         -0.2320491              -6.3144
       129                         -0.2278325              -6.1996
       130                         -0.2255518              -6.1376
       131                         -0.2240136              -6.0957
       132                         -0.2194012              -5.9702
       133                         -0.2173014              -5.9131
       134                         -0.2147697              -5.8442
       ...                                ...                  ...
       241                          0.7442819              20.2529
      -------------------------------------------------------------
                  HL-Gap            0.0206979 Eh            0.5632 eV

     #   Z          covCN         q      C6AA      α(0)
     1   6 C        3.758    -0.099    22.439     6.754
     2   6 C        3.930     0.017    20.225     6.391
     3   6 C        3.758    -0.099    22.441     6.754
     4   6 C        3.047    -0.004    28.073     8.690
     5   6 C        2.909    -0.051    29.269     8.871
     6   6 C        2.969    -0.018    28.458     8.750
     7   6 C        3.116     0.127    25.074     8.202
     8   7 N        1.897    -0.326    29.300     8.025
     9   6 C        3.136     0.072    26.177     8.374
    10   6 C        2.974     0.006    27.883     8.662
    11   6 C        2.923    -0.035    28.872     8.812
    12   6 C        2.918    -0.030    28.759     8.794
    13   6 C        2.919    -0.031    28.774     8.796
    14   6 C        2.918    -0.030    28.751     8.793
    15   6 C        2.927    -0.029    28.726     8.789
    16   6 C        3.037     0.024    27.441     8.592
    17   6 C        2.969     0.001    28.012     8.681
    18   6 C        2.925    -0.035    28.878     8.813
    19   6 C        2.917    -0.030    28.748     8.792
    20   6 C        2.919    -0.035    28.868     8.811
    21   6 C        2.917    -0.031    28.766     8.795
    22   6 C        2.922    -0.036    28.894     8.815
    23   7 N        2.825    -0.063    22.462     7.039
    24   6 C        2.911     0.065    26.536     8.447
    25   6 C        2.921    -0.040    28.999     8.831
    26   6 C        2.919    -0.029    28.722     8.788
    27   6 C        2.919    -0.036    28.898     8.815
    28   6 C        2.919    -0.029    28.724     8.789
    29   6 C        2.920    -0.041    29.031     8.836
    30   6 C        2.923    -0.038    28.956     8.824
    31   6 C        2.904    -0.040    28.993     8.829
    32   6 C        3.031    -0.013    28.308     8.727
    33   6 C        3.031    -0.005    28.106     8.696
    34   6 C        2.908    -0.041    29.029     8.835
    35   6 C        2.916    -0.046    29.144     8.853
    36   6 C        2.925     0.049    26.902     8.506
    37   7 N        2.752    -0.040    22.008     6.967
    38   6 C        2.926     0.063    26.587     8.456
    39   6 C        2.921    -0.044    29.084     8.844
    40   6 C        2.919    -0.028    28.698     8.785
    41   6 C        2.919    -0.034    28.855     8.809
    42   6 C        2.919    -0.028    28.698     8.785
    43   6 C        2.921    -0.042    29.052     8.839
    44   6 C        2.926     0.063    26.592     8.457
    45   6 C        2.921    -0.044    29.087     8.844
    46   6 C        2.919    -0.028    28.696     8.784
    47   6 C        2.919    -0.034    28.851     8.808
    48   6 C        2.919    -0.028    28.695     8.784
    49   6 C        2.921    -0.042    29.055     8.839
    50   6 C        2.912    -0.051    29.263     8.870
    51   6 C        3.051    -0.003    28.041     8.685
    52   1 H        0.925     0.039     2.458     2.452
    53   1 H        0.925     0.033     2.542     2.493
    54   1 H        0.925     0.043     2.403     2.424
    55   1 H        0.925     0.040     2.445     2.445
    56   1 H        0.925     0.044     2.398     2.422
    57   1 H        0.925     0.034     2.534     2.489
    58   1 H        0.926     0.018     2.756     2.596
    59   1 H        0.926     0.026     2.644     2.543
    60   1 H        0.926     0.033     2.543     2.494
    61   1 H        0.926     0.035     2.515     2.480
    62   1 H        0.926     0.035     2.515     2.480
    63   1 H        0.926     0.042     2.422     2.434
    64   1 H        0.926     0.025     2.657     2.549
    65   1 H        0.926     0.032     2.554     2.499
    66   1 H        0.926     0.032     2.552     2.498
    67   1 H        0.926     0.031     2.569     2.507
    68   1 H        0.926     0.022     2.697     2.568
    69   1 H        0.926     0.033     2.543     2.494
    70   1 H        0.926     0.040     2.445     2.445
    71   1 H        0.926     0.039     2.458     2.452
    72   1 H        0.926     0.038     2.471     2.458
    73   1 H        0.926     0.031     2.570     2.507
    74   1 H        0.926     0.039     2.461     2.453
    75   1 H        0.926     0.026     2.643     2.542
    76   1 H        0.926     0.031     2.572     2.508
    77   1 H        0.926     0.033     2.549     2.497
    78   1 H        0.926     0.038     2.475     2.460
    79   1 H        0.926     0.039     2.458     2.452
    80   1 H        0.926     0.038     2.478     2.462
    81   1 H        0.926     0.039     2.456     2.451
    82   1 H        0.926     0.040     2.448     2.447
    83   1 H        0.926     0.038     2.470     2.458
    84   1 H        0.926     0.040     2.453     2.449
    85   1 H        0.926     0.038     2.474     2.460
    86   1 H        0.926     0.039     2.459     2.452
    87   1 H        0.926     0.039     2.457     2.451
    88   1 H        0.926     0.033     2.543     2.494

molecular dipole:
                 x           y           z       tot (Debye)
 q only:        2.982       1.111       0.300
   full:        2.795       1.424       0.338       8.019

 projected vibrational frequencies (cm⁻¹)
eigval :       -0.00    -0.00    -0.00     0.00     0.00     0.00
eigval :        4.68     9.85    16.84    26.30    27.72    29.65
eigval :       33.17    41.52    43.61    52.99    59.08    61.87
eigval :       63.94    67.81    79.13    84.62    95.72   109.49
eigval :      116.32   129.19   133.66   143.04   157.21   160.01
eigval :      187.41   199.23   221.49   226.17   227.27   231.92
eigval :      235.65   240.16   243.38   254.86   262.07   270.03
eigval :      289.18   306.85   315.49   325.96   335.79   341.98
eigval :      358.63   367.45   371.80   377.07   378.31   381.40
eigval :      384.25   399.14   417.92   435.71   443.25   459.94
eigval :      465.29   477.36   483.45   501.54   505.02   527.87
eigval :      534.73   549.09   560.05   566.64   572.26   584.21
eigval :      585.32   585.89   588.20   588.74   609.36   613.04
eigval :      620.69   627.05   638.88   654.53   658.43   659.05
eigval :      659.88   671.76   673.06   676.11   677.16   696.07
eigval :      698.56   722.04   728.54   748.71   754.18   754.75
eigval :      759.32   765.80   794.50   801.67   809.90   843.69
eigval :      852.27   865.88   869.72   871.22   873.28   873.83
eigval :      874.62   886.22   890.25   892.34   894.02   903.41
eigval :      904.98   906.68   908.68   921.68   923.45   924.08
eigval :      924.44   925.67   927.51   927.64   928.05   930.16
eigval :      930.73   932.00   935.45   941.44   960.70   963.92
eigval :      966.95   970.41   990.68   995.04  1001.22  1010.86
eigval :     1012.32  1051.69  1073.00  1078.13  1078.45  1079.71
eigval :     1079.81  1082.32  1090.76  1115.74  1118.55  1119.52
eigval :     1119.66  1121.48  1134.39  1142.22  1153.25  1170.89
eigval :     1172.52  1176.30  1176.37  1176.96  1177.64  1181.57
eigval :     1182.97  1189.39  1194.12  1198.08  1200.35  1203.57
eigval :     1211.35  1222.34  1237.88  1246.88  1261.98  1272.91
eigval :     1273.37  1277.23  1278.26  1279.67  1284.93  1293.66
eigval :     1300.05  1307.69  1316.36  1317.73  1318.91  1319.73
eigval :     1325.05  1335.56  1347.25  1358.10  1366.09  1385.88
eigval :     1391.78  1402.46  1408.75  1420.48  1429.13  1429.34
eigval :     1431.22  1436.25  1437.39  1439.05  1456.23  1458.15
eigval :     1461.57  1468.10  1469.43  1478.94  1483.53  1487.68
eigval :     1494.33  1497.72  1498.98  1511.91  1534.33  1546.00
eigval :     1556.06  1562.77  1567.56  1573.63  1576.10  1576.86
eigval :     1578.65  1585.56  1591.77  1594.60  1613.28  3022.98
eigval :     3026.06  3026.87  3028.27  3032.63  3034.91  3068.83
eigval :     3069.42  3070.07  3070.60  3071.66  3074.66  3075.88
eigval :     3076.55  3076.61  3077.00  3077.71  3078.40  3079.71
eigval :     3080.74  3081.94  3083.09  3085.53  3085.53  3086.36
eigval :     3088.49  3088.63  3088.98  3089.17  3089.44  3091.68
eigval :     3095.73  3096.73  3097.12  3097.87  3099.74  3105.40

   temp. (K)  partition function   enthalpy   heat capacity  entropy
                                   cal/mol     cal/K/mol   cal/K/mol   J/K/mol
 298.15  VIB  0.297E+21            25287.119    157.118    159.295
         ROT  0.115E+09              888.752      2.981     39.859
         INT  0.340E+29            26175.872    160.099    199.153
         TR   0.162E+29             1481.254      4.968     45.303
         TOT                       27657.1257   165.0672   244.4567  1022.8069

       T/K    H(0)-H(T)+PV         H(T)/Eh          T*S/Eh         G(T)/Eh
   ------------------------------------------------------------------------
    298.15    0.440744E-01    0.733995E+00    0.116149E+00    0.617846E+00
   ------------------------------------------------------------------------

         :::::::::::::::::::::::::::::::::::::::::::::::::::::
         ::                  THERMODYNAMIC                  ::
         :::::::::::::::::::::::::::::::::::::::::::::::::::::
         :: total free energy        -129.828739906466 Eh   ::
         ::.................................................::
         :: total energy             -130.446586062951 Eh   ::
         :: zero point energy           0.689920999984 Eh   ::
         :: G(RRHO) w/o ZPVE           -0.072074843499 Eh   ::
         :: G(RRHO) contrib.            0.617846156486 Eh   ::
         :::::::::::::::::::::::::::::::::::::::::::::::::::::

           -------------------------------------------------
          | TOTAL ENERGY             -130.446586062951 Eh   |
          | TOTAL ENTHALPY           -129.712590627738 Eh   |
          | TOTAL FREE ENERGY        -129.828739906466 Eh   |
          | GRADIENT NORM               0.000051195792 Eh/α |
          | HOMO-LUMO GAP               0.563219291934 eV   |
           -------------------------------------------------

 * finished run on 2025/09/05 at 09:48:49.556
