   * xtb version 6.7.1 (edcfbbe) compiled by 'albert@albert-system' on 2024-07-22

   ID    Z sym.   atoms
    1    6 C      1-7, 9-22, 24-36, 38-51
    2    7 N      8, 23, 37
    3    1 H      52-88

          program call               : xtb data2507/toluene/DFPBI/DFPBI.xyz --gfn 2 --gbsa toluene --ohess vtight --parallel 40 --molden --ceasefiles --namespace data2507/toluene/DFPBI/DFPBI_toluene_S0_preOpt
      * Solvation model:               GBSA
        Solvent                        toluene
        Solvent mass                       9.2140E+01 g/mol
          :  Hamiltonian                  GFN2-xTB          :
 * total energy  :  -130.5068975 Eh     change       -0.5390859E-08 Eh
 * total energy  :  -130.5189162 Eh     change       -0.1201869E-01 Eh
 * total energy  :  -130.5231267 Eh     change       -0.4210474E-02 Eh
 * total energy  :  -130.5244873 Eh     change       -0.1360616E-02 Eh
 * total energy  :  -130.5252694 Eh     change       -0.7820840E-03 Eh
 * total energy  :  -130.5256756 Eh     change       -0.4062239E-03 Eh
 * total energy  :  -130.5260061 Eh     change       -0.3305167E-03 Eh
 * total energy  :  -130.5263421 Eh     change       -0.3359578E-03 Eh
 * total energy  :  -130.5266894 Eh     change       -0.3472917E-03 Eh
 * total energy  :  -130.5269859 Eh     change       -0.2965458E-03 Eh
 * total energy  :  -130.5280917 Eh     change       -0.1388273E-05 Eh
 * total energy  :  -130.5280930 Eh     change       -0.1260167E-05 Eh
 * total energy  :  -130.5280941 Eh     change       -0.1171835E-05 Eh
 * total energy  :  -130.5280952 Eh     change       -0.1113130E-05 Eh
 * total energy  :  -130.5280963 Eh     change       -0.1102475E-05 Eh
 * total energy  :  -130.5280974 Eh     change       -0.1105365E-05 Eh
 * total energy  :  -130.5280985 Eh     change       -0.1094148E-05 Eh
 * total energy  :  -130.5280996 Eh     change       -0.1061952E-05 Eh
 * total energy  :  -130.5280996 Eh     change       -0.7378162E-08 Eh
   *** GEOMETRY OPTIMIZATION CONVERGED AFTER 68 ITERATIONS ***

 final structure:
================
88
 xtb: 6.7.1 (edcfbbe)
C            1.44188142539310        0.48293547926638        2.16555146025181
C            1.48978953426001        0.53320347599669        0.63503519329983
C            1.41574492097731        1.98319108124335        0.14464420976101
C            0.38857700091207       -0.30693899346210        0.02650134455447
C           -0.97152859692641       -0.16577958197903        0.16781663222709
C           -1.81914084901568       -1.07293737856318       -0.47609922891378
C           -3.26414279198063       -0.98882826904317       -0.34138354624923
N           -4.04899730850600       -2.03183092171709       -0.22670635443711
C           -5.31891265060583       -1.56082195571247       -0.06662400698012
C           -6.43934446779215       -2.48125825093448        0.06338706392785
C           -7.73115219108411       -2.13461070929814       -0.32937615030317
C           -8.76916967001251       -3.03670652591175       -0.18801713610048
C           -8.53554484312725       -4.29737445149962        0.33732567615920
C           -7.25057197219764       -4.65741330765857        0.71138234115384
C           -6.21026897459926       -3.75873564222067        0.57474406123167
C           -5.30043162275003       -0.17624498825516       -0.08112027700708
C           -6.36930088643812        0.80542538016216        0.06017706139018
C           -7.25826087742116        0.71822141160744        1.13122395153894
C           -8.27043556734006        1.64782342220486        1.27601343516890
C           -8.40826952179386        2.67770215483876        0.35855455606941
C           -7.53161834606300        2.76946321455410       -0.70976808561538
C           -6.51799742697402        1.84105654721386       -0.86081846313846
N           -3.98052299139073        0.17773879007480       -0.26563404383069
C           -3.48902604637465        1.49126529460275       -0.39308888967269
C           -2.72139812039809        1.83575547567261       -1.50073939169627
C           -2.24775096932490        3.12830984577382       -1.63057281180023
C           -2.54054723056627        4.07956854212213       -0.66653957978358
C           -3.30466620057609        3.73427760841778        0.43596817296400
C           -3.77930382509855        2.44262722855928        0.57847383724122
C           -1.27839759805739       -2.11695193185290       -1.22924037086751
C            0.08849554699529       -2.25625101462819       -1.37869236616536
C            0.92590466210218       -1.34392134648619       -0.75361738897616
C            2.37251864965897       -1.24489397378705       -0.71601102734426
C            3.36011692865706       -2.01031603444917       -1.31768461699732
C            4.68578819710122       -1.68461771922815       -1.10446440583552
C            5.04201748182916       -0.61121984101009       -0.28287750851025
N            6.38812016029803       -0.30131665326054       -0.07172522250703
C            6.78732439510279        1.03298826866636        0.07997643657153
C            7.78186358789952        1.37196487028082        0.99752905379901
C            8.17482598962920        2.68853194178373        1.14447851470496
C            7.58010932546110        3.68725756961790        0.39020105259091
C            6.58998446322010        3.35637716972927       -0.52120672618495
C            6.19718949623391        2.04159684643435       -0.68220464184234
C            7.34638051868976       -1.32138358587832       -0.00418147224293
C            8.60836492397735       -1.14148670566704       -0.57065104260108
C            9.55421715054194       -2.14607847254761       -0.49819079604325
C            9.25794223350177       -3.34503662908347        0.13014006108698
C            8.00471911678861       -3.53015365739287        0.69183112749962
C            7.05516247340655       -2.52831513589454        0.63167478775864
C            4.04248018261648        0.15660271376685        0.32609442005862
C            2.72430699724218       -0.15708459996943        0.09915436180671
H            2.28139279403412        1.03085652992931        2.58659492159591
H            0.51777181777131        0.92690197394944        2.52816881284451
H            1.49059550713436       -0.54835854440783        2.50971609616020
H            0.48346845769360        2.44140959016648        0.46590566137752
H            2.24667059627965        2.55861679840495        0.54582550780837
H            1.46208317377441        2.01446649909755       -0.94197689641689
H           -1.38275800075045        0.61967548501319        0.78468075092376
H           -7.91972907371454       -1.16039081857713       -0.75597071501218
H           -9.76676481852330       -2.75503561688022       -0.49426197521397
H           -9.35023392279163       -4.99838908885404        0.44767550471964
H           -7.06062380249028       -5.64262008244618        1.11315876547730
H           -5.20379509143718       -4.02675076406857        0.85913597103760
H           -7.14531880100085       -0.08413041700583        1.84627217829986
H           -8.95269886472567        1.57048491397124        2.11002053962355
H           -9.19874583857311        3.40435435005315        0.47477096690311
H           -7.63796661209173        3.56617388772720       -1.43161789072777
H           -5.84493261340478        1.90956680731275       -1.70375509372673
H           -2.50267823873344        1.08893190252607       -2.24997878357187
H           -1.65228740391041        3.39307152772293       -2.49131206606904
H           -2.17158812739390        5.08829566435793       -0.77399422530059
H           -3.53247681079650        4.47089278967981        1.19175572026703
H           -4.37081268660303        2.16539165443068        1.43853754727434
H           -1.95743210416513       -2.81488727489145       -1.69568167252204
H            0.49326588866663       -3.06438731296265       -1.96956004306270
H            3.10304174649601       -2.84311231070302       -1.95515330776220
H            5.46520724770906       -2.26252009338116       -1.57943480565915
H            8.24061170038706        0.59647328789961        1.59382472322082
H            8.94503987013374        2.93679782145098        1.86040210682918
H            7.88638054722064        4.71552486529558        0.51143917360587
H            6.12503338830012        4.12743255331211       -1.11850313938979
H            5.43205660808863        1.78498691091463       -1.40046615757983
H            8.83893382653401       -0.21064677097586       -1.06844244639493
H           10.52681253943880       -1.99430584947385       -0.94357064938605
H            9.99819427833113       -4.12935216618963        0.18181511339845
H            7.76648668126368       -4.45955326822578        1.18869035777484
H            6.08183499926148       -2.67215560946103        1.07792982473855
H            4.31884032651280        0.98092112012330        0.96671636273884

          :  Hamiltonian                  GFN2-xTB          :
         :: gradient norm              0.000071690423 Eh/a0 ::
         :: HOMO-LUMO gap              2.332627872544 eV    ::
         :: SCC energy              -132.959015640693 Eh    ::
         :: -> dispersion             -0.124371688446 Eh    ::
         :: -> Gsolv                  -0.053668313700 Eh    ::
         :: repulsion energy           2.430916033263 Eh    ::

    * Orbital Energies and Occupations

         #    Occupation            Energy/Eh            Energy/eV
      -------------------------------------------------------------
         1        2.0000           -0.6857903             -18.6613
       ...           ...                  ...                  ...
       110        2.0000           -0.4096785             -11.1479
       111        2.0000           -0.4080042             -11.1024
       112        2.0000           -0.4074495             -11.0873
       113        2.0000           -0.4060703             -11.0497
       114        2.0000           -0.4043227             -11.0022
       115        2.0000           -0.4028497             -10.9621
       116        2.0000           -0.4001896             -10.8897
       117        2.0000           -0.3980128             -10.8305
       118        2.0000           -0.3966169             -10.7925
       119        2.0000           -0.3863894             -10.5142
       120        2.0000           -0.3765372             -10.2461
       121        2.0000           -0.3623416              -9.8598
       122        2.0000           -0.3462111              -9.4209 (HOMO)
       123                         -0.2604886              -7.0883 (LUMO)
       124                         -0.2471181              -6.7244
       125                         -0.2386362              -6.4936
       126                         -0.2380656              -6.4781
       127                         -0.2302753              -6.2661
       128                         -0.2278066              -6.1989
       129                         -0.2266744              -6.1681
       130                         -0.2237448              -6.0884
       131                         -0.2221131              -6.0440
       132                         -0.2215707              -6.0292
       133                         -0.2181463              -5.9361
       ...                                ...                  ...
       241                          0.7323546              19.9284
      -------------------------------------------------------------
                  HL-Gap            0.0857225 Eh            2.3326 eV

     #   Z          covCN         q      C6AA      α(0)
     1   6 C        3.758    -0.099    22.443     6.754
     2   6 C        3.935     0.019    20.193     6.386
     3   6 C        3.758    -0.099    22.437     6.753
     4   6 C        3.054    -0.002    28.025     8.682
     5   6 C        2.918    -0.040    28.997     8.830
     6   6 C        2.975    -0.007    28.189     8.709
     7   6 C        3.157     0.132    24.836     8.148
     8   7 N        1.912    -0.320    29.149     8.005
     9   6 C        3.164     0.054    26.469     8.408
    10   6 C        2.973     0.006    27.893     8.663
    11   6 C        2.923    -0.039    28.979     8.828
    12   6 C        2.919    -0.032    28.791     8.799
    13   6 C        2.919    -0.034    28.845     8.807
    14   6 C        2.918    -0.031    28.784     8.798
    15   6 C        2.927    -0.032    28.792     8.800
    16   6 C        3.068     0.016    27.597     8.614
    17   6 C        2.971     0.006    27.883     8.662
    18   6 C        2.925    -0.033    28.826     8.805
    19   6 C        2.918    -0.029    28.715     8.787
    20   6 C        2.920    -0.031    28.776     8.797
    21   6 C        2.918    -0.030    28.741     8.791
    22   6 C        2.924    -0.034    28.850     8.808
    23   7 N        2.850    -0.047    22.149     6.990
    24   6 C        2.913     0.067    26.507     8.442
    25   6 C        2.922    -0.038    28.940     8.822
    26   6 C        2.920    -0.025    28.636     8.775
    27   6 C        2.919    -0.030    28.743     8.792
    28   6 C        2.920    -0.027    28.666     8.780
    29   6 C        2.921    -0.038    28.955     8.824
    30   6 C        2.928    -0.035    28.864     8.811
    31   6 C        2.912    -0.036    28.901     8.815
    32   6 C        3.036     0.000    27.993     8.678
    33   6 C        3.036    -0.010    28.237     8.716
    34   6 C        2.913    -0.035    28.876     8.812
    35   6 C        2.923    -0.053    29.312     8.879
    36   6 C        2.924     0.063    26.592     8.457
    37   7 N        2.752    -0.077    22.740     7.082
    38   6 C        2.924     0.066    26.528     8.446
    39   6 C        2.922    -0.048    29.187     8.860
    40   6 C        2.919    -0.030    28.756     8.794
    41   6 C        2.919    -0.039    28.979     8.828
    42   6 C        2.919    -0.030    28.760     8.794
    43   6 C        2.922    -0.048    29.183     8.859
    44   6 C        2.924     0.066    26.532     8.447
    45   6 C        2.922    -0.048    29.185     8.859
    46   6 C        2.919    -0.030    28.756     8.794
    47   6 C        2.919    -0.039    28.971     8.827
    48   6 C        2.919    -0.030    28.755     8.794
    49   6 C        2.922    -0.047    29.178     8.858
    50   6 C        2.918    -0.053    29.319     8.879
    51   6 C        3.054    -0.000    27.986     8.676
    52   1 H        0.925     0.046     2.375     2.410
    53   1 H        0.925     0.042     2.418     2.432
    54   1 H        0.925     0.035     2.515     2.480
    55   1 H        0.925     0.042     2.424     2.435
    56   1 H        0.925     0.046     2.365     2.405
    57   1 H        0.925     0.036     2.505     2.475
    58   1 H        0.926     0.024     2.666     2.553
    59   1 H        0.926     0.023     2.681     2.560
    60   1 H        0.926     0.029     2.597     2.520
    61   1 H        0.926     0.031     2.578     2.511
    62   1 H        0.926     0.031     2.571     2.508
    63   1 H        0.926     0.042     2.424     2.435
    64   1 H        0.926     0.029     2.602     2.522
    65   1 H        0.926     0.035     2.510     2.478
    66   1 H        0.926     0.036     2.505     2.475
    67   1 H        0.926     0.034     2.524     2.484
    68   1 H        0.926     0.025     2.662     2.552
    69   1 H        0.926     0.037     2.495     2.470
    70   1 H        0.926     0.046     2.370     2.407
    71   1 H        0.926     0.047     2.362     2.404
    72   1 H        0.926     0.045     2.383     2.414
    73   1 H        0.926     0.038     2.480     2.462
    74   1 H        0.926     0.039     2.462     2.454
    75   1 H        0.926     0.035     2.512     2.478
    76   1 H        0.926     0.033     2.540     2.492
    77   1 H        0.926     0.031     2.570     2.507
    78   1 H        0.926     0.031     2.575     2.509
    79   1 H        0.926     0.033     2.548     2.496
    80   1 H        0.926     0.032     2.564     2.504
    81   1 H        0.926     0.034     2.534     2.489
    82   1 H        0.926     0.033     2.542     2.493
    83   1 H        0.926     0.031     2.566     2.505
    84   1 H        0.926     0.033     2.541     2.493
    85   1 H        0.926     0.032     2.561     2.502
    86   1 H        0.926     0.033     2.541     2.493
    87   1 H        0.926     0.032     2.554     2.499
    88   1 H        0.926     0.033     2.540     2.492

molecular dipole:
                 x           y           z       tot (Debye)
 q only:        0.900       1.705       0.163
   full:        0.768       1.987       0.139       5.427

 projected vibrational frequencies (cm⁻¹)
eigval :       -0.00    -0.00     0.00     0.00     0.00     0.00
eigval :        7.62    10.85    17.93    21.15    27.26    30.33
eigval :       34.33    38.33    44.71    52.62    55.72    58.95
eigval :       64.89    68.07    75.52    81.29    92.14   103.39
eigval :      121.77   124.85   130.67   132.19   153.94   162.76
eigval :      186.42   195.97   219.34   226.45   227.61   234.10
eigval :      235.18   243.86   254.86   256.91   266.32   276.35
eigval :      289.21   305.70   315.64   328.90   343.82   355.21
eigval :      367.16   370.76   375.14   375.67   379.04   382.29
eigval :      386.28   407.27   431.41   444.21   463.42   468.96
eigval :      474.51   483.02   491.21   493.27   515.58   527.47
eigval :      536.54   562.36   572.44   573.92   580.32   586.33
eigval :      587.39   588.95   589.70   594.31   621.45   623.71
eigval :      632.27   643.08   655.23   660.22   662.75   663.64
eigval :      673.74   675.65   682.94   689.80   692.86   703.98
eigval :      722.91   726.61   737.79   755.63   756.49   757.26
eigval :      765.66   771.03   800.84   821.28   833.35   852.81
eigval :      872.11   872.28   873.01   875.93   882.34   883.42
eigval :      883.82   890.57   891.92   896.82   899.22   903.13
eigval :      908.95   910.77   913.92   923.76   925.04   926.88
eigval :      927.62   928.44   928.81   929.17   929.42   933.51
eigval :      937.30   941.96   945.39   961.23   963.01   970.53
eigval :      976.25   984.73  1002.77  1008.40  1011.26  1014.69
eigval :     1031.33  1066.81  1078.53  1080.92  1080.99  1082.13
eigval :     1082.69  1105.35  1112.25  1116.14  1119.41  1119.79
eigval :     1119.98  1121.75  1147.81  1158.51  1164.47  1173.71
eigval :     1176.85  1177.53  1178.05  1179.50  1181.21  1183.41
eigval :     1189.25  1192.80  1195.13  1199.89  1200.18  1210.31
eigval :     1225.67  1231.17  1249.97  1250.76  1269.33  1274.23
eigval :     1276.24  1278.40  1281.31  1282.69  1290.80  1309.15
eigval :     1313.11  1314.96  1315.88  1318.95  1320.40  1324.61
eigval :     1328.03  1332.63  1359.47  1373.37  1388.80  1395.22
eigval :     1405.02  1422.95  1428.05  1430.51  1433.09  1434.34
eigval :     1436.16  1441.19  1446.11  1454.17  1465.46  1469.67
eigval :     1472.64  1477.98  1480.69  1485.84  1487.54  1492.21
eigval :     1497.67  1538.22  1558.80  1566.31  1574.61  1577.02
eigval :     1579.12  1580.11  1582.36  1583.71  1590.75  1591.01
eigval :     1593.05  1596.11  1597.40  1598.44  1608.12  3025.91
eigval :     3029.34  3029.81  3031.72  3035.78  3038.56  3065.73
eigval :     3069.08  3069.77  3070.27  3070.75  3071.33  3071.50
eigval :     3071.97  3076.48  3077.79  3079.13  3079.73  3080.08
eigval :     3080.77  3080.92  3081.58  3081.59  3082.36  3082.89
eigval :     3084.01  3084.56  3087.94  3088.16  3088.87  3092.13
eigval :     3092.50  3092.75  3093.22  3094.27  3096.12  3100.68

   temp. (K)  partition function   enthalpy   heat capacity  entropy
                                   cal/mol     cal/K/mol   cal/K/mol   J/K/mol
 298.15  VIB  0.210E+21            25101.468    155.355    158.119
         ROT  0.114E+09              888.752      2.981     39.840
         INT  0.239E+29            25990.220    158.336    197.959
         TR   0.162E+29             1481.254      4.968     45.303
         TOT                       27471.4739   163.3040   243.2625  1017.8102

       T/K    H(0)-H(T)+PV         H(T)/Eh          T*S/Eh         G(T)/Eh
   ------------------------------------------------------------------------
    298.15    0.437786E-01    0.737097E+00    0.115582E+00    0.621515E+00
   ------------------------------------------------------------------------

         :::::::::::::::::::::::::::::::::::::::::::::::::::::
         ::                  THERMODYNAMIC                  ::
         :::::::::::::::::::::::::::::::::::::::::::::::::::::
         :: total free energy        -129.906584125543 Eh   ::
         ::.................................................::
         :: total energy             -130.528099610027 Eh   ::
         :: zero point energy           0.693318753889 Eh   ::
         :: G(RRHO) w/o ZPVE           -0.071803269406 Eh   ::
         :: G(RRHO) contrib.            0.621515484483 Eh   ::
         :::::::::::::::::::::::::::::::::::::::::::::::::::::

           -------------------------------------------------
          | TOTAL ENERGY             -130.528099610027 Eh   |
          | TOTAL ENTHALPY           -129.791002275834 Eh   |
          | TOTAL FREE ENERGY        -129.906584125543 Eh   |
          | GRADIENT NORM               0.000071692067 Eh/α |
          | HOMO-LUMO GAP               2.332628110375 eV   |
           -------------------------------------------------

 * finished run on 2025/09/05 at 09:41:50.076
