   * xtb version 6.7.1 (edcfbbe) compiled by 'albert@albert-system' on 2024-07-22

   ID    Z sym.   atoms
    1    6 C      1-7, 9-22, 24-36, 38-51
    2    7 N      8, 23, 37
    3    1 H      52-88

          program call               : xtb data2507/toluene/DFPBI/DFPBI_toluene_S0_crest.xyz --gfn 2 --gbsa toluene --ohess vtight --parallel 40 --molden --ceasefiles --namespace data2507/toluene/DFPBI/DFPBI_toluene_S0_finalOpt
      * Solvation model:               GBSA
        Solvent                        toluene
        Solvent mass                       9.2140E+01 g/mol
          :  Hamiltonian                  GFN2-xTB          :
 * total energy  :  -130.5279672 Eh     change       -0.6080853E-08 Eh
 * total energy  :  -130.5280164 Eh     change       -0.4928545E-04 Eh
 * total energy  :  -130.5280492 Eh     change       -0.3278696E-04 Eh
 * total energy  :  -130.5280676 Eh     change       -0.1834850E-04 Eh
 * total energy  :  -130.5280904 Eh     change       -0.2280546E-04 Eh
 * total energy  :  -130.5281072 Eh     change       -0.1683195E-04 Eh
 * total energy  :  -130.5281171 Eh     change       -0.9866176E-05 Eh
 * total energy  :  -130.5281254 Eh     change       -0.8330568E-05 Eh
 * total energy  :  -130.5281318 Eh     change       -0.6424734E-05 Eh
 * total energy  :  -130.5281369 Eh     change       -0.5086119E-05 Eh
 * total energy  :  -130.5281956 Eh     change       -0.1354274E-05 Eh
 * total energy  :  -130.5281970 Eh     change       -0.1336339E-05 Eh
 * total energy  :  -130.5281983 Eh     change       -0.1305502E-05 Eh
 * total energy  :  -130.5281997 Eh     change       -0.1444216E-05 Eh
 * total energy  :  -130.5282013 Eh     change       -0.1594542E-05 Eh
 * total energy  :  -130.5282032 Eh     change       -0.1896927E-05 Eh
 * total energy  :  -130.5282054 Eh     change       -0.2161324E-05 Eh
 * total energy  :  -130.5282079 Eh     change       -0.2541596E-05 Eh
 * total energy  :  -130.5282079 Eh     change       -0.5788024E-08 Eh
   *** GEOMETRY OPTIMIZATION CONVERGED AFTER 44 ITERATIONS ***

 final structure:
================
88
 xtb: 6.7.1 (edcfbbe)
C            1.57059760824029        0.68145881263407        2.25253786420199
C            1.60726317748448        0.63570013156233        0.72191075568864
C            1.54100375897502        2.05318831893874        0.14246827163860
C            0.49415194338318       -0.22688698905016        0.16965369006439
C           -0.86318565735116       -0.05453253583817        0.30092374745213
C           -1.72723324003691       -0.96824973195477       -0.31157888081564
C           -3.17109308369004       -0.83726328866340       -0.21883451786048
N           -3.99422980219235       -1.85584431387461       -0.15544197506989
C           -5.25333381894743       -1.34690672907126       -0.03719345206140
C           -6.40919487726335       -2.22987390533214        0.02125774454563
C           -7.67020561606126       -1.82557826022846       -0.41457784455077
C           -8.74427337641127       -2.69301673734302       -0.34364591670351
C           -8.57758059740566       -3.97587365676399        0.15276574274851
C           -7.32296008113873       -4.39304077234493        0.56827191121220
C           -6.24692307089225       -3.52916247995018        0.50204881063953
C           -5.18984788433606        0.03656599765538       -0.02275714434118
C           -6.22946972445397        1.05072732647821        0.10580279529498
C           -7.15831227774023        0.96720231307636        1.14290552603918
C           -8.14045569361192        1.92959918594899        1.27971554256672
C           -8.20857187615249        2.98879069100494        0.38811302585374
C           -7.29292244731567        3.07642932234094       -0.64730138605212
C           -6.30898380273570        2.11536447578279       -0.79027030908628
N           -3.85350933178783        0.35056609652213       -0.14962901651982
C           -3.32391696605350        1.65313592749136       -0.23648283605286
C           -2.53370142128406        2.00588274383410       -1.32557596933133
C           -2.01935469750722        3.28642726532450       -1.41194612280535
C           -2.29547906373610        4.21792169478319       -0.42381201678917
C           -3.08608982208024        3.86578356550974        0.65759721881209
C           -3.60108626406748        2.58559164041771        0.75689464523215
C           -1.20242376418901       -2.06050382981970       -1.00686988399706
C            0.16197160041904       -2.23973699802678       -1.13333518150464
C            1.01529394614887       -1.31207424954108       -0.55343120285386
C            2.46324417494819       -1.22849396631452       -0.52673507764103
C            3.43953359558898       -2.03674043893863       -1.08972920353441
C            4.76950966270857       -1.70472547122181       -0.91554653140874
C            5.14094851108219       -0.58060309887061       -0.17266853491867
N            6.49070278011960       -0.25325016137000       -0.01132546405337
C            6.88637260067824        1.09056742024242        0.01074856277242
C            7.90567699529243        1.51376443540466        0.86400908945687
C            8.29594932751678        2.83919560674743        0.87999048820785
C            7.67359321042398        3.76478782639987        0.05780851560538
C            6.65774188483116        3.35080562750147       -0.78897252142776
C            6.26742125368439        2.02585630076262       -0.81931199822248
C            7.45232798341048       -1.26358369636513        0.11526502097125
C            8.70649962854168       -1.12453867945799       -0.47966672133151
C            9.65444351811581       -2.12108703208154       -0.34852977754409
C            9.36753829501408       -3.27352967216998        0.36539347231632
C            8.12209472495684       -3.41850017918278        0.95539737875924
C            7.17120618847092       -2.42300552612040        0.83841657782449
C            4.15344187725253        0.22566550974072        0.40505714798043
C            2.83103066428547       -0.09595474959818        0.21767108141938
H            0.65272128603618        1.15551476677027        2.59236198458135
H            1.61354270459711       -0.32629985322955        2.66108397369567
H            2.41745937345288        1.24780288585399        2.63264055361404
H            0.61123368775591        2.53569349932018        0.43432028651403
H            2.37557584658416        2.64773783461796        0.50626247329445
H            1.58683043254910        2.01594043664106       -0.94402007393654
H           -1.25776217634061        0.76544478438129        0.88201809705522
H           -7.80618747132562       -0.83377793163489       -0.82013067432233
H           -9.71724703128186       -2.36653775595959       -0.68275322782248
H           -9.42029515761256       -4.64979387248168        0.20790272144998
H           -7.18464023138872       -5.39571771953690        0.94724445391942
H           -5.26325664380100       -3.84176467118307        0.81867978333462
H           -7.09985328897424        0.14157392310118        1.83779609032161
H           -8.85339695399326        1.85524985208665        2.08794790287308
H           -8.97518401625876        3.74140099833266        0.49871728193535
H           -7.34507940324463        3.89551851240958       -1.34980900119992
H           -5.60560259971034        2.18145988952165       -1.60820140727703
H           -2.32691669291725        1.27349652268666       -2.09231148365196
H           -1.40464477059952        3.55767677911863       -2.25688048709037
H           -1.89350978747929        5.21709563251103       -0.49669311071215
H           -3.30247257385739        4.58752523907097        1.43088204241489
H           -4.21301477083044        2.30191643122304        1.60040577886547
H           -1.89375382359236       -2.76278499064637       -1.44774389835944
H            0.55262851756092       -3.08646020014609       -1.67793153773963
H            3.17054720660137       -2.90726106505153       -1.66930882458122
H            5.54009346554176       -2.31501529002815       -1.36377412839842
H            8.38686402856258        0.79675076584464        1.51331395944639
H            9.08656256789362        3.15244125758012        1.54647748324297
H            7.97860090070102        4.80038810579156        0.07607929094822
H            6.17044618134838        4.06370869809779       -1.43837948164417
H            5.48179416841290        1.70464687736378       -1.48769543707167
H            8.92972762771472       -0.23202534929475       -1.04617919473007
H           10.62088910495503       -2.00063646498006       -0.81638906335898
H           10.10926447162627       -4.05218687340074        0.46219341636402
H            7.89112013984871       -4.31075431074185        1.51925736737831
H            6.20436405746313       -2.53495815580595        1.30740856032316
H            4.44237697656601        1.08816031445341        0.98725896951770

          :  Hamiltonian                  GFN2-xTB          :
         :: gradient norm              0.000062150650 Eh/a0 ::
         :: HOMO-LUMO gap              2.313052889469 eV    ::
         :: SCC energy              -132.958895248097 Eh    ::
         :: -> dispersion             -0.124674984092 Eh    ::
         :: -> Gsolv                  -0.053485348416 Eh    ::
         :: repulsion energy           2.430687314004 Eh    ::

    * Orbital Energies and Occupations

         #    Occupation            Energy/Eh            Energy/eV
      -------------------------------------------------------------
         1        2.0000           -0.6857117             -18.6592
       ...           ...                  ...                  ...
       110        2.0000           -0.4097079             -11.1487
       111        2.0000           -0.4079857             -11.1019
       112        2.0000           -0.4072666             -11.0823
       113        2.0000           -0.4059441             -11.0463
       114        2.0000           -0.4041651             -10.9979
       115        2.0000           -0.4026785             -10.9574
       116        2.0000           -0.4002504             -10.8914
       117        2.0000           -0.3981370             -10.8339
       118        2.0000           -0.3966638             -10.7938
       119        2.0000           -0.3863949             -10.5143
       120        2.0000           -0.3765019             -10.2451
       121        2.0000           -0.3620962              -9.8531
       122        2.0000           -0.3461790              -9.4200 (HOMO)
       123                         -0.2611759              -7.1070 (LUMO)
       124                         -0.2470349              -6.7222
       125                         -0.2390159              -6.5040
       126                         -0.2383866              -6.4868
       127                         -0.2301364              -6.2623
       128                         -0.2278586              -6.2003
       129                         -0.2265899              -6.1658
       130                         -0.2238329              -6.0908
       131                         -0.2219630              -6.0399
       132                         -0.2214010              -6.0246
       133                         -0.2181430              -5.9360
       ...                                ...                  ...
       241                          0.7322466              19.9254
      -------------------------------------------------------------
                  HL-Gap            0.0850031 Eh            2.3131 eV

     #   Z          covCN         q      C6AA      α(0)
     1   6 C        3.758    -0.099    22.444     6.754
     2   6 C        3.935     0.019    20.194     6.386
     3   6 C        3.759    -0.099    22.436     6.753
     4   6 C        3.055    -0.002    28.027     8.682
     5   6 C        2.918    -0.041    29.017     8.833
     6   6 C        2.975    -0.007    28.194     8.710
     7   6 C        3.155     0.131    24.856     8.152
     8   7 N        1.912    -0.320    29.141     8.004
     9   6 C        3.163     0.054    26.472     8.410
    10   6 C        2.973     0.006    27.895     8.663
    11   6 C        2.923    -0.039    28.980     8.828
    12   6 C        2.919    -0.032    28.791     8.799
    13   6 C        2.919    -0.034    28.845     8.807
    14   6 C        2.918    -0.031    28.784     8.798
    15   6 C        2.927    -0.032    28.794     8.800
    16   6 C        3.067     0.016    27.589     8.613
    17   6 C        2.971     0.006    27.886     8.662
    18   6 C        2.925    -0.033    28.824     8.804
    19   6 C        2.918    -0.029    28.715     8.787
    20   6 C        2.920    -0.031    28.776     8.797
    21   6 C        2.918    -0.030    28.742     8.791
    22   6 C        2.924    -0.034    28.853     8.809
    23   7 N        2.850    -0.047    22.155     6.991
    24   6 C        2.913     0.067    26.501     8.442
    25   6 C        2.921    -0.037    28.931     8.821
    26   6 C        2.920    -0.025    28.636     8.775
    27   6 C        2.919    -0.030    28.743     8.792
    28   6 C        2.920    -0.027    28.665     8.780
    29   6 C        2.921    -0.038    28.953     8.824
    30   6 C        2.928    -0.035    28.869     8.811
    31   6 C        2.912    -0.036    28.901     8.815
    32   6 C        3.036    -0.000    27.996     8.679
    33   6 C        3.036    -0.010    28.230     8.715
    34   6 C        2.913    -0.035    28.876     8.812
    35   6 C        2.923    -0.052    29.304     8.877
    36   6 C        2.924     0.063    26.594     8.457
    37   7 N        2.752    -0.077    22.741     7.083
    38   6 C        2.924     0.066    26.527     8.446
    39   6 C        2.922    -0.048    29.189     8.860
    40   6 C        2.919    -0.030    28.757     8.794
    41   6 C        2.919    -0.039    28.981     8.828
    42   6 C        2.919    -0.030    28.760     8.794
    43   6 C        2.922    -0.048    29.186     8.859
    44   6 C        2.923     0.066    26.532     8.447
    45   6 C        2.922    -0.048    29.193     8.860
    46   6 C        2.919    -0.030    28.758     8.794
    47   6 C        2.919    -0.039    28.978     8.827
    48   6 C        2.919    -0.030    28.757     8.794
    49   6 C        2.922    -0.048    29.186     8.859
    50   6 C        2.918    -0.053    29.309     8.878
    51   6 C        3.054    -0.000    27.985     8.676
    52   1 H        0.925     0.042     2.417     2.431
    53   1 H        0.925     0.035     2.513     2.479
    54   1 H        0.925     0.046     2.376     2.410
    55   1 H        0.925     0.042     2.423     2.434
    56   1 H        0.925     0.046     2.364     2.404
    57   1 H        0.925     0.036     2.507     2.476
    58   1 H        0.926     0.025     2.657     2.549
    59   1 H        0.926     0.024     2.680     2.560
    60   1 H        0.926     0.029     2.598     2.520
    61   1 H        0.926     0.031     2.578     2.511
    62   1 H        0.926     0.031     2.571     2.508
    63   1 H        0.926     0.042     2.423     2.434
    64   1 H        0.926     0.029     2.601     2.522
    65   1 H        0.926     0.035     2.510     2.478
    66   1 H        0.926     0.036     2.505     2.475
    67   1 H        0.926     0.034     2.524     2.484
    68   1 H        0.926     0.025     2.660     2.551
    69   1 H        0.926     0.037     2.493     2.469
    70   1 H        0.926     0.046     2.365     2.405
    71   1 H        0.926     0.047     2.361     2.403
    72   1 H        0.926     0.045     2.383     2.414
    73   1 H        0.926     0.038     2.481     2.463
    74   1 H        0.926     0.040     2.443     2.444
    75   1 H        0.926     0.035     2.514     2.479
    76   1 H        0.926     0.033     2.538     2.491
    77   1 H        0.926     0.031     2.568     2.506
    78   1 H        0.926     0.031     2.572     2.508
    79   1 H        0.926     0.033     2.548     2.496
    80   1 H        0.926     0.032     2.565     2.504
    81   1 H        0.926     0.034     2.536     2.490
    82   1 H        0.926     0.033     2.547     2.496
    83   1 H        0.926     0.031     2.568     2.506
    84   1 H        0.926     0.033     2.545     2.495
    85   1 H        0.926     0.032     2.565     2.504
    86   1 H        0.926     0.033     2.544     2.494
    87   1 H        0.926     0.032     2.557     2.500
    88   1 H        0.926     0.033     2.538     2.491

molecular dipole:
                 x           y           z       tot (Debye)
 q only:        0.898       1.704       0.177
   full:        0.776       1.993       0.153       5.451

 projected vibrational frequencies (cm⁻¹)
eigval :       -0.00    -0.00     0.00     0.00     0.00     0.00
eigval :        8.79    11.10    18.20    25.68    28.85    30.91
eigval :       34.67    40.72    45.61    54.74    56.02    60.81
eigval :       66.51    68.24    76.62    82.37    93.70   107.45
eigval :      119.83   126.36   130.69   132.93   154.93   163.49
eigval :      189.63   210.15   224.15   227.25   231.00   234.97
eigval :      240.41   244.20   254.99   257.71   267.30   275.36
eigval :      291.40   309.02   316.25   329.92   344.07   355.44
eigval :      367.88   372.53   377.08   377.56   377.95   383.12
eigval :      386.13   406.86   431.95   442.96   463.24   468.03
eigval :      474.48   483.78   491.04   493.10   515.67   527.82
eigval :      536.49   562.84   573.39   574.88   580.59   586.33
eigval :      587.53   588.30   589.45   595.39   621.84   623.44
eigval :      631.41   643.14   655.58   660.50   662.99   664.04
eigval :      673.39   676.83   683.12   688.58   692.40   704.24
eigval :      722.74   727.35   738.19   756.46   757.40   760.80
eigval :      763.55   772.46   801.18   823.14   833.64   853.26
eigval :      872.22   874.11   875.92   879.63   880.62   881.48
eigval :      884.89   892.29   893.65   899.25   902.63   905.70
eigval :      909.36   911.49   913.57   927.24   927.43   927.76
eigval :      927.84   928.87   930.43   931.34   932.17   933.53
eigval :      936.23   941.89   946.69   961.69   966.84   971.31
eigval :      976.50   984.92  1002.86  1008.81  1012.89  1014.64
eigval :     1031.22  1068.50  1078.30  1080.92  1081.64  1082.69
eigval :     1082.94  1105.89  1113.40  1115.53  1117.62  1120.10
eigval :     1120.39  1122.59  1147.83  1158.14  1164.30  1174.23
eigval :     1177.23  1177.91  1178.34  1178.57  1180.28  1182.19
eigval :     1188.48  1194.05  1195.46  1200.73  1201.21  1211.14
eigval :     1226.96  1232.01  1250.46  1251.65  1269.26  1273.99
eigval :     1276.76  1278.17  1282.31  1282.53  1290.98  1309.70
eigval :     1313.18  1314.67  1315.56  1318.70  1320.11  1324.64
eigval :     1328.37  1331.94  1359.21  1372.92  1390.88  1395.29
eigval :     1408.65  1422.93  1428.12  1430.29  1432.04  1434.20
eigval :     1436.00  1441.20  1446.10  1454.13  1465.12  1469.96
eigval :     1472.96  1477.83  1484.97  1486.43  1487.55  1494.68
eigval :     1500.31  1535.01  1558.03  1565.83  1574.28  1577.17
eigval :     1578.96  1579.21  1581.94  1583.51  1590.69  1591.16
eigval :     1592.97  1596.34  1597.49  1598.62  1608.00  3026.76
eigval :     3030.46  3030.93  3033.17  3037.27  3039.55  3065.28
eigval :     3068.91  3070.63  3070.83  3071.34  3071.55  3072.00
eigval :     3072.48  3076.00  3078.29  3079.28  3079.84  3081.00
eigval :     3081.37  3081.49  3082.21  3082.70  3083.29  3084.54
eigval :     3084.78  3085.29  3087.88  3088.12  3088.26  3092.52
eigval :     3092.84  3092.94  3093.72  3095.69  3095.93  3100.95

   temp. (K)  partition function   enthalpy   heat capacity  entropy
                                   cal/mol     cal/K/mol   cal/K/mol   J/K/mol
 298.15  VIB  0.958E+20            25016.299    155.439    157.160
         ROT  0.113E+09              888.752      2.981     39.829
         INT  0.108E+29            25905.051    158.420    196.989
         TR   0.162E+29             1481.254      4.968     45.303
         TOT                       27386.3053   163.3880   242.2923  1013.7512

       T/K    H(0)-H(T)+PV         H(T)/Eh          T*S/Eh         G(T)/Eh
   ------------------------------------------------------------------------
    298.15    0.436429E-01    0.737331E+00    0.115121E+00    0.622211E+00
   ------------------------------------------------------------------------

         :::::::::::::::::::::::::::::::::::::::::::::::::::::
         ::                  THERMODYNAMIC                  ::
         :::::::::::::::::::::::::::::::::::::::::::::::::::::
         :: total free energy        -129.905997405379 Eh   ::
         ::.................................................::
         :: total energy             -130.528207940013 Eh   ::
         :: zero point energy           0.693688591635 Eh   ::
         :: G(RRHO) w/o ZPVE           -0.071478057000 Eh   ::
         :: G(RRHO) contrib.            0.622210534635 Eh   ::
         :::::::::::::::::::::::::::::::::::::::::::::::::::::

           -------------------------------------------------
          | TOTAL ENERGY             -130.528207940013 Eh   |
          | TOTAL ENTHALPY           -129.790876492864 Eh   |
          | TOTAL FREE ENERGY        -129.905997405379 Eh   |
          | GRADIENT NORM               0.000062149807 Eh/α |
          | HOMO-LUMO GAP               2.313053427677 eV   |
           -------------------------------------------------

 * finished run on 2025/09/05 at 09:48:38.039
