   * xtb version 6.7.1 (edcfbbe) compiled by 'albert@albert-system' on 2024-07-22

   ID    Z sym.   atoms
    1    8 O      1
    2    6 C      2-5, 7-9, 11-24
    3   35 Br     6
    4    7 N      10, 25
    5    1 H      26-38

          program call               : xtb data2507/gas/HPIPXZ/HPIPXZ_gas_S0_finalOpt.xtbopt.xyz --gfn 2 --spinpol --tblite --uhf 2 --ohess vtight --parallel 40 --molden --ceasefiles --namespace data2507/gas/HPIPXZ/HPIPXZ_gas_T1_preOpt
 * total energy  :   -65.5579725 Eh     change       -0.5599389E-08 Eh
 * total energy  :   -65.5647965 Eh     change       -0.6823939E-02 Eh
 * total energy  :   -65.5668049 Eh     change       -0.2008386E-02 Eh
 * total energy  :   -65.5668797 Eh     change       -0.7481240E-04 Eh
 * total energy  :   -65.5669043 Eh     change       -0.2461568E-04 Eh
 * total energy  :   -65.5669077 Eh     change       -0.3395764E-05 Eh
 * total energy  :   -65.5669095 Eh     change       -0.1823735E-05 Eh
 * total energy  :   -65.5669104 Eh     change       -0.8730499E-06 Eh
 * total energy  :   -65.5669110 Eh     change       -0.6132837E-06 Eh
 * total energy  :   -65.5669114 Eh     change       -0.3541035E-06 Eh
 * total energy  :   -65.5669116 Eh     change       -0.2328428E-06 Eh
 * total energy  :   -65.5669117 Eh     change       -0.1236513E-06 Eh
 * total energy  :   -65.5669118 Eh     change       -0.4436939E-07 Eh
   *** GEOMETRY OPTIMIZATION CONVERGED AFTER 13 ITERATIONS ***

 final structure:
================
38
 xtb: 6.7.1 (edcfbbe)
O           -1.28423915570694        2.83820127909929        0.00318371293753
C           -2.30603097066138        1.98210904840776       -0.00578827276962
C           -3.59861332185596        2.48836350591476       -0.00606316319015
C           -4.70155535496592        1.65071597104466       -0.01511130317497
C           -4.49516372540256        0.27182581194363       -0.02421293406175
Br          -6.01048984161565       -0.88605820423100       -0.03662756627627
C           -3.23903410920878       -0.27666076223979       -0.02443352796557
C           -2.09759097046752        0.56040056004437       -0.01509991444673
C           -0.79220504626931        0.04059780440493       -0.01454154160438
N            0.33260340422558        0.80889240440873       -0.00477360613106
C            1.36896879273996       -0.01517774092736       -0.00691448849561
C            0.92421660141184       -1.37457213147783       -0.01865600246306
C            1.80818884964499       -2.41947470313242       -0.02310611835958
C            3.18856060765444       -2.10651254458380       -0.01583914680724
C            3.68142895174165       -0.80968725168332       -0.00449365358965
C            5.10355094988478       -0.51054245673937        0.00262811481933
C            6.08978729720136       -1.49660195311724       -0.00301936682653
C            7.43617127468301       -1.17905529693917        0.00410552114626
C            7.84762602584186        0.15167477477205        0.01733046078046
C            6.90765156700326        1.14953155628734        0.02306317918789
C            5.52562070430437        0.85222558624480        0.01579503001286
C            4.57865703323873        1.88856512690421        0.02121514633565
C            3.21683520237310        1.60636112938235        0.01351230670230
C            2.76960037100497        0.29650343209938        0.00088511193617
N           -0.44240682928486       -1.30029095770163       -0.02314862801903
H           -0.43677032057017        2.31887547521896        0.00245247363720
H           -3.72482123583113        3.55900927468001        0.00105916933855
H           -5.70073287113507        2.05420406945282       -0.01510693918748
H           -3.12414326257885       -1.34905151723772       -0.03159612395268
H            1.48328549255700       -3.44760639678411       -0.03182712770214
H            3.86946957519618       -2.94175926233454       -0.01937999210926
H            5.81532419592000       -2.53950245367834       -0.01333218453726
H            8.17149271344163       -1.96980910042912       -0.00065197751854
H            8.90061673617094        0.39101518455007        0.02290261745220
H            7.20799574849579        2.18725718130204        0.03318782489635
H            4.91932397328662        2.91283591884487        0.03125522670350
H            2.49073110901388        2.40479062976698        0.01741258136289
H           -1.07640565785613       -2.07825315055823       -0.03143292257154

 projected vibrational frequencies (cm⁻¹)
eigval :       -0.00    -0.00    -0.00     0.00     0.00     0.00
eigval :       21.33    29.62    52.78    66.07    78.58   105.73
eigval :      116.07   150.88   166.10   200.07   201.69   252.26
eigval :      259.31   267.00   310.42   322.78   330.94   363.59
eigval :      373.74   392.93   410.31   419.37   436.36   458.07
eigval :      462.04   480.86   493.01   502.01   516.72   546.84
eigval :      587.62   587.67   595.02   625.72   644.38   664.58
eigval :      682.02   694.29   721.08   730.40   743.31   756.62
eigval :      766.63   780.34   782.10   792.11   804.02   812.96
eigval :      826.23   854.30   855.66   872.63   873.06   880.80
eigval :      896.80   917.44   918.46  1012.62  1036.00  1069.98
eigval :     1085.59  1089.19  1107.18  1133.87  1144.82  1162.10
eigval :     1173.93  1181.89  1210.54  1213.32  1231.62  1247.15
eigval :     1254.40  1266.59  1273.63  1285.82  1296.33  1313.64
eigval :     1354.19  1358.43  1378.11  1380.15  1384.31  1397.42
eigval :     1423.46  1439.72  1454.64  1481.40  1489.18  1513.49
eigval :     1516.94  1527.48  1545.34  1562.55  1586.03  2891.25
eigval :     3074.94  3081.19  3085.88  3091.16  3094.71  3098.15
eigval :     3098.99  3100.40  3109.54  3114.77  3118.77  3509.99

   temp. (K)  partition function   enthalpy   heat capacity  entropy
                                   cal/mol     cal/K/mol   cal/K/mol   J/K/mol
 298.15  VIB  0.145E+08            10745.895     72.034     64.211
         ROT  0.179E+08              888.752      2.981     36.167
         INT  0.259E+15            11634.648     75.015    100.379
         TR   0.743E+28             1481.254      4.968     43.749
         TOT                       13115.9014    79.9831   144.1278   603.0307

       T/K    H(0)-H(T)+PV         H(T)/Eh          T*S/Eh         G(T)/Eh
   ------------------------------------------------------------------------
    298.15    0.209015E-01    0.293157E+00    0.684798E-01    0.224678E+00
   ------------------------------------------------------------------------

         :::::::::::::::::::::::::::::::::::::::::::::::::::::
         ::                  THERMODYNAMIC                  ::
         :::::::::::::::::::::::::::::::::::::::::::::::::::::
         :: total free energy         -65.342234208024 Eh   ::
         ::.................................................::
         :: total energy              -65.566911776976 Eh   ::
         :: zero point energy           0.272255812469 Eh   ::
         :: G(RRHO) w/o ZPVE           -0.047578243516 Eh   ::
         :: G(RRHO) contrib.            0.224677568953 Eh   ::
         :::::::::::::::::::::::::::::::::::::::::::::::::::::

           -------------------------------------------------
          | TOTAL ENERGY              -65.566911776976 Eh   |
          | TOTAL ENTHALPY            -65.273754445146 Eh   |
          | TOTAL FREE ENERGY         -65.342234208024 Eh   |
          | GRADIENT NORM               0.000026310662 Eh/α |
           -------------------------------------------------

 * finished run on 2025/09/08 at 00:43:49.759
