   * xtb version 6.7.1 (edcfbbe) compiled by 'albert@albert-system' on 2024-07-22

   ID    Z sym.   atoms
    1    8 O      1
    2    6 C      2-5, 7-9, 11-24
    3   35 Br     6
    4    7 N      10, 25
    5    1 H      26-38

          program call               : xtb data2507/gas/HPIPXZ/HPIPXZ.xyz --gfn 2 --ohess vtight --parallel 40 --molden --ceasefiles --namespace data2507/gas/HPIPXZ/HPIPXZ_gas_S0_preOpt
          :  Hamiltonian                  GFN2-xTB          :
 * total energy  :   -65.6408656 Eh     change       -0.1806839E-08 Eh
 * total energy  :   -65.6482803 Eh     change       -0.7414618E-02 Eh
 * total energy  :   -65.6504861 Eh     change       -0.2205870E-02 Eh
 * total energy  :   -65.6507508 Eh     change       -0.2646342E-03 Eh
 * total energy  :   -65.6508056 Eh     change       -0.5483118E-04 Eh
 * total energy  :   -65.6508124 Eh     change       -0.6773329E-05 Eh
 * total energy  :   -65.6508147 Eh     change       -0.2295986E-05 Eh
 * total energy  :   -65.6508151 Eh     change       -0.3969899E-06 Eh
 * total energy  :   -65.6508151 Eh     change       -0.3199612E-07 Eh
   *** GEOMETRY OPTIMIZATION CONVERGED AFTER 9 ITERATIONS ***

 final structure:
================
38
 xtb: 6.7.1 (edcfbbe)
O           -3.18622515817835        2.33709232653156       -0.00005975392854
C           -4.08718369553511        1.35564725059788       -0.00003060074294
C           -5.44132614267201        1.69826585291671       -0.00002889637048
C           -6.42241038634752        0.73123383929933        0.00000437678464
C           -6.05232244181030       -0.60560296758361        0.00003572494069
Br          -7.39920593517873       -1.95652797210579        0.00008662717812
C           -4.72602183916037       -0.98069661344390        0.00003193814578
C           -3.72320802255178       -0.01031601870005       -0.00000197156302
C           -2.32161499063763       -0.36832074921477       -0.00000631699214
N           -1.34547570937395        0.51704493053514       -0.00000667602096
C           -0.17893447275694       -0.18907198676515       -0.00000900203756
C           -0.47085611496977       -1.56257429598991       -0.00001274696429
C            0.53980387956967       -2.52037103153191       -0.00001651411481
C            1.83520223746928       -2.07080661700250       -0.00001566646821
C            2.17761799040357       -0.69739734618464       -0.00000877180963
C            3.54635234914237       -0.24381246608546       -0.00000317740120
C            4.64753804491046       -1.11767529616582       -0.00001656233925
C            5.93671394413372       -0.64777135822990       -0.00000727391337
C            6.19099471828594        0.72499888374866        0.00001673899212
C            5.14149403611757        1.60482646559568        0.00002802679580
C            3.81192294593888        1.14859746546854        0.00001684438869
C            2.73815888635517        2.08018418627590        0.00002393618289
C            1.45131733588839        1.65958573115736        0.00001104596325
C            1.15161030521550        0.27473585766146       -0.00000383595723
N           -1.83743655377640       -1.64825478312338       -0.00001020157150
H           -2.27825881800437        1.93189355196147       -0.00004857674367
H           -5.69859947554354        2.74522900291956       -0.00005270693751
H           -7.46522411590059        1.00718133962017        0.00000742193766
H           -4.47687663515710       -2.03085464633990        0.00005858670486
H            0.31097973285579       -3.57540770010649       -0.00001917857218
H            2.62077095934223       -2.80847657618473       -0.00001778532803
H            4.49174210542138       -2.18481284946269       -0.00003575852171
H            6.76269299093971       -1.34403794515633       -0.00001865049738
H            7.20943687105426        1.08422933052241        0.00002532644239
H            5.32042279646288        2.67076494088455        0.00004518370566
H            2.97623684538759        3.13418461281224        0.00003883086598
H            0.62569740467522        2.35448968333626        0.00001440094334
H           -2.37552787201513       -2.49739703246801       -0.00001438517630

          :  Hamiltonian                  GFN2-xTB          :
         :: gradient norm              0.000040223914 Eh/a0 ::
         :: HOMO-LUMO gap              2.518029679563 eV    ::
         :: SCC energy               -66.727778834307 Eh    ::
         :: -> dispersion             -0.049128084397 Eh    ::
         :: repulsion energy           1.076963734856 Eh    ::

    * Orbital Energies and Occupations

         #    Occupation            Energy/Eh            Energy/eV
      -------------------------------------------------------------
         1        2.0000           -0.8373966             -22.7867
       ...           ...                  ...                  ...
        48        2.0000           -0.4434059             -12.0657
        49        2.0000           -0.4429851             -12.0542
        50        2.0000           -0.4406485             -11.9907
        51        2.0000           -0.4264289             -11.6037
        52        2.0000           -0.4213433             -11.4653
        53        2.0000           -0.4204083             -11.4399
        54        2.0000           -0.4171107             -11.3502
        55        2.0000           -0.4115338             -11.1984
        56        2.0000           -0.4093253             -11.1383
        57        2.0000           -0.4020293             -10.9398
        58        2.0000           -0.3935482             -10.7090
        59        2.0000           -0.3839362             -10.4474
        60        2.0000           -0.3759878             -10.2311 (HOMO)
        61                         -0.2834519              -7.7131 (LUMO)
        62                         -0.2581049              -7.0234
        63                         -0.2479004              -6.7457
        64                         -0.2404448              -6.5428
        65                         -0.2183656              -5.9420
        66                         -0.2062067              -5.6112
        67                         -0.1910682              -5.1992
        68                         -0.1826764              -4.9709
        69                         -0.1612720              -4.3884
        70                         -0.1041587              -2.8343
        71                         -0.1007074              -2.7404
       ...                                ...                  ...
       118                          0.7202379              19.5987
      -------------------------------------------------------------
                  HL-Gap            0.0925359 Eh            2.5180 eV

     #   Z          covCN         q      C6AA      α(0)
     1   8 O        1.657    -0.377    20.411     6.099
     2   6 C        2.847     0.156    24.611     8.130
     3   6 C        2.921    -0.055    29.366     8.887
     4   6 C        2.985    -0.034    28.840     8.809
     5   6 C        2.914     0.070    26.428     8.430
     6  35 Br       1.066    -0.176   189.911    22.220
     7   6 C        2.997    -0.044    29.076     8.845
     8   6 C        2.973    -0.045    29.102     8.849
     9   6 C        3.158     0.139    24.678     8.122
    10   7 N        1.905    -0.303    28.693     7.942
    11   6 C        3.179     0.061    26.227     8.361
    12   6 C        3.086     0.041    26.986     8.516
    13   6 C        2.905    -0.054    29.336     8.881
    14   6 C        2.926    -0.039    28.970     8.827
    15   6 C        2.979    -0.000    28.028     8.684
    16   6 C        2.980     0.009    27.817     8.652
    17   6 C        2.919    -0.035    28.879     8.812
    18   6 C        2.917    -0.030    28.761     8.794
    19   6 C        2.915    -0.030    28.755     8.793
    20   6 C        2.923    -0.035    28.860     8.810
    21   6 C        2.987     0.013    27.723     8.637
    22   6 C        2.917    -0.035    28.863     8.810
    23   6 C        2.913    -0.033    28.821     8.803
    24   6 C        2.982     0.001    28.005     8.681
    25   7 N        2.784    -0.120    23.601     7.215
    26   1 H        0.806     0.338     0.618     1.235
    27   1 H        0.926     0.066     2.132     2.283
    28   1 H        0.926     0.060     2.198     2.318
    29   1 H        0.926     0.045     2.387     2.416
    30   1 H        0.926     0.031     2.576     2.510
    31   1 H        0.926     0.040     2.446     2.446
    32   1 H        0.926     0.032     2.559     2.502
    33   1 H        0.926     0.030     2.579     2.511
    34   1 H        0.926     0.031     2.571     2.507
    35   1 H        0.926     0.033     2.550     2.497
    36   1 H        0.926     0.035     2.520     2.482
    37   1 H        0.926     0.046     2.373     2.409
    38   1 H        0.860     0.168     1.287     1.777

molecular dipole:
                 x           y           z       tot (Debye)
 q only:        1.000      -0.108      -0.000
   full:        1.309      -0.457      -0.000       3.524

 projected vibrational frequencies (cm⁻¹)
eigval :       -0.00    -0.00    -0.00    -0.00     0.00     0.00
eigval :       20.18    21.78    53.22    71.71    79.92   112.77
eigval :      115.63   158.41   172.38   204.20   215.09   255.02
eigval :      269.32   278.53   319.18   330.26   338.08   371.43
eigval :      381.98   415.62   435.93   466.53   467.94   492.25
eigval :      492.29   515.74   518.94   542.68   547.09   554.15
eigval :      594.86   601.70   626.54   649.15   652.60   691.01
eigval :      695.42   702.24   735.57   749.15   750.76   765.56
eigval :      786.35   804.98   818.50   833.51   839.70   856.17
eigval :      857.53   870.19   891.74   909.87   912.41   915.93
eigval :      920.21   927.31   961.91  1041.91  1067.29  1093.00
eigval :     1100.02  1102.27  1138.36  1157.63  1167.95  1173.64
eigval :     1185.71  1216.33  1221.36  1232.48  1248.66  1260.52
eigval :     1274.72  1289.77  1312.72  1328.20  1350.81  1363.16
eigval :     1368.48  1385.85  1397.87  1398.58  1404.90  1416.35
eigval :     1439.29  1464.86  1498.24  1512.82  1541.27  1554.22
eigval :     1577.42  1580.29  1590.23  1599.48  1610.17  2898.62
eigval :     3070.30  3075.38  3077.42  3082.42  3089.31  3092.35
eigval :     3099.45  3099.84  3103.00  3115.86  3117.05  3487.23

   temp. (K)  partition function   enthalpy   heat capacity  entropy
                                   cal/mol     cal/K/mol   cal/K/mol   J/K/mol
 298.15  VIB  0.111E+08            10343.482     69.579     61.954
         ROT  0.178E+08              888.752      2.981     36.162
         INT  0.199E+15            11232.234     72.560     98.116
         TR   0.743E+28             1481.254      4.968     43.749
         TOT                       12713.4884    77.5277   141.8651   593.5635

       T/K    H(0)-H(T)+PV         H(T)/Eh          T*S/Eh         G(T)/Eh
   ------------------------------------------------------------------------
    298.15    0.202602E-01    0.297318E+00    0.674047E-01    0.229913E+00
   ------------------------------------------------------------------------

         :::::::::::::::::::::::::::::::::::::::::::::::::::::
         ::                  THERMODYNAMIC                  ::
         :::::::::::::::::::::::::::::::::::::::::::::::::::::
         :: total free energy         -65.420901967877 Eh   ::
         ::.................................................::
         :: total energy              -65.650815099452 Eh   ::
         :: zero point energy           0.277057575766 Eh   ::
         :: G(RRHO) w/o ZPVE           -0.047144444191 Eh   ::
         :: G(RRHO) contrib.            0.229913131575 Eh   ::
         :::::::::::::::::::::::::::::::::::::::::::::::::::::

           -------------------------------------------------
          | TOTAL ENERGY              -65.650815099452 Eh   |
          | TOTAL ENTHALPY            -65.353497290319 Eh   |
          | TOTAL FREE ENERGY         -65.420901967877 Eh   |
          | GRADIENT NORM               0.000040244308 Eh/α |
          | HOMO-LUMO GAP               2.518029873761 eV   |
           -------------------------------------------------

 * finished run on 2025/09/08 at 00:42:33.643
