   * xtb version 6.7.1 (edcfbbe) compiled by 'albert@albert-system' on 2024-07-22

   ID    Z sym.   atoms
    1    8 O      1
    2    6 C      2-5, 7-9, 11-24
    3   35 Br     6
    4    7 N      10, 25
    5    1 H      26-38

          program call               : xtb data2507/gas/HPIPXZ/HPIPXZ_gas_S0_crest.xyz --gfn 2 --ohess vtight --parallel 40 --molden --ceasefiles --namespace data2507/gas/HPIPXZ/HPIPXZ_gas_S0_finalOpt
          :  Hamiltonian                  GFN2-xTB          :
 * total energy  :   -65.6508093 Eh     change       -0.1349662E-08 Eh
 * total energy  :   -65.6508100 Eh     change       -0.7218920E-06 Eh
 * total energy  :   -65.6508109 Eh     change       -0.9110072E-06 Eh
 * total energy  :   -65.6508116 Eh     change       -0.6317146E-06 Eh
 * total energy  :   -65.6508124 Eh     change       -0.8853874E-06 Eh
 * total energy  :   -65.6508133 Eh     change       -0.8124848E-06 Eh
 * total energy  :   -65.6508136 Eh     change       -0.3563260E-06 Eh
 * total energy  :   -65.6508137 Eh     change       -0.1318149E-06 Eh
 * total energy  :   -65.6508139 Eh     change       -0.1705396E-06 Eh
 * total energy  :   -65.6508142 Eh     change       -0.2794541E-06 Eh
 * total energy  :   -65.6508145 Eh     change       -0.2768796E-06 Eh
 * total energy  :   -65.6508147 Eh     change       -0.1951394E-06 Eh
 * total energy  :   -65.6508148 Eh     change       -0.1396249E-06 Eh
 * total energy  :   -65.6508149 Eh     change       -0.9261456E-07 Eh
   *** GEOMETRY OPTIMIZATION CONVERGED AFTER 14 ITERATIONS ***

 final structure:
================
38
 xtb: 6.7.1 (edcfbbe)
O           -1.29531785339921        2.84743149915012       -0.00177889477358
C           -2.30516074090118        1.97837417649616       -0.00844764862231
C           -3.60983695260250        2.47726036651333       -0.00941313030703
C           -4.69745019593569        1.63180778463602       -0.01570668301214
C           -4.48649237519630        0.26084268640018       -0.02132141416772
Br          -5.98223840627047       -0.92311395126590       -0.02938136465783
C           -3.21324157350352       -0.26698360445513       -0.02097877321767
C           -2.10367546393674        0.57923392577416       -0.01465245921320
C           -0.75375109531257        0.05929347416526       -0.01398579265979
N            0.31982374703652        0.82354582916239       -0.00389516210773
C            1.39514244262884       -0.01507802503371       -0.00665790428652
C            0.94342767718285       -1.34457121291155       -0.01923120201285
C            1.83387497568163       -2.41499628931658       -0.02474514238886
C            3.17323830657593       -2.12152865190363       -0.01754522597465
C            3.67525233857697       -0.79815940567444       -0.00471995344997
C            5.08798309143556       -0.50957563847764        0.00267055427529
C            6.07814203278336       -1.50746729208081       -0.00367226373807
C            7.41381981097375       -1.19331916640745        0.00354105204098
C            7.82860038445690        0.13967980295548        0.01764754617150
C            6.89047114333486        1.13739038288596        0.02413579733426
C            5.51629360743308        0.84159857834161        0.01676571670428
C            4.56009284057159        1.89347388521082        0.02318313548523
C            3.23255563654317        1.62795123541685        0.01540533053387
C            2.77118560633646        0.28833190806723        0.00133221149296
N           -0.42367360250413       -1.26869498733324       -0.02355196812871
H           -0.44115203182739        2.33868313518128       -0.00087473908252
H           -3.74276494388949        3.54713194871858       -0.00490820252215
H           -5.70076504225668        2.02799662878188       -0.01614282564304
H           -3.08888110741121       -1.33909297274848       -0.02519613844408
H            1.48201380396324       -3.43556239543622       -0.03430428640894
H            3.86626411291231       -2.94672383091472       -0.02172624091056
H            5.79738394721333       -2.54866742226983       -0.01468511301171
H            8.15167099792976       -1.98235534047063       -0.00177654727894
H            8.88236382386034        0.37593602215187        0.02328563837679
H            7.19418555630812        2.17463653362822        0.03498370773622
H            4.92099224094403        2.91191839374864        0.03421564832877
H            2.49496187993895        2.41565997479758        0.01981334304145
H           -1.05786342077448       -2.04863049908364       -0.03262709780107

          :  Hamiltonian                  GFN2-xTB          :
         :: gradient norm              0.000033892448 Eh/a0 ::
         :: HOMO-LUMO gap              2.518053146137 eV    ::
         :: SCC energy               -66.727787049066 Eh    ::
         :: -> dispersion             -0.049127150292 Eh    ::
         :: repulsion energy           1.076972154675 Eh    ::

    * Orbital Energies and Occupations

         #    Occupation            Energy/Eh            Energy/eV
      -------------------------------------------------------------
         1        2.0000           -0.8374080             -22.7870
       ...           ...                  ...                  ...
        48        2.0000           -0.4434001             -12.0655
        49        2.0000           -0.4429891             -12.0543
        50        2.0000           -0.4406488             -11.9907
        51        2.0000           -0.4264440             -11.6041
        52        2.0000           -0.4213413             -11.4653
        53        2.0000           -0.4204048             -11.4398
        54        2.0000           -0.4171044             -11.3500
        55        2.0000           -0.4115456             -11.1987
        56        2.0000           -0.4093242             -11.1383
        57        2.0000           -0.4020273             -10.9397
        58        2.0000           -0.3935560             -10.7092
        59        2.0000           -0.3839326             -10.4473
        60        2.0000           -0.3759886             -10.2312 (HOMO)
        61                         -0.2834518              -7.7131 (LUMO)
        62                         -0.2581070              -7.0234
        63                         -0.2478943              -6.7455
        64                         -0.2404603              -6.5433
        65                         -0.2183632              -5.9420
        66                         -0.2062185              -5.6115
        67                         -0.1910612              -5.1990
        68                         -0.1826790              -4.9709
        69                         -0.1612638              -4.3882
        70                         -0.1041592              -2.8343
        71                         -0.1007106              -2.7405
       ...                                ...                  ...
       118                          0.7202172              19.5981
      -------------------------------------------------------------
                  HL-Gap            0.0925368 Eh            2.5181 eV

     #   Z          covCN         q      C6AA      α(0)
     1   8 O        1.657    -0.377    20.410     6.099
     2   6 C        2.847     0.156    24.611     8.131
     3   6 C        2.921    -0.055    29.366     8.886
     4   6 C        2.985    -0.034    28.840     8.809
     5   6 C        2.914     0.070    26.427     8.430
     6  35 Br       1.066    -0.176   189.910    22.220
     7   6 C        2.997    -0.044    29.076     8.845
     8   6 C        2.973    -0.045    29.102     8.849
     9   6 C        3.158     0.139    24.678     8.122
    10   7 N        1.905    -0.303    28.694     7.942
    11   6 C        3.179     0.061    26.228     8.361
    12   6 C        3.086     0.041    26.985     8.516
    13   6 C        2.905    -0.054    29.337     8.881
    14   6 C        2.926    -0.039    28.970     8.827
    15   6 C        2.979    -0.000    28.028     8.684
    16   6 C        2.980     0.009    27.817     8.652
    17   6 C        2.919    -0.035    28.879     8.812
    18   6 C        2.917    -0.030    28.761     8.794
    19   6 C        2.915    -0.030    28.755     8.793
    20   6 C        2.923    -0.035    28.860     8.810
    21   6 C        2.987     0.013    27.723     8.637
    22   6 C        2.917    -0.035    28.863     8.810
    23   6 C        2.913    -0.033    28.820     8.803
    24   6 C        2.982     0.001    28.005     8.681
    25   7 N        2.784    -0.120    23.601     7.215
    26   1 H        0.806     0.338     0.618     1.235
    27   1 H        0.926     0.066     2.132     2.283
    28   1 H        0.926     0.060     2.198     2.318
    29   1 H        0.926     0.045     2.387     2.416
    30   1 H        0.926     0.031     2.576     2.510
    31   1 H        0.926     0.040     2.446     2.446
    32   1 H        0.926     0.032     2.559     2.502
    33   1 H        0.926     0.030     2.579     2.511
    34   1 H        0.926     0.031     2.571     2.507
    35   1 H        0.926     0.033     2.550     2.497
    36   1 H        0.926     0.035     2.520     2.482
    37   1 H        0.926     0.046     2.373     2.409
    38   1 H        0.860     0.168     1.287     1.777

molecular dipole:
                 x           y           z       tot (Debye)
 q only:        0.979      -0.224      -0.001
   full:        1.245      -0.607      -0.004       3.520

 projected vibrational frequencies (cm⁻¹)
eigval :       -0.00    -0.00    -0.00     0.00     0.00     0.00
eigval :       18.87    30.80    53.21    70.62    79.47   112.72
eigval :      115.61   158.15   173.63   204.18   211.68   255.09
eigval :      269.18   279.98   319.11   330.12   337.54   372.03
eigval :      382.00   415.60   434.94   457.86   466.53   492.26
eigval :      498.67   514.77   518.92   542.54   547.09   555.61
eigval :      594.88   601.70   624.30   649.17   652.42   691.02
eigval :      696.03   703.57   736.67   749.12   750.44   761.94
eigval :      786.35   809.24   818.47   833.45   839.60   856.02
eigval :      857.53   869.20   891.74   909.83   912.40   915.92
eigval :      920.32   927.36   961.88  1041.93  1067.27  1093.03
eigval :     1100.05  1102.31  1138.38  1157.62  1167.96  1173.65
eigval :     1185.73  1216.27  1221.35  1232.43  1248.58  1260.52
eigval :     1274.69  1289.73  1312.71  1328.16  1350.79  1363.16
eigval :     1368.44  1385.84  1397.83  1398.55  1404.88  1416.33
eigval :     1439.29  1464.89  1498.25  1512.85  1541.27  1554.18
eigval :     1577.45  1580.30  1590.19  1599.46  1610.14  2900.77
eigval :     3070.29  3075.36  3077.41  3082.45  3089.35  3092.37
eigval :     3099.45  3099.81  3102.98  3115.98  3117.10  3487.19

   temp. (K)  partition function   enthalpy   heat capacity  entropy
                                   cal/mol     cal/K/mol   cal/K/mol   J/K/mol
 298.15  VIB  0.881E+07            10339.208     69.664     61.869
         ROT  0.178E+08              888.752      2.981     36.163
         INT  0.157E+15            11227.960     72.645     98.031
         TR   0.743E+28             1481.254      4.968     43.749
         TOT                       12709.2139    77.6129   141.7804   593.2093

       T/K    H(0)-H(T)+PV         H(T)/Eh          T*S/Eh         G(T)/Eh
   ------------------------------------------------------------------------
    298.15    0.202534E-01    0.297316E+00    0.673645E-01    0.229951E+00
   ------------------------------------------------------------------------

         :::::::::::::::::::::::::::::::::::::::::::::::::::::
         ::                  THERMODYNAMIC                  ::
         :::::::::::::::::::::::::::::::::::::::::::::::::::::
         :: total free energy         -65.420863575744 Eh   ::
         ::.................................................::
         :: total energy              -65.650814894449 Eh   ::
         :: zero point energy           0.277062353712 Eh   ::
         :: G(RRHO) w/o ZPVE           -0.047111035007 Eh   ::
         :: G(RRHO) contrib.            0.229951318705 Eh   ::
         :::::::::::::::::::::::::::::::::::::::::::::::::::::

           -------------------------------------------------
          | TOTAL ENERGY              -65.650814894449 Eh   |
          | TOTAL ENTHALPY            -65.353499119251 Eh   |
          | TOTAL FREE ENERGY         -65.420863575744 Eh   |
          | GRADIENT NORM               0.000033867279 Eh/α |
          | HOMO-LUMO GAP               2.518054596703 eV   |
           -------------------------------------------------

 * finished run on 2025/09/08 at 00:43:47.884
