   * xtb version 6.7.1 (edcfbbe) compiled by 'albert@albert-system' on 2024-07-22

   ID    Z sym.   atoms
    1    8 O      1
    2    6 C      2-5, 7-9, 11-24
    3   35 Br     6
    4    7 N      10, 25
    5    1 H      26-38

          program call               : xtb data2507/gas/HPIPXZ/HPIPXZ_gas_T1_crest.xyz --gfn 2 --spinpol --tblite --uhf 2 --ohess vtight --parallel 40 --molden --ceasefiles --namespace data2507/gas/HPIPXZ/HPIPXZ_gas_T1_finalOpt
 * total energy  :   -65.5668894 Eh     change       -0.5527212E-08 Eh
 * total energy  :   -65.5669011 Eh     change       -0.1171181E-04 Eh
 * total energy  :   -65.5669076 Eh     change       -0.6483485E-05 Eh
 * total energy  :   -65.5669092 Eh     change       -0.1627519E-05 Eh
 * total energy  :   -65.5669102 Eh     change       -0.9342543E-06 Eh
 * total energy  :   -65.5669105 Eh     change       -0.3554685E-06 Eh
 * total energy  :   -65.5669109 Eh     change       -0.3751160E-06 Eh
 * total energy  :   -65.5669111 Eh     change       -0.2290945E-06 Eh
 * total energy  :   -65.5669113 Eh     change       -0.1444526E-06 Eh
 * total energy  :   -65.5669113 Eh     change       -0.2574168E-07 Eh
   *** GEOMETRY OPTIMIZATION CONVERGED AFTER 10 ITERATIONS ***

 final structure:
================
38
 xtb: 6.7.1 (edcfbbe)
O           -1.28303279857705        2.82888247494230        0.00129977166907
C           -2.30329070074788        1.97091450958324        0.00104835269239
C           -3.59677567826756        2.47486262413035        0.00465497945366
C           -4.69823311520284        1.63523195760453        0.00480558257523
C           -4.48939801341486        0.25668306765392        0.00110667816122
Br          -6.00268692632628       -0.90392822957155        0.00142070645686
C           -3.23229360330513       -0.28956062649045       -0.00274662310811
C           -2.09233704057730        0.54956098221386       -0.00277243002620
C           -0.78600319925127        0.03212216731254       -0.00559795346633
N            0.33740893454870        0.80250205714268       -0.00395437779035
C            1.37528063802879       -0.01966041432034       -0.00564231719748
C            0.93300941852989       -1.37990537278162       -0.00881080859051
C            1.81889017940781       -2.42319686307576       -0.01053562810130
C            3.19870538574441       -2.10767017453190       -0.00733787870386
C            3.68920563339330       -0.80990875568381       -0.00284897933600
C            5.11078055537437       -0.50813406413506        0.00252454055755
C            6.09880272282388       -1.49240541433494        0.00864433601429
C            7.44460384162052       -1.17235465020790        0.01409435969619
C            7.85365137141516        0.15917806021931        0.01342045202551
C            6.91187094924251        1.15533884135246        0.00783267749049
C            5.53039358340093        0.85546129257380        0.00283069194617
C            4.58154085455251        1.89008154299538       -0.00078540781940
C            3.22021001583121        1.60535109480798       -0.00321662341585
C            2.77535402187175        0.29463777047871       -0.00373717623587
N           -0.43376030118294       -1.30816023855246       -0.00908313543744
H           -0.43462394223482        2.31109191780341       -0.00068308865885
H           -3.72483180222948        3.54531005003420        0.00753997314875
H           -5.69812489600640        2.03693539594007        0.00782910165459
H           -3.11552649150361       -1.36177112311319       -0.00550574371663
H            1.49585048848486       -3.45194737071988       -0.01358021609501
H            3.88115447072655       -2.94166211903228       -0.00865595679016
H            5.82624837765493       -2.53585504955331        0.00977604001361
H            8.18134613375158       -1.96178527506355        0.01895495364120
H            8.90620464549729        0.40046871202098        0.01744610154385
H            7.21035145253599        2.19365128390256        0.00754654266619
H            4.92033306512762        2.91502310873426       -0.00073414847885
H            2.49268525612738        2.40249280927132       -0.00486581083643
H           -1.06634453606452       -2.08731487524993       -0.01049958050220

 projected vibrational frequencies (cm⁻¹)
eigval :       -0.00    -0.00     0.00     0.00     0.00     0.00
eigval :       21.32    29.58    52.79    66.03    78.55   105.73
eigval :      116.07   150.88   166.07   200.10   201.70   252.26
eigval :      259.29   266.98   310.40   322.76   330.94   363.55
eigval :      373.72   392.81   410.26   419.31   436.15   458.04
eigval :      462.05   480.87   492.99   502.00   516.73   546.86
eigval :      587.61   587.66   595.04   625.72   644.26   664.58
eigval :      682.01   694.28   721.07   730.59   743.25   756.55
eigval :      766.57   780.36   782.07   792.06   804.01   812.93
eigval :      826.18   854.29   855.62   872.58   873.01   880.76
eigval :      896.76   917.41   918.41  1012.70  1036.03  1069.84
eigval :     1085.59  1089.15  1107.18  1133.88  1144.78  1162.16
eigval :     1173.94  1181.89  1210.51  1213.36  1231.65  1247.08
eigval :     1254.33  1266.62  1273.59  1285.84  1296.24  1313.62
eigval :     1354.20  1358.46  1378.07  1380.12  1384.33  1397.44
eigval :     1423.51  1439.75  1454.65  1481.37  1489.19  1513.48
eigval :     1516.96  1527.47  1545.34  1562.53  1586.03  2891.22
eigval :     3074.98  3081.22  3085.88  3091.26  3094.74  3098.11
eigval :     3099.13  3100.72  3109.52  3114.68  3118.76  3510.07

   temp. (K)  partition function   enthalpy   heat capacity  entropy
                                   cal/mol     cal/K/mol   cal/K/mol   J/K/mol
 298.15  VIB  0.145E+08            10746.492     72.035     64.216
         ROT  0.179E+08              888.752      2.981     36.167
         INT  0.259E+15            11635.245     75.016    100.383
         TR   0.743E+28             1481.254      4.968     43.749
         TOT                       13116.4985    79.9844   144.1323   603.0497

       T/K    H(0)-H(T)+PV         H(T)/Eh          T*S/Eh         G(T)/Eh
   ------------------------------------------------------------------------
    298.15    0.209025E-01    0.293156E+00    0.684819E-01    0.224674E+00
   ------------------------------------------------------------------------

         :::::::::::::::::::::::::::::::::::::::::::::::::::::
         ::                  THERMODYNAMIC                  ::
         :::::::::::::::::::::::::::::::::::::::::::::::::::::
         :: total free energy         -65.342237029713 Eh   ::
         ::.................................................::
         :: total energy              -65.566911333721 Eh   ::
         :: zero point energy           0.272253754881 Eh   ::
         :: G(RRHO) w/o ZPVE           -0.047579450873 Eh   ::
         :: G(RRHO) contrib.            0.224674304008 Eh   ::
         :::::::::::::::::::::::::::::::::::::::::::::::::::::

           -------------------------------------------------
          | TOTAL ENERGY              -65.566911333721 Eh   |
          | TOTAL ENTHALPY            -65.273755107942 Eh   |
          | TOTAL FREE ENERGY         -65.342237029713 Eh   |
          | GRADIENT NORM               0.000040664989 Eh/α |
           -------------------------------------------------

 * finished run on 2025/09/08 at 00:45:21.638
