   * xtb version 6.7.1 (edcfbbe) compiled by 'albert@albert-system' on 2024-07-22

   ID    Z sym.   atoms
    1    6 C      1-6, 8-49, 51-73
    2    7 N      7, 50
    3    1 H      74-133

          program call               : xtb data2507/toluene/MDP3FL/MDP3FL_toluene_S0_crest.xyz --gfn 2 --gbsa toluene --ohess vtight --parallel 40 --molden --ceasefiles --namespace data2507/toluene/MDP3FL/MDP3FL_toluene_S0_finalOpt
      * Solvation model:               GBSA
        Solvent                        toluene
        Solvent mass                       9.2140E+01 g/mol
          :  Hamiltonian                  GFN2-xTB          :
 * total energy  :  -188.6842528 Eh     change       -0.1688704E-08 Eh
 * total energy  :  -188.6842908 Eh     change       -0.3801007E-04 Eh
 * total energy  :  -188.6843065 Eh     change       -0.1575177E-04 Eh
 * total energy  :  -188.6843130 Eh     change       -0.6494558E-05 Eh
 * total energy  :  -188.6843198 Eh     change       -0.6772149E-05 Eh
 * total energy  :  -188.6843228 Eh     change       -0.3010447E-05 Eh
 * total energy  :  -188.6843264 Eh     change       -0.3568287E-05 Eh
 * total energy  :  -188.6843297 Eh     change       -0.3341208E-05 Eh
 * total energy  :  -188.6843332 Eh     change       -0.3442585E-05 Eh
 * total energy  :  -188.6843372 Eh     change       -0.4031213E-05 Eh
 * total energy  :  -188.6844326 Eh     change       -0.1666281E-05 Eh
 * total energy  :  -188.6844343 Eh     change       -0.1644073E-05 Eh
 * total energy  :  -188.6844360 Eh     change       -0.1750370E-05 Eh
 * total energy  :  -188.6844379 Eh     change       -0.1894337E-05 Eh
 * total energy  :  -188.6844398 Eh     change       -0.1887726E-05 Eh
 * total energy  :  -188.6844415 Eh     change       -0.1710951E-05 Eh
 * total energy  :  -188.6844431 Eh     change       -0.1546945E-05 Eh
 * total energy  :  -188.6844445 Eh     change       -0.1478334E-05 Eh
 * total energy  :  -188.6844445 Eh     change       -0.6746944E-08 Eh
   *** GEOMETRY OPTIMIZATION CONVERGED AFTER 68 ITERATIONS ***

 final structure:
================
133
 xtb: 6.7.1 (edcfbbe)
C           13.20612026752796       -3.34614842145276       -3.04799900011944
C           13.67791636388518       -2.78996011819542       -1.73793971505933
C           14.63811475371675       -3.46652602714775       -0.99147352391134
C           15.08744192722790       -2.94327139661220        0.20795016686360
C           14.58557361345993       -1.74730330671703        0.68602953479320
C           13.62697801189817       -1.05465189073372       -0.05096098402030
N           13.10491745078108        0.15855153530936        0.41924539262670
C           13.93991060122199        1.07531567543246        1.06554107194742
C           15.26117499944215        1.24563357143108        0.65021994680495
C           16.08387358105794        2.14895233640574        1.29492815821522
C           15.60583855181948        2.90244784674258        2.35508071579999
C           14.29350000807817        2.74049904920259        2.76956575960896
C           13.46570004811958        1.83346757857590        2.13684390971360
C           11.74892096245628        0.44733188237051        0.23071935224253
C           11.33807715566464        1.74935473479641       -0.06561880886607
C           10.00305595836988        2.04715476900580       -0.26320787755782
C            9.06501058681554        1.02990542700315       -0.17526171356779
C            9.47297975309317       -0.28077007943288        0.11982883554487
C           10.79862081018728       -0.57527911530731        0.32868963393937
C            8.28473130586547       -1.21598685816281        0.16222155315663
C            8.40722209376270       -2.30529675950604       -0.90905384426202
C            8.12093691625359       -1.84671579034963        1.54898962611412
C            7.14546185462946       -0.26840987802861       -0.14588233694802
C            5.80191250075284       -0.54407310538625       -0.24422738328856
C            4.90484341007028        0.48827031204542       -0.53569512997253
C            3.46671510653197        0.21149059360983       -0.65632470715815
C            3.02278873549782       -0.93811938422575       -1.31168824129792
C            1.67473350151030       -1.21337708677913       -1.45247467955134
C            0.75220744513500       -0.32437165287240       -0.92399521896003
C            1.18612277786695        0.83234618128181       -0.25803773066843
C            2.52829050033521        1.10150693080131       -0.12523913519632
C            0.00601539103871        1.64332110759413        0.23147550539683
C           -0.01410595759848        3.03400870221839       -0.41244740048062
C            0.01076445074852        1.76264198856331        1.75932872409556
C           -1.15707773032097        0.80318691068623       -0.24954014493159
C           -2.50458274340090        1.03931485757876       -0.10783896527552
C           -3.42433511617533        0.12733357117199       -0.63435610207277
C           -4.86820657909788        0.36870005601797       -0.50614416393834
C           -5.38730729289792        1.65167231022216       -0.68567366674756
C           -6.74394945547343        1.90219467328297       -0.58589102837351
C           -7.59867257561319        0.85048530868239       -0.29508382084351
C           -7.08786767043249       -0.44386309694400       -0.10859489973632
C           -5.73844859477927       -0.68618895320775       -0.21390837536082
C           -8.20212272026141       -1.42016175318859        0.20141862821660
C           -8.29009321981595       -2.51929046265217       -0.86252032968130
C           -8.02608008368068       -2.03765040020974        1.59319399189803
C           -9.41382855377333       -0.51520871900518        0.16239601834296
C          -10.73191753663138       -0.84429286748538        0.36804962995367
C          -11.70478586219328        0.15970505658033        0.30309626921940
N          -13.04992757389774       -0.15509200010348        0.52362010847188
C          -13.39807643969721       -1.11169527244862        1.48340623369642
C          -14.47348346482174       -1.97397750034649        1.26608332120672
C          -14.81840919008299       -2.91304601868465        2.21896181987341
C          -14.09509748848578       -3.01837381281975        3.39622203528200
C          -13.02253189682829       -2.16864939446663        3.61537800063516
C          -12.67669198602531       -1.21928384523617        2.67330210642042
C          -14.05259557985329        0.49940549968946       -0.20545207886073
C          -15.24999018518192        0.86427173310024        0.40695665895006
C          -16.22987453682525        1.50585734433894       -0.32702193284778
C          -16.02860993131723        1.80058071130518       -1.66368356515026
C          -14.83634786078425        1.44863026406358       -2.28952108895431
C          -14.62642710502063        1.75510114814556       -3.74216266665009
C          -13.86127468837179        0.79437182121676       -1.55481162137197
C          -11.32553154338191        1.47442963637824        0.02029047817584
C          -10.00141163695749        1.80177803800991       -0.20180558198840
C           -9.03894240733942        0.80656622306166       -0.12687916940628
C           -2.95654887704111       -1.01038566773154       -1.29387881592293
C           -1.60312394354002       -1.25284187917935       -1.44299320563290
C           -0.69927172888537       -0.34216189051838       -0.91916336949780
C            5.39134595137564        1.78319390833477       -0.72058413862892
C            6.74176131670744        2.06738679039509       -0.62690816969415
C            7.62338253336658        1.03769480872334       -0.33764415642211
C           13.18587204618808       -1.58555891329180       -1.26258975740853
H           13.97752567440714       -3.21671635635572       -3.80773348390650
H           12.30504529685317       -2.83961577229363       -3.38487275789723
H           13.00167104857455       -4.41168970983236       -2.96044178035458
H           15.03267085391273       -4.40481006848322       -1.35349580607213
H           15.82961918122461       -3.47689692956774        0.78428857979869
H           14.92883031666283       -1.34642448810321        1.62855332635274
H           15.63487049824260        0.66616169380253       -0.18158448664395
H           17.10410384928259        2.27136805522292        0.96064501376310
H           16.25083509873667        3.60993635769422        2.85439056204901
H           13.91272754153885        3.31932903956145        3.59876863161519
H           12.44588944166131        1.70301244696664        2.46896061601406
H           12.08240952819581        2.52849352063106       -0.14627353236981
H            9.70288164026144        3.05832335337930       -0.49560035056395
H           11.11998277264353       -1.57884842465582        0.56582856676822
H            7.51979847016844       -2.93385115334994       -0.91035410238450
H            9.27683969262423       -2.92875800908213       -0.71404821088041
H            8.51552327372630       -1.85470205513274       -1.89391498472468
H            8.97994639355051       -2.47114919257672        1.78337480764304
H            7.22406011418374       -2.46094429152692        1.58013323599215
H            8.03673457145286       -1.07082759371136        2.30757412302305
H            5.42900091283255       -1.54469473154895       -0.08013187488343
H            3.75035318634204       -1.61338349418732       -1.73894097452072
H            1.35022193117910       -2.10429871038571       -1.97044547154472
H            2.86642632359080        1.98251107873926        0.40084180772204
H           -0.01693450614911        2.94677137745305       -1.49747171559757
H           -0.90360711159441        3.57907081291873       -0.10511972091071
H            0.86326076828893        3.60180432682027       -0.11144267235598
H            0.02562217728918        0.77433960852835        2.21503330106327
H            0.88905995141135        2.31141535759584        2.09140116351397
H           -0.87860454909171        2.28841213880008        2.09899618385026
H           -2.86076020202333        1.91131325931301        0.42133313236022
H           -4.71488988430508        2.46088869697730       -0.93273868144149
H           -7.12747715870738        2.90098835470378       -0.73615139797467
H           -5.34040356326941       -1.67773439175394       -0.05384454166717
H           -7.38227497742213       -3.11805825933885       -0.86085982261345
H           -9.13753697081195       -3.17077994691594       -0.66218783334531
H           -8.41485588640247       -2.07937679690495       -1.85019528041646
H           -8.87315509228856       -2.67684213988745        1.83186682025024
H           -7.95743508693129       -1.25476667155606        2.34618070372659
H           -7.11723331690400       -2.63374968850415        1.62906028359645
H          -11.02936252219264       -1.86114462210314        0.57863458829221
H          -15.03429653477903       -1.90146017481975        0.34546703448699
H          -15.65337486627890       -3.57398713234952        2.03582442909393
H          -14.36541686979037       -3.75590503166072        4.13713066663388
H          -12.45537979015000       -2.23832407808397        4.53247879735821
H          -11.84733700792554       -0.55080485807251        2.85367446064049
H          -15.40417441781645        0.64587183556899        1.45352196627109
H          -17.15561354811694        1.78784154488496        0.15380709615226
H          -16.79821051882812        2.30756885454419       -2.22733354206379
H          -14.89417810214040        2.78839794319749       -3.95635617548618
H          -13.59054823270329        1.59275174640155       -4.02933144396905
H          -15.25948431414371        1.11376395371353       -4.35586678204042
H          -12.93366521735686        0.50514759446063       -2.02851467898510
H          -12.08499820054134        2.24188029030966       -0.01962459557438
H           -9.72547795459055        2.82348130606256       -0.41747856328856
H           -3.67012625730475       -1.70236528771789       -1.71798082042758
H           -1.26024784533324       -2.13498342440984       -1.96415958433349
H            4.69815652296327        2.57499494286116       -0.96670349350898
H            7.09985336726440        3.07504723462534       -0.78079543441384
H           12.44728115537350       -1.04217346195919       -1.83516559172509

          :  Hamiltonian                  GFN2-xTB          :
         :: gradient norm              0.000062643983 Eh/a0 ::
         :: HOMO-LUMO gap              2.201603909661 eV    ::
         :: SCC energy              -192.182877237005 Eh    ::
         :: -> dispersion             -0.180361684727 Eh    ::
         :: -> Gsolv                  -0.075581763111 Eh    ::
         :: repulsion energy           3.498432699743 Eh    ::

    * Orbital Energies and Occupations

         #    Occupation            Energy/Eh            Energy/eV
      -------------------------------------------------------------
         1        2.0000           -0.6614460             -17.9989
       ...           ...                  ...                  ...
       165        2.0000           -0.3998037             -10.8792
       166        2.0000           -0.3993967             -10.8681
       167        2.0000           -0.3989457             -10.8559
       168        2.0000           -0.3944384             -10.7332
       169        2.0000           -0.3941436             -10.7252
       170        2.0000           -0.3936654             -10.7122
       171        2.0000           -0.3934694             -10.7068
       172        2.0000           -0.3933813             -10.7045
       173        2.0000           -0.3865996             -10.5199
       174        2.0000           -0.3776361             -10.2760
       175        2.0000           -0.3641812              -9.9099
       176        2.0000           -0.3443260              -9.3696
       177        2.0000           -0.3434441              -9.3456 (HOMO)
       178                         -0.2625367              -7.1440 (LUMO)
       179                         -0.2499227              -6.8007
       180                         -0.2350331              -6.3956
       181                         -0.2275455              -6.1918
       182                         -0.2274428              -6.1890
       183                         -0.2240562              -6.0969
       184                         -0.2239187              -6.0931
       185                         -0.2192739              -5.9667
       186                         -0.2192284              -5.9655
       187                         -0.2189326              -5.9575
       188                         -0.2170793              -5.9070
       ...                                ...                  ...
       352                          0.7410661              20.1654
      -------------------------------------------------------------
                  HL-Gap            0.0809074 Eh            2.2016 eV

     #   Z          covCN         q      C6AA      α(0)
     1   6 C        3.758    -0.110    22.652     6.786
     2   6 C        2.965     0.017    27.617     8.620
     3   6 C        2.924    -0.050    29.246     8.869
     4   6 C        2.918    -0.033    28.824     8.804
     5   6 C        2.922    -0.054    29.331     8.881
     6   6 C        2.923     0.064    26.563     8.452
     7   7 N        2.752    -0.080    22.800     7.092
     8   6 C        2.923     0.066    26.513     8.444
     9   6 C        2.922    -0.049    29.212     8.863
    10   6 C        2.919    -0.031    28.771     8.796
    11   6 C        2.919    -0.040    29.006     8.832
    12   6 C        2.919    -0.031    28.771     8.796
    13   6 C        2.922    -0.049    29.209     8.863
    14   6 C        2.925     0.063    26.599     8.458
    15   6 C        2.923    -0.053    29.314     8.879
    16   6 C        2.913    -0.037    28.910     8.817
    17   6 C        3.035    -0.011    28.249     8.718
    18   6 C        3.054    -0.001    28.010     8.680
    19   6 C        2.918    -0.053    29.304     8.877
    20   6 C        3.935     0.019    20.197     6.387
    21   6 C        3.758    -0.098    22.413     6.750
    22   6 C        3.758    -0.098    22.426     6.752
    23   6 C        3.052    -0.004    28.067     8.689
    24   6 C        2.920    -0.040    28.998     8.831
    25   6 C        2.978     0.004    27.931     8.669
    26   6 C        2.978     0.005    27.905     8.665
    27   6 C        2.926    -0.040    28.989     8.830
    28   6 C        2.912    -0.038    28.933     8.820
    29   6 C        3.036    -0.005    28.103     8.695
    30   6 C        3.052    -0.003    28.049     8.686
    31   6 C        2.920    -0.040    28.997     8.831
    32   6 C        3.935     0.018    20.201     6.387
    33   6 C        3.758    -0.097    22.405     6.748
    34   6 C        3.758    -0.098    22.414     6.750
    35   6 C        3.052    -0.003    28.049     8.686
    36   6 C        2.920    -0.040    28.997     8.831
    37   6 C        2.978     0.005    27.905     8.665
    38   6 C        2.978     0.004    27.932     8.669
    39   6 C        2.926    -0.040    28.987     8.829
    40   6 C        2.912    -0.039    28.958     8.824
    41   6 C        3.036    -0.004    28.084     8.692
    42   6 C        3.052    -0.004    28.069     8.689
    43   6 C        2.920    -0.040    28.998     8.831
    44   6 C        3.935     0.019    20.198     6.387
    45   6 C        3.758    -0.098    22.421     6.751
    46   6 C        3.758    -0.098    22.415     6.750
    47   6 C        3.054    -0.002    28.014     8.680
    48   6 C        2.918    -0.053    29.315     8.879
    49   6 C        2.924     0.063    26.599     8.458
    50   7 N        2.752    -0.080    22.797     7.091
    51   6 C        2.923     0.067    26.508     8.443
    52   6 C        2.922    -0.049    29.207     8.863
    53   6 C        2.919    -0.031    28.770     8.796
    54   6 C        2.919    -0.040    29.005     8.832
    55   6 C        2.919    -0.031    28.771     8.796
    56   6 C        2.922    -0.048    29.204     8.862
    57   6 C        2.922     0.064    26.569     8.453
    58   6 C        2.922    -0.054    29.333     8.882
    59   6 C        2.918    -0.033    28.825     8.804
    60   6 C        2.924    -0.050    29.245     8.868
    61   6 C        2.965     0.017    27.619     8.620
    62   6 C        3.758    -0.110    22.652     6.786
    63   6 C        2.928    -0.058    29.442     8.898
    64   6 C        2.923    -0.053    29.311     8.878
    65   6 C        2.913    -0.037    28.909     8.817
    66   6 C        3.035    -0.011    28.251     8.718
    67   6 C        2.926    -0.040    28.989     8.830
    68   6 C        2.912    -0.038    28.933     8.820
    69   6 C        3.036    -0.005    28.102     8.695
    70   6 C        2.926    -0.040    28.987     8.829
    71   6 C        2.912    -0.039    28.957     8.824
    72   6 C        3.036    -0.004    28.085     8.692
    73   6 C        2.928    -0.058    29.441     8.898
    74   1 H        0.924     0.050     2.325     2.384
    75   1 H        0.925     0.044     2.396     2.421
    76   1 H        0.925     0.048     2.344     2.394
    77   1 H        0.926     0.031     2.570     2.507
    78   1 H        0.926     0.030     2.587     2.515
    79   1 H        0.926     0.027     2.626     2.534
    80   1 H        0.926     0.030     2.581     2.513
    81   1 H        0.926     0.032     2.563     2.503
    82   1 H        0.926     0.030     2.583     2.513
    83   1 H        0.926     0.032     2.563     2.503
    84   1 H        0.926     0.030     2.580     2.512
    85   1 H        0.926     0.028     2.610     2.526
    86   1 H        0.926     0.030     2.583     2.513
    87   1 H        0.926     0.031     2.568     2.506
    88   1 H        0.925     0.043     2.412     2.429
    89   1 H        0.925     0.043     2.404     2.425
    90   1 H        0.925     0.034     2.535     2.490
    91   1 H        0.925     0.043     2.414     2.430
    92   1 H        0.925     0.043     2.406     2.426
    93   1 H        0.925     0.034     2.534     2.489
    94   1 H        0.926     0.030     2.585     2.514
    95   1 H        0.926     0.029     2.595     2.519
    96   1 H        0.926     0.028     2.622     2.532
    97   1 H        0.926     0.030     2.586     2.515
    98   1 H        0.925     0.033     2.539     2.492
    99   1 H        0.925     0.042     2.420     2.433
   100   1 H        0.925     0.042     2.420     2.433
   101   1 H        0.925     0.034     2.535     2.490
   102   1 H        0.925     0.043     2.414     2.430
   103   1 H        0.925     0.043     2.414     2.430
   104   1 H        0.926     0.030     2.585     2.514
   105   1 H        0.926     0.029     2.604     2.524
   106   1 H        0.926     0.027     2.628     2.535
   107   1 H        0.926     0.030     2.587     2.515
   108   1 H        0.925     0.043     2.411     2.428
   109   1 H        0.925     0.042     2.418     2.432
   110   1 H        0.925     0.034     2.531     2.488
   111   1 H        0.925     0.043     2.415     2.430
   112   1 H        0.925     0.034     2.535     2.490
   113   1 H        0.925     0.043     2.408     2.426
   114   1 H        0.926     0.030     2.583     2.513
   115   1 H        0.926     0.030     2.583     2.513
   116   1 H        0.926     0.032     2.564     2.504
   117   1 H        0.926     0.030     2.583     2.513
   118   1 H        0.926     0.032     2.557     2.501
   119   1 H        0.926     0.031     2.571     2.507
   120   1 H        0.926     0.027     2.624     2.533
   121   1 H        0.926     0.030     2.585     2.514
   122   1 H        0.926     0.031     2.567     2.506
   123   1 H        0.925     0.048     2.343     2.394
   124   1 H        0.925     0.043     2.406     2.425
   125   1 H        0.924     0.050     2.320     2.382
   126   1 H        0.926     0.031     2.577     2.510
   127   1 H        0.926     0.029     2.596     2.520
   128   1 H        0.926     0.031     2.579     2.511
   129   1 H        0.926     0.029     2.596     2.520
   130   1 H        0.926     0.027     2.622     2.532
   131   1 H        0.926     0.029     2.605     2.524
   132   1 H        0.926     0.027     2.631     2.537
   133   1 H        0.926     0.031     2.572     2.508

molecular dipole:
                 x           y           z       tot (Debye)
 q only:       -0.080      -0.537      -0.203
   full:       -0.076      -0.471      -0.218       1.333

 projected vibrational frequencies (cm⁻¹)
eigval :       -0.00    -0.00     0.00     0.00     0.00     0.00
eigval :        3.78     6.82    10.87    11.58    18.44    19.85
eigval :       24.95    29.10    30.60    31.88    34.87    37.28
eigval :       41.63    48.68    52.94    56.64    57.69    59.47
eigval :       71.49    75.18    76.89    81.72    88.40    91.96
eigval :       96.75   106.63   108.59   117.95   122.48   123.68
eigval :      129.72   130.40   142.62   154.04   156.61   166.22
eigval :      175.46   185.13   195.65   198.97   201.12   204.95
eigval :      205.61   206.98   208.84   218.00   219.44   225.79
eigval :      228.20   232.34   236.09   249.03   249.87   251.91
eigval :      264.72   269.28   275.70   276.34   289.08   303.37
eigval :      304.63   307.20   314.87   319.55   322.99   329.24
eigval :      330.11   339.83   345.94   357.66   369.05   370.55
eigval :      380.07   381.25   393.46   401.54   408.03   412.37
eigval :      413.80   422.75   427.69   442.22   444.48   447.82
eigval :      452.31   465.22   467.13   467.68   471.15   483.62
eigval :      501.50   502.79   503.04   522.36   529.25   532.58
eigval :      534.13   540.56   544.19   560.55   560.80   568.56
eigval :      570.17   572.76   576.70   580.98   581.19   587.75
eigval :      588.96   592.27   596.81   600.00   625.41   625.75
eigval :      628.09   644.19   649.30   650.11   657.88   659.18
eigval :      662.84   667.57   677.42   690.08   693.84   694.17
eigval :      697.14   720.68   721.22   727.05   730.96   735.13
eigval :      736.63   749.57   751.12   762.77   777.36   786.29
eigval :      787.98   797.08   809.70   814.58   819.41   825.87
eigval :      828.35   835.98   839.46   841.90   847.68   870.18
eigval :      872.07   882.46   883.12   885.68   885.91   885.94
eigval :      886.50   886.60   887.32   888.27   888.66   889.32
eigval :      890.45   894.29   907.91   911.88   912.92   914.19
eigval :      915.11   917.03   917.56   923.23   923.89   925.56
eigval :      925.88   927.89   928.34   943.21   947.41   960.17
eigval :      964.29   965.41   967.23   967.67   969.55   980.40
eigval :      984.32   986.94   987.90   990.81  1001.94  1001.97
eigval :     1007.25  1007.47  1008.99  1012.31  1013.19  1030.93
eigval :     1031.41  1035.07  1036.84  1067.23  1068.32  1069.91
eigval :     1079.37  1082.62  1082.65  1085.85  1111.06  1111.85
eigval :     1112.69  1121.55  1122.08  1131.86  1133.67  1151.17
eigval :     1154.36  1159.10  1160.59  1162.64  1165.88  1171.40
eigval :     1172.27  1172.66  1173.59  1173.76  1178.67  1179.19
eigval :     1187.86  1188.91  1196.93  1196.99  1211.30  1213.74
eigval :     1214.06  1215.07  1226.46  1226.59  1232.24  1236.06
eigval :     1239.81  1241.54  1254.65  1255.75  1257.44  1259.13
eigval :     1272.00  1274.15  1275.36  1278.62  1279.69  1283.16
eigval :     1288.43  1301.65  1310.79  1314.36  1314.94  1316.72
eigval :     1317.84  1322.99  1324.48  1325.61  1326.56  1326.65
eigval :     1329.55  1332.43  1357.66  1370.16  1379.76  1389.05
eigval :     1392.50  1393.07  1400.92  1401.68  1405.02  1408.01
eigval :     1408.81  1418.52  1418.79  1426.76  1429.33  1433.93
eigval :     1434.90  1437.93  1438.43  1440.48  1443.53  1447.68
eigval :     1449.63  1458.47  1464.75  1471.75  1472.32  1475.11
eigval :     1475.29  1477.54  1478.13  1480.80  1481.84  1483.65
eigval :     1484.27  1484.33  1484.75  1484.89  1487.44  1488.10
eigval :     1489.50  1491.57  1494.86  1495.04  1497.30  1499.78
eigval :     1500.46  1566.65  1567.40  1570.58  1575.60  1576.01
eigval :     1579.57  1579.86  1581.76  1584.51  1585.45  1590.83
eigval :     1591.78  1592.31  1593.34  1597.29  1598.83  1601.69
eigval :     1605.96  1610.36  1612.41  2997.00  2998.23  3022.35
eigval :     3023.14  3023.81  3024.02  3024.85  3026.65  3027.50
eigval :     3027.51  3027.63  3028.22  3028.30  3029.45  3030.35
eigval :     3030.42  3034.32  3035.00  3035.16  3037.27  3038.18
eigval :     3038.33  3041.55  3042.30  3067.12  3067.38  3067.89
eigval :     3068.15  3068.69  3069.88  3070.07  3070.65  3070.74
eigval :     3071.50  3073.45  3073.67  3074.03  3074.27  3074.61
eigval :     3074.82  3074.89  3075.28  3079.19  3079.25  3079.79
eigval :     3079.92  3080.00  3080.70  3081.16  3081.86  3082.21
eigval :     3082.28  3083.37  3084.95  3085.98  3086.65  3088.04
eigval :     3088.94  3092.59  3093.40

   temp. (K)  partition function   enthalpy   heat capacity  entropy
                                   cal/mol     cal/K/mol   cal/K/mol   J/K/mol
 298.15  VIB  0.815E+32            39047.529    238.231    246.832
         ROT  0.541E+09              888.752      2.981     42.942
         INT  0.441E+41            39936.282    241.212    289.774
         TR   0.279E+29             1481.254      4.968     46.380
         TOT                       41417.5358   246.1799   336.1545  1406.4702

       T/K    H(0)-H(T)+PV         H(T)/Eh          T*S/Eh         G(T)/Eh
   ------------------------------------------------------------------------
    298.15    0.660030E-01    0.113792E+01    0.159718E+00    0.978207E+00
   ------------------------------------------------------------------------

         :::::::::::::::::::::::::::::::::::::::::::::::::::::
         ::                  THERMODYNAMIC                  ::
         :::::::::::::::::::::::::::::::::::::::::::::::::::::
         :: total free energy        -187.706237976233 Eh   ::
         ::.................................................::
         :: total energy             -188.684444538665 Eh   ::
         :: zero point energy           1.071921345547 Eh   ::
         :: G(RRHO) w/o ZPVE           -0.093714783115 Eh   ::
         :: G(RRHO) contrib.            0.978206562432 Eh   ::
         :::::::::::::::::::::::::::::::::::::::::::::::::::::

           -------------------------------------------------
          | TOTAL ENERGY             -188.684444538665 Eh   |
          | TOTAL ENTHALPY           -187.546520148616 Eh   |
          | TOTAL FREE ENERGY        -187.706237976233 Eh   |
          | GRADIENT NORM               0.000062640169 Eh/α |
          | HOMO-LUMO GAP               2.201603489396 eV   |
           -------------------------------------------------

 * finished run on 2025/09/05 at 15:10:02.350
