   * xtb version 6.7.1 (edcfbbe) compiled by 'albert@albert-system' on 2024-07-22

   ID    Z sym.   atoms
    1    6 C      1-6, 8-49, 51-73
    2    7 N      7, 50
    3    1 H      74-133

          program call               : xtb data2507/toluene/MDP3FL/MDP3FL_toluene_S0_finalOpt.xtbopt.xyz --gfn 2 --uhf 2 --gbsa toluene --ohess vtight --parallel 40 --molden --ceasefiles --namespace data2507/toluene/MDP3FL/MDP3FL_toluene_T1_preOpt
      * Solvation model:               GBSA
        Solvent                        toluene
        Solvent mass                       9.2140E+01 g/mol
          :  Hamiltonian                  GFN2-xTB          :
 * total energy  :  -188.5973538 Eh     change        0.1200976E-07 Eh
 * total energy  :  -188.6013009 Eh     change       -0.3947085E-02 Eh
 * total energy  :  -188.6028969 Eh     change       -0.1596092E-02 Eh
 * total energy  :  -188.6031988 Eh     change       -0.3018821E-03 Eh
 * total energy  :  -188.6035683 Eh     change       -0.3694676E-03 Eh
 * total energy  :  -188.6037658 Eh     change       -0.1974704E-03 Eh
 * total energy  :  -188.6039338 Eh     change       -0.1680471E-03 Eh
 * total energy  :  -188.6040200 Eh     change       -0.8616395E-04 Eh
 * total energy  :  -188.6040769 Eh     change       -0.5693118E-04 Eh
 * total energy  :  -188.6041439 Eh     change       -0.6702670E-04 Eh
 * total energy  :  -188.6047853 Eh     change       -0.5242214E-06 Eh
 * total energy  :  -188.6047858 Eh     change       -0.4911043E-06 Eh
 * total energy  :  -188.6047864 Eh     change       -0.5219622E-06 Eh
 * total energy  :  -188.6047869 Eh     change       -0.5827515E-06 Eh
 * total energy  :  -188.6047876 Eh     change       -0.6713392E-06 Eh
 * total energy  :  -188.6047884 Eh     change       -0.7608730E-06 Eh
 * total energy  :  -188.6047891 Eh     change       -0.7299690E-06 Eh
 * total energy  :  -188.6047896 Eh     change       -0.4834342E-06 Eh
 * total energy  :  -188.6047896 Eh     change       -0.5266799E-08 Eh
   *** GEOMETRY OPTIMIZATION CONVERGED AFTER 68 ITERATIONS ***

 final structure:
================
133
 xtb: 6.7.1 (edcfbbe)
C           13.21652623801127       -3.29291018011268       -3.06816840642330
C           13.70640220091929       -2.73095093185210       -1.76795621372878
C           14.69550423308745       -3.39189609151441       -1.04421943075786
C           15.15859517915210       -2.86760832603011        0.14990165019445
C           14.64270310049428       -1.68533328201099        0.64603313090204
C           13.65508734331044       -1.00828293373011       -0.06846133471874
N           13.11753809045600        0.18922407602782        0.42008573957923
C           13.94489667156484        1.10742626968301        1.07414886005528
C           15.25534447025718        1.31452451113628        0.63975098531990
C           16.06901891572820        2.22004305244952        1.29226545414125
C           15.59301682867290        2.93551041027406        2.37997246497898
C           14.29164109833909        2.73569279000143        2.81371197501624
C           13.47138420364646        1.82883543152303        2.17159232305966
C           11.76035224810369        0.46082185036047        0.25091749320492
C           11.32474337373077        1.77083324905815        0.00513971146408
C            9.99013945367610        2.05469419321949       -0.17849253419767
C            9.05755436692149        1.01695812261474       -0.12085371069287
C            9.49576570126436       -0.30449940649004        0.12702816486933
C           10.82216699719483       -0.58374859316485        0.31410584594041
C            8.32152483172886       -1.25789333904302        0.14649489090144
C            8.45309815759605       -2.31029731791435       -0.96018780779992
C            8.17845933069659       -1.93552011771950        1.51344875149548
C            7.16527040119992       -0.31757197104315       -0.12320368428755
C            5.83554036425244       -0.60890350981596       -0.21702100618378
C            4.89127715516123        0.42080884322575       -0.45319971604114
C            3.48503216597350        0.13543458169270       -0.54517100972027
C            3.01949125672409       -1.14536981108587       -0.93502649711385
C            1.68772040176072       -1.44356730093807       -1.03255164225068
C            0.73599273074630       -0.45709816593984       -0.72525176704744
C            1.18406951004726        0.83353971720572       -0.32901050550591
C            2.51149076582463        1.12484382788851       -0.24786875490798
C           -0.00168662165602        1.72945934844270       -0.03702681638116
C           -0.01458930320726        2.95126101297920       -0.96210649357507
C           -0.01154502791215        2.17173796925393        1.43076354126224
C           -1.16243213320954        0.80321871532048       -0.33458848092691
C           -2.49784781056669        1.05987151251345       -0.26056470261531
C           -3.44176530245996        0.04313857851657       -0.55608276802852
C           -4.85689894851059        0.29200609261681       -0.46898772611070
C           -5.38362514978153        1.59218624232794       -0.64804017384077
C           -6.72829768893630        1.85467916625872       -0.57115692190746
C           -7.61310424476574        0.81006360609838       -0.29103531762984
C           -7.10688257901315       -0.49860409691179       -0.10731421533456
C           -5.76939263406168       -0.75616432642187       -0.19948705965270
C           -8.23535764032759       -1.46145700578643        0.19822168866077
C           -8.34066537876044       -2.55309940532573       -0.87211688818607
C           -8.06769189302526       -2.08997575482676        1.58623071486503
C           -9.43464790940848       -0.54012847620200        0.16457134622512
C          -10.75164510603656       -0.84823958735328        0.37525659902352
C          -11.71581394914878        0.17141209200124        0.30544321858516
N          -13.06056118906704       -0.12297759768165        0.52799473105008
C          -13.42136862920333       -1.08984057026197        1.47199756587698
C          -14.50843502932511       -1.93438928900311        1.23956874924779
C          -14.86331399269364       -2.88543791534721        2.17637821354951
C          -14.14069667740457       -3.01767638335213        3.35189732630311
C          -13.05839018294110       -2.18378940250397        3.58652579395483
C          -12.70009326699680       -1.22417128647093        2.66002785099089
C          -14.05657842451981        0.55362307029341       -0.18809572629580
C          -15.24601152810134        0.92779907028473        0.43576469461581
C          -16.21900195059697        1.59228920568721       -0.28645314566685
C          -16.01978065831988        1.89671343796677       -1.62169172038256
C          -14.83609863122149        1.53388499504931       -2.25882843509675
C          -14.63086283487590        1.85003411129900       -3.70941415785480
C          -13.86591518076037        0.86035265987264       -1.53563387385911
C          -11.31744608192337        1.48421418068199        0.01636967431998
C           -9.99371252368302        1.79508027005538       -0.20120490907503
C           -9.03470841963834        0.78373765612773       -0.12724164425867
C           -2.94320392859316       -1.22646804066092       -0.93727386068487
C           -1.60330137851962       -1.48893997237581       -1.03232570739392
C           -0.67960499540814       -0.47588655422071       -0.72681444706109
C            5.38300983774829        1.74105803806064       -0.59172443238226
C            6.71938278219060        2.03833989036277       -0.51049429168471
C            7.63547474840207        1.01013827115610       -0.26909947813424
C           13.19991597421657       -1.53989639089367       -1.27572154588317
H           13.98543220353925       -3.18978510778536       -3.83405084786207
H           12.32294752342883       -2.77390651452931       -3.40561020904343
H           12.99134174503794       -4.35294769542538       -2.96476802648633
H           15.10125010847544       -4.31958124572402       -1.42031776045807
H           15.92217435348416       -3.39014899524213        0.70759577650382
H           14.99261588497888       -1.28590382103292        1.58640814734569
H           15.62447859713593        0.76592712151871       -0.21443446246829
H           17.07999528364777        2.37377717584514        0.94415721670285
H           16.23164892481974        3.64361758303987        2.88615263492988
H           13.91455134325518        3.28413605839070        3.66458988092285
H           12.46127157701908        1.66515664489441        2.51773519216230
H           12.05820678805771        2.56198095205221       -0.05606297718954
H            9.67177934982902        3.06694717815207       -0.37850141135524
H           11.16085013834238       -1.58882398758348        0.51810679572341
H            7.57251644711214       -2.94815104771269       -0.97915395097618
H            9.33020136803900       -2.93049672356389       -0.78948357577767
H            8.55046607280931       -1.82580534990243       -1.93003013733475
H            9.04914958766527       -2.55268038950966        1.72305088600554
H            7.29192982724512       -2.56516355327034        1.53045436437361
H            8.08484670035369       -1.18544127744168        2.29653793006215
H            5.49188862577150       -1.62188424401690       -0.07117939226340
H            3.74181720266898       -1.90165429465530       -1.20540232814475
H            1.36673408820179       -2.42528689688253       -1.35158315845730
H            2.83164349903105        2.10113495940332        0.08459920125690
H           -0.00733478597796        2.63394113518120       -2.00343024606514
H           -0.90648821430758        3.54875809435835       -0.78700872352892
H            0.86074465407080        3.57127825957517       -0.78163462779959
H           -0.00179883333325        1.30174506731566        2.08491963332579
H            0.86416833308555        2.77921002039332        1.64846637702640
H           -0.90420729426405        2.75580867843425        1.64362266623905
H           -2.84699885765792        2.02828686579542        0.06617247510456
H           -4.70854110073388        2.39894193028183       -0.89291071029027
H           -7.09949162101700        2.85735408335776       -0.72963299164993
H           -5.39571204191810       -1.75415724168865       -0.02591416419734
H           -7.43798993143899       -3.15956940773358       -0.87998915362409
H           -9.19272808286377       -3.19856483520125       -0.67131488914631
H           -8.46588970498976       -2.10556639709430       -1.85630407344075
H           -8.92150237291611       -2.72151420389372        1.82154918111271
H           -7.98885119988461       -1.31224795722480        2.34359429460144
H           -7.16532605089900       -2.69604591683152        1.61845922374211
H          -11.06403700011817       -1.86075433998543        0.58467825959431
H          -15.06579660299841       -1.84142459522579        0.31895719855261
H          -15.70504349455351       -3.53422865565500        1.98273888598775
H          -14.41914393871070       -3.76453646190106        4.08008004031402
H          -12.49352233238958       -2.27488524407724        4.50282400868311
H          -11.86520360040596       -0.56599953655058        2.85129517863745
H          -15.39624960455869        0.70258228904460        1.48120525350823
H          -17.13773764758829        1.88370909439314        0.20145336060117
H          -16.78490442223727        2.41992323472164       -2.17618950293530
H          -14.88354254984986        2.88926528162798       -3.91244683348449
H          -13.59980277998130        1.67381897399143       -4.00524117987009
H          -15.27831848424647        1.22459032581535       -4.32432813555151
H          -12.94585310041825        0.55979400653780       -2.01646433916444
H          -12.06748819543993        2.26108948864222       -0.02002697300147
H           -9.70181490554709        2.81289553888923       -0.41293019188349
H           -3.64577792877822       -2.00270773682545       -1.20369306086187
H           -1.25525322657243       -2.46283008894202       -1.34684947426331
H            4.68637799571348        2.53691100755622       -0.80993554766215
H            7.06181748857826        3.05562383665877       -0.63784345049225
H           12.44270199389415       -1.00550945260078       -1.83168888291466

          :  Hamiltonian                  GFN2-xTB          :
         :: gradient norm              0.000059102838 Eh/a0 ::
         :: HOMO-LUMO gap              0.404024291660 eV    ::
         :: SCC energy              -192.086437129548 Eh    ::
         :: -> dispersion             -0.180586678174 Eh    ::
         :: -> Gsolv                  -0.077255101772 Eh    ::
         :: repulsion energy           3.481647535554 Eh    ::

    * Orbital Energies and Occupations

         #    Occupation            Energy/Eh            Energy/eV
      -------------------------------------------------------------
         1        2.0000           -0.6688208             -18.1995
       ...           ...                  ...                  ...
       166        2.0000           -0.3976904             -10.8217
       167        2.0000           -0.3969668             -10.8020
       168        2.0000           -0.3948192             -10.7436
       169        2.0000           -0.3928768             -10.6907
       170        2.0000           -0.3916507             -10.6574
       171        2.0000           -0.3914375             -10.6516
       172        2.0000           -0.3875167             -10.5449
       173        2.0000           -0.3848290             -10.4717
       174        2.0000           -0.3729298             -10.1479
       175        2.0000           -0.3566546              -9.7051
       176        1.9620           -0.3474009              -9.4533
       177        1.0380           -0.3412612              -9.2862
       178        0.9996           -0.2678005              -7.2872 (HOMO)
       179        0.0004           -0.2529524              -6.8832 (LUMO)
       180                         -0.2347054              -6.3867
       181                         -0.2329023              -6.3376
       182                         -0.2326418              -6.3305
       183                         -0.2281717              -6.2089
       184                         -0.2280216              -6.2048
       185                         -0.2220942              -6.0435
       186                         -0.2219558              -6.0397
       187                         -0.2185979              -5.9484
       188                         -0.2183391              -5.9413
       189                         -0.2154205              -5.8619
       ...                                ...                  ...
       352                          0.7555152              20.5586
      -------------------------------------------------------------
                  HL-Gap            0.0148481 Eh            0.4040 eV

     #   Z          covCN         q      C6AA      α(0)
     1   6 C        3.758    -0.111    22.678     6.789
     2   6 C        2.965     0.020    27.551     8.610
     3   6 C        2.924    -0.047    29.158     8.855
     4   6 C        2.917    -0.031    28.781     8.797
     5   6 C        2.921    -0.051    29.263     8.871
     6   6 C        2.924     0.063    26.591     8.457
     7   7 N        2.753    -0.057    22.338     7.020
     8   6 C        2.924     0.065    26.544     8.449
     9   6 C        2.922    -0.045    29.130     8.851
    10   6 C        2.919    -0.029    28.724     8.789
    11   6 C        2.919    -0.036    28.905     8.816
    12   6 C        2.919    -0.029    28.723     8.789
    13   6 C        2.922    -0.045    29.114     8.848
    14   6 C        2.925     0.057    26.732     8.479
    15   6 C        2.920    -0.049    29.223     8.865
    16   6 C        2.911    -0.039    28.968     8.825
    17   6 C        3.033    -0.006    28.147     8.702
    18   6 C        3.054    -0.002    28.013     8.680
    19   6 C        2.915    -0.051    29.271     8.872
    20   6 C        3.933     0.018    20.211     6.389
    21   6 C        3.758    -0.098    22.414     6.750
    22   6 C        3.758    -0.098    22.424     6.751
    23   6 C        3.047    -0.005    28.110     8.696
    24   6 C        2.916    -0.045    29.120     8.849
    25   6 C        2.972     0.001    28.012     8.682
    26   6 C        2.972    -0.004    28.127     8.699
    27   6 C        2.920    -0.041    29.023     8.834
    28   6 C        2.907    -0.042    29.051     8.838
    29   6 C        3.034    -0.010    28.244     8.717
    30   6 C        3.047    -0.007    28.150     8.702
    31   6 C        2.915    -0.045    29.129     8.850
    32   6 C        3.932     0.016    20.242     6.394
    33   6 C        3.758    -0.096    22.380     6.745
    34   6 C        3.758    -0.096    22.386     6.745
    35   6 C        3.047    -0.007    28.148     8.702
    36   6 C        2.915    -0.045    29.125     8.850
    37   6 C        2.973    -0.004    28.125     8.699
    38   6 C        2.972     0.001    28.006     8.681
    39   6 C        2.922    -0.042    29.042     8.837
    40   6 C        2.908    -0.040    28.984     8.828
    41   6 C        3.036    -0.011    28.248     8.718
    42   6 C        3.048    -0.005    28.108     8.695
    43   6 C        2.917    -0.045    29.113     8.848
    44   6 C        3.933     0.018    20.211     6.389
    45   6 C        3.758    -0.098    22.418     6.750
    46   6 C        3.758    -0.098    22.417     6.750
    47   6 C        3.053    -0.002    28.014     8.680
    48   6 C        2.915    -0.052    29.282     8.874
    49   6 C        2.925     0.057    26.721     8.477
    50   7 N        2.752    -0.058    22.362     7.023
    51   6 C        2.925     0.065    26.536     8.448
    52   6 C        2.922    -0.046    29.133     8.851
    53   6 C        2.919    -0.029    28.726     8.789
    54   6 C        2.919    -0.037    28.912     8.817
    55   6 C        2.919    -0.029    28.726     8.789
    56   6 C        2.922    -0.045    29.117     8.849
    57   6 C        2.924     0.063    26.595     8.457
    58   6 C        2.921    -0.051    29.262     8.871
    59   6 C        2.917    -0.031    28.781     8.797
    60   6 C        2.924    -0.047    29.156     8.855
    61   6 C        2.965     0.020    27.553     8.610
    62   6 C        3.758    -0.111    22.679     6.789
    63   6 C        2.927    -0.055    29.368     8.887
    64   6 C        2.920    -0.049    29.222     8.865
    65   6 C        2.911    -0.039    28.962     8.825
    66   6 C        3.033    -0.007    28.150     8.703
    67   6 C        2.920    -0.041    29.019     8.834
    68   6 C        2.907    -0.042    29.052     8.838
    69   6 C        3.034    -0.010    28.239     8.716
    70   6 C        2.922    -0.042    29.044     8.838
    71   6 C        2.908    -0.040    28.986     8.828
    72   6 C        3.036    -0.011    28.257     8.719
    73   6 C        2.927    -0.055    29.368     8.887
    74   1 H        0.925     0.052     2.296     2.369
    75   1 H        0.925     0.046     2.376     2.411
    76   1 H        0.925     0.050     2.314     2.379
    77   1 H        0.926     0.036     2.505     2.475
    78   1 H        0.926     0.035     2.521     2.483
    79   1 H        0.926     0.032     2.554     2.499
    80   1 H        0.926     0.036     2.505     2.475
    81   1 H        0.926     0.037     2.491     2.468
    82   1 H        0.926     0.035     2.512     2.479
    83   1 H        0.926     0.036     2.497     2.471
    84   1 H        0.926     0.036     2.507     2.476
    85   1 H        0.926     0.031     2.574     2.509
    86   1 H        0.926     0.030     2.583     2.513
    87   1 H        0.926     0.033     2.540     2.492
    88   1 H        0.925     0.041     2.434     2.440
    89   1 H        0.925     0.043     2.406     2.426
    90   1 H        0.925     0.033     2.542     2.494
    91   1 H        0.925     0.042     2.419     2.432
    92   1 H        0.925     0.042     2.427     2.436
    93   1 H        0.925     0.033     2.545     2.495
    94   1 H        0.926     0.025     2.662     2.552
    95   1 H        0.926     0.023     2.684     2.562
    96   1 H        0.926     0.018     2.756     2.596
    97   1 H        0.926     0.022     2.701     2.570
    98   1 H        0.925     0.031     2.575     2.509
    99   1 H        0.925     0.039     2.466     2.456
   100   1 H        0.925     0.039     2.467     2.456
   101   1 H        0.925     0.031     2.575     2.509
   102   1 H        0.925     0.039     2.460     2.453
   103   1 H        0.925     0.039     2.459     2.452
   104   1 H        0.926     0.022     2.699     2.569
   105   1 H        0.926     0.024     2.671     2.556
   106   1 H        0.926     0.022     2.697     2.568
   107   1 H        0.926     0.025     2.662     2.551
   108   1 H        0.925     0.041     2.432     2.439
   109   1 H        0.925     0.042     2.422     2.434
   110   1 H        0.925     0.033     2.539     2.492
   111   1 H        0.925     0.042     2.418     2.432
   112   1 H        0.925     0.033     2.544     2.494
   113   1 H        0.925     0.042     2.427     2.436
   114   1 H        0.926     0.032     2.557     2.500
   115   1 H        0.926     0.035     2.512     2.479
   116   1 H        0.926     0.036     2.498     2.471
   117   1 H        0.926     0.035     2.518     2.482
   118   1 H        0.926     0.036     2.498     2.471
   119   1 H        0.926     0.036     2.502     2.474
   120   1 H        0.926     0.032     2.553     2.499
   121   1 H        0.926     0.035     2.519     2.482
   122   1 H        0.926     0.036     2.503     2.474
   123   1 H        0.925     0.050     2.316     2.380
   124   1 H        0.925     0.045     2.383     2.414
   125   1 H        0.925     0.052     2.290     2.366
   126   1 H        0.926     0.035     2.511     2.478
   127   1 H        0.926     0.032     2.559     2.501
   128   1 H        0.926     0.031     2.577     2.510
   129   1 H        0.926     0.023     2.686     2.563
   130   1 H        0.926     0.019     2.755     2.595
   131   1 H        0.926     0.024     2.674     2.557
   132   1 H        0.926     0.022     2.704     2.572
   133   1 H        0.926     0.036     2.502     2.473

molecular dipole:
                 x           y           z       tot (Debye)
 q only:       -0.010      -0.622       0.095
   full:       -0.008      -0.554       0.096       1.429

 projected vibrational frequencies (cm⁻¹)
eigval :       -0.00    -0.00     0.00     0.00     0.00     0.00
eigval :        3.66     8.16     9.45    11.60    20.37    20.73
eigval :       23.18    26.49    27.48    31.25    34.15    38.67
eigval :       39.60    42.61    50.46    53.62    56.09    59.06
eigval :       67.13    70.32    76.24    78.92    92.53    93.10
eigval :       96.01   105.24   110.52   114.65   120.03   128.76
eigval :      131.23   132.41   142.75   155.01   157.82   172.02
eigval :      178.25   184.54   191.83   197.60   201.27   205.48
eigval :      206.98   208.64   216.48   217.50   219.36   222.08
eigval :      229.28   232.96   233.38   247.93   249.86   250.67
eigval :      256.50   269.46   270.39   271.63   284.57   302.78
eigval :      305.88   308.23   315.78   320.98   321.25   326.08
eigval :      330.08   337.29   345.55   354.99   364.52   371.08
eigval :      377.05   380.23   381.24   393.30   401.71   409.75
eigval :      412.16   419.20   426.69   433.75   438.19   440.93
eigval :      443.91   445.98   453.68   455.09   470.12   485.42
eigval :      502.53   502.99   504.00   524.55   533.62   534.03
eigval :      537.10   540.84   543.30   553.10   557.23   562.02
eigval :      565.65   567.96   570.78   572.48   577.55   579.48
eigval :      582.71   586.47   588.77   594.53   616.53   618.48
eigval :      624.30   627.88   629.13   644.12   656.43   658.14
eigval :      660.87   664.74   674.65   681.77   682.20   683.99
eigval :      685.89   705.42   709.09   711.18   721.28   722.14
eigval :      734.22   747.22   749.38   758.19   769.97   784.71
eigval :      786.87   794.51   803.77   804.37   808.83   814.54
eigval :      818.89   819.63   821.76   836.26   845.07   851.99
eigval :      860.41   864.92   867.42   868.95   869.51   875.61
eigval :      878.57   882.54   883.28   884.88   887.35   890.80
eigval :      891.19   892.15   892.59   903.99   905.29   905.51
eigval :      907.77   908.20   908.97   923.01   923.11   925.75
eigval :      926.71   926.86   928.08   937.56   939.92   955.77
eigval :      959.05   962.56   963.86   964.44   966.33   966.75
eigval :      974.57   976.31   985.08   985.76  1000.39  1000.55
eigval :     1003.14  1003.81  1010.45  1011.25  1011.73  1030.41
eigval :     1031.12  1032.20  1033.91  1037.94  1043.73  1062.21
eigval :     1062.35  1065.82  1068.64  1081.19  1081.52  1101.10
eigval :     1104.86  1105.13  1121.51  1121.57  1131.64  1132.99
eigval :     1143.77  1149.00  1161.52  1163.79  1164.38  1170.36
eigval :     1170.86  1172.43  1172.59  1172.79  1179.25  1179.28
eigval :     1186.12  1187.48  1190.43  1195.29  1195.33  1214.11
eigval :     1214.72  1217.41  1219.03  1223.83  1226.42  1235.25
eigval :     1237.26  1241.54  1252.55  1253.59  1257.71  1261.51
eigval :     1269.22  1271.24  1272.62  1277.31  1277.79  1287.24
eigval :     1289.82  1295.41  1303.11  1307.24  1312.43  1315.35
eigval :     1316.88  1317.79  1319.07  1326.20  1326.48  1328.16
eigval :     1332.51  1339.54  1346.93  1349.20  1379.11  1383.32
eigval :     1389.12  1390.92  1392.17  1392.35  1401.44  1402.49
eigval :     1407.56  1408.63  1408.98  1412.94  1428.34  1430.55
eigval :     1431.19  1435.47  1436.36  1436.70  1439.40  1448.35
eigval :     1456.68  1457.90  1458.84  1464.51  1464.96  1470.12
eigval :     1471.49  1471.63  1472.78  1475.52  1476.16  1479.43
eigval :     1481.23  1482.58  1483.52  1484.37  1484.87  1486.61
eigval :     1487.90  1488.40  1492.96  1494.03  1495.07  1496.25
eigval :     1498.97  1499.92  1500.24  1506.04  1511.36  1514.48
eigval :     1547.77  1558.91  1570.50  1570.75  1573.23  1573.71
eigval :     1576.33  1584.99  1585.28  1588.06  1590.50  1592.68
eigval :     1596.78  1603.87  1611.31  2999.84  3000.04  3021.25
eigval :     3022.64  3023.19  3023.96  3024.05  3024.09  3025.35
eigval :     3025.85  3026.26  3026.74  3026.95  3026.98  3028.66
eigval :     3028.81  3031.72  3033.78  3033.84  3034.22  3036.31
eigval :     3036.72  3043.69  3044.23  3060.19  3062.43  3063.12
eigval :     3063.83  3072.25  3073.58  3073.88  3074.34  3074.51
eigval :     3074.73  3074.76  3075.01  3075.34  3075.49  3076.57
eigval :     3077.74  3078.21  3078.33  3080.74  3081.13  3082.52
eigval :     3082.64  3082.82  3083.24  3083.85  3084.67  3084.93
eigval :     3085.43  3086.61  3087.12  3087.47  3087.62  3091.05
eigval :     3092.12  3095.45  3095.77

   temp. (K)  partition function   enthalpy   heat capacity  entropy
                                   cal/mol     cal/K/mol   cal/K/mol   J/K/mol
 298.15  VIB  0.160E+33            39315.481    239.573    248.165
         ROT  0.541E+09              888.752      2.981     42.942
         INT  0.864E+41            40204.234    242.554    291.108
         TR   0.279E+29             1481.254      4.968     46.380
         TOT                       41685.4876   247.5219   337.4878  1412.0489

       T/K    H(0)-H(T)+PV         H(T)/Eh          T*S/Eh         G(T)/Eh
   ------------------------------------------------------------------------
    298.15    0.664301E-01    0.113428E+01    0.160351E+00    0.973929E+00
   ------------------------------------------------------------------------

         :::::::::::::::::::::::::::::::::::::::::::::::::::::
         ::                  THERMODYNAMIC                  ::
         :::::::::::::::::::::::::::::::::::::::::::::::::::::
         :: total free energy        -187.630860465343 Eh   ::
         ::.................................................::
         :: total energy             -188.604789594601 Eh   ::
         :: zero point energy           1.067850416948 Eh   ::
         :: G(RRHO) w/o ZPVE           -0.093921287690 Eh   ::
         :: G(RRHO) contrib.            0.973929129258 Eh   ::
         :::::::::::::::::::::::::::::::::::::::::::::::::::::

           -------------------------------------------------
          | TOTAL ENERGY             -188.604789594601 Eh   |
          | TOTAL ENTHALPY           -187.470509124636 Eh   |
          | TOTAL FREE ENERGY        -187.630860465343 Eh   |
          | GRADIENT NORM               0.000058941002 Eh/α |
          | HOMO-LUMO GAP               0.404037492881 eV   |
           -------------------------------------------------

 * finished run on 2025/09/05 at 15:10:25.676
