   * xtb version 6.7.1 (edcfbbe) compiled by 'albert@albert-system' on 2024-07-22

   ID    Z sym.   atoms
    1    6 C      1-6, 8-49, 51-73
    2    7 N      7, 50
    3    1 H      74-133

          program call               : xtb data2507/toluene/MDP3FL/MDP3FL_toluene_T1_crest.xyz --gfn 2 --uhf 2 --gbsa toluene --ohess vtight --parallel 40 --molden --ceasefiles --namespace data2507/toluene/MDP3FL/MDP3FL_toluene_T1_finalOpt
      * Solvation model:               GBSA
        Solvent                        toluene
        Solvent mass                       9.2140E+01 g/mol
          :  Hamiltonian                  GFN2-xTB          :
 * total energy  :  -188.6046348 Eh     change       -0.7026017E-08 Eh
 * total energy  :  -188.6046724 Eh     change       -0.3763914E-04 Eh
 * total energy  :  -188.6046876 Eh     change       -0.1524913E-04 Eh
 * total energy  :  -188.6046955 Eh     change       -0.7844906E-05 Eh
 * total energy  :  -188.6047025 Eh     change       -0.7019340E-05 Eh
 * total energy  :  -188.6047082 Eh     change       -0.5689784E-05 Eh
 * total energy  :  -188.6047121 Eh     change       -0.3891081E-05 Eh
 * total energy  :  -188.6047157 Eh     change       -0.3600567E-05 Eh
 * total energy  :  -188.6047186 Eh     change       -0.2905629E-05 Eh
 * total energy  :  -188.6047208 Eh     change       -0.2163524E-05 Eh
 * total energy  :  -188.6047500 Eh     change        0.6699264E-07 Eh
 * total energy  :  -188.6047505 Eh     change       -0.4090805E-06 Eh
 * total energy  :  -188.6047505 Eh     change       -0.4809047E-07 Eh
 * total energy  :  -188.6047506 Eh     change       -0.1217923E-06 Eh
 * total energy  :  -188.6047509 Eh     change       -0.2417854E-06 Eh
 * total energy  :  -188.6047509 Eh     change        0.4978148E-08 Eh
 * total energy  :  -188.6047511 Eh     change       -0.1897608E-06 Eh
 * total energy  :  -188.6047513 Eh     change       -0.2662507E-06 Eh
 * total energy  :  -188.6047513 Eh     change       -0.1298292E-07 Eh
   *** GEOMETRY OPTIMIZATION CONVERGED AFTER 68 ITERATIONS ***

 final structure:
================
133
 xtb: 6.7.1 (edcfbbe)
C           13.19040792913568       -3.01578554749261       -3.38592816669889
C           13.69653793702542       -2.56153087799932       -2.05023989130798
C           14.69843396107557       -3.27738790812857       -1.39954443999310
C           15.17355300953169       -2.85730455554000       -0.16965947607295
C           14.65781506254315       -1.72636431692028        0.43472220520761
C           13.65686434704437       -0.99584266119779       -0.20459463026051
N           13.12036662169550        0.15103224167677        0.39354162998913
C           13.95029769918660        1.00936434669177        1.12204111428636
C           15.25411944925007        1.26593039625029        0.69445624029863
C           16.06991255567638        2.11152835678357        1.42065174722633
C           15.60205268619485        2.71845040468328        2.57578635494663
C           14.30733787431125        2.46870159370898        3.00364901203933
C           13.48529120606000        1.62036358157957        2.28803282204795
C           11.76141324320907        0.43415442383582        0.26155766045532
C           11.32371070964276        1.76057980250800        0.13746845672132
C            9.98760040300296        2.05868859523522       -0.00796133756716
C            9.05571533417317        1.01903859660539       -0.03486983734446
C            9.49569315719997       -0.31892574465650        0.09310493564492
C           10.82381186410998       -0.61271330900408        0.24159164388958
C            8.32094667894953       -1.27058236756256        0.04309411419583
C            8.44156341998335       -2.22686398346689       -1.14869360350725
C            8.18983217267746       -2.05955017482057        1.35037594259514
C            7.16317754877426       -0.31102512051468       -0.13779274760824
C            5.83305848969333       -0.59337350730681       -0.25065809443907
C            4.88823520456600        0.45272718493675       -0.39630422233047
C            3.48185779129708        0.17674159847965       -0.50925479927283
C            3.01434971954751       -1.06614307558141       -1.00528219065681
C            1.68217291586193       -1.35268597478017       -1.12815550737740
C            0.73191293868093       -0.39424456199265       -0.73860688269199
C            1.18200169711921        0.85775287824897       -0.23501621821547
C            2.50977042418724        1.13892928150275       -0.12928804234495
C           -0.00212732896588        1.72778173874831        0.13192384099624
C           -0.01482594530567        3.02262055055881       -0.68790530290435
C           -0.00972444244554        2.04699094195728        1.63124488084831
C           -1.16421046471847        0.83087615548592       -0.24042926043540
C           -2.49917410603739        1.08204761086638       -0.14298294008618
C           -3.44452662908069        0.09475832542000       -0.52084867375131
C           -4.85943330645664        0.33916992933558       -0.41533695910862
C           -5.38237906726989        1.65031348778879       -0.49698511603513
C           -6.72721532448278        1.90884010305285       -0.40857096977207
C           -7.61490434447645        0.84783142330219       -0.21262267041220
C           -7.11184132944638       -0.47162260235238       -0.12164108507421
C           -5.77425576817716       -0.72429981479669       -0.22737637936601
C           -8.24366247855469       -1.45210095503159        0.10421286568773
C           -8.34147190597704       -2.45942399522625       -1.04652465284806
C           -8.08796771493993       -2.18284043210901        1.44246852977343
C           -9.44162153753548       -0.52880765737059        0.12853474436411
C          -10.76065895470008       -0.84907620835677        0.30606718018747
C          -11.72329460659810        0.17418192041317        0.29712410054844
N          -13.07041043199238       -0.13273863951987        0.48840032812446
C          -13.43919423494429       -1.15309648588632        1.37058690890678
C          -14.52617946208344       -1.98023259255582        1.08172393489735
C          -14.88741331040730       -2.98555382052910        1.95739652779375
C          -14.17139120664108       -3.18987959572779        3.12660160366852
C          -13.08961694261588       -2.37316835247923        3.41731892785545
C          -12.72508209031281       -1.35979259328785        2.55263000745430
C          -14.05834109246065        0.58361531101106       -0.19945789142127
C          -15.25562939396450        0.92151420165032        0.43002906756562
C          -16.22059331452921        1.62508588988193       -0.26541515033364
C          -16.00582480020428        2.00376123197913       -1.57902350956506
C          -14.81433455215479        1.67742812870241       -2.22145075740538
C          -14.59384327173249        2.07130366739875       -3.65072055179585
C          -13.85132836149057        0.96649619231185       -1.52495866406208
C          -11.32228224610638        1.50283424563354        0.09983960418816
C           -9.99603739549277        1.82676544316465       -0.08067546234359
C           -9.03831918763090        0.81182907683453       -0.06522551719244
C           -2.94873545100319       -1.13969420952033       -1.00606938081629
C           -1.60926859491885       -1.39456763083954       -1.12610207603467
C           -0.68376963558338       -0.41126031443027       -0.73970216558565
C            5.37980297504327        1.77999802195407       -0.42633664515898
C            6.71642484324755        2.06938553339093       -0.32538826502324
C            7.63300332316922        1.02440238931403       -0.17408175086724
C           13.18906657672854       -1.42255136447712       -1.44845418571551
H           12.84490666575394       -4.04716447083693       -3.32906134423701
H           13.98936988161972       -2.97437593532482       -4.12576500851319
H           12.36919899161849       -2.39011007381076       -3.72599601546955
H           15.10433865902342       -4.16560428153625       -1.86104258931808
H           15.94752042530063       -3.42134565659746        0.33028577581400
H           15.01882793602252       -1.40848159554808        1.40161071497022
H           15.61642286031618        0.80319110273019       -0.21188901888069
H           17.07568191282233        2.30494106031482        1.07722253426252
H           16.24208324965815        3.38080185863539        3.13898022955371
H           13.93683047139202        2.93165303099094        3.90662676505246
H           12.48038517068493        1.41715708985823        2.62847742822061
H           12.05668062902315        2.55454554208432        0.14074639426009
H            9.66738520299947        3.08445016189771       -0.11409691141321
H           11.16436410114011       -1.63154555822866        0.35345428978954
H            7.56215161688040       -2.86361910527639       -1.21058700337350
H            9.32191906968344       -2.85645563791019       -1.04091085370281
H            8.52620005046113       -1.66248845267758       -2.07555109353894
H            9.06288367299347       -2.69051837044137        1.50069066867434
H            7.30416731597400       -2.69003287188899        1.32212667834536
H            8.10187443689328       -1.37766107195247        2.19412829722916
H            5.48932987126139       -1.61495157804176       -0.18946062343909
H            3.73560228569862       -1.79805313737753       -1.33836010247130
H            1.35957424374279       -2.30314155755204       -1.52953975842189
H            2.83138016576322        2.08285132654244        0.28511820439872
H           -0.00906873301719        2.79368890214481       -1.75213155274922
H           -0.90599343194466        3.60410836355422       -0.46224020206924
H            0.86127932455500        3.62465269817479       -0.45728170515054
H           -0.00101751921285        1.12587480553802        2.21115322844884
H            0.86735872614912        2.63278361571799        1.89738972160064
H           -0.90093370700452        2.61325473540414        1.89269988344410
H           -2.84664001285387        2.01991685517231        0.26462846466996
H           -4.70434577809414        2.47159436680502       -0.67674722540464
H           -7.09600494997970        2.92128875435269       -0.49335520327534
H           -5.40239489957069       -1.73307259675056       -0.12770255357907
H           -7.44274023339921       -3.07035527592423       -1.08823091450852
H           -9.20041096104586       -3.11181574518477       -0.90679600403905
H           -8.44964445576437       -1.93702201475419       -1.99527901878626
H           -8.94553411133289       -2.82693409682128        1.62377990314642
H           -8.01217845702100       -1.46411714383376        2.25634945399764
H           -7.18786030748894       -2.79310522790649        1.43571645229012
H          -11.07593753736041       -1.87305099518153        0.44315993416858
H          -15.07826324152306       -1.83098414648469        0.16533427082473
H          -15.72897197744113       -3.62003584511335        1.72046630350870
H          -14.45432812997211       -3.97952362829687        3.80630289820258
H          -12.53008918520423       -2.52055878734614        4.32958241969155
H          -11.89047303408007       -0.71566740810744        2.78783213785967
H          -15.41833240961253        0.63749027069835        1.45917068161005
H          -17.14537025575818        1.88836502432124        0.22705271310921
H          -16.76510988417918        2.55634392520477       -2.11266351193638
H          -15.23853125349227        1.48346071267851       -4.30441614861695
H          -14.83974194029357        3.12133150238387       -3.79945426304941
H          -13.56094815239894        1.90597267942022       -3.94635717792196
H          -12.92485686083038        0.69421837531553       -2.01034863049847
H          -12.07224534279734        2.28061799529826        0.10641594260547
H           -9.70169428558969        2.85634630608470       -0.21962308933803
H           -3.65327785504906       -1.89036371856512       -1.33371930382543
H           -1.26298134115061       -2.33914206771369       -1.52149183279309
H            4.68265831672945        2.59116981376628       -0.57534516416628
H            7.05902289816643        3.09361930109056       -0.36937655283296
H           12.42165275808427       -0.84653791827202       -1.94572109404349

          :  Hamiltonian                  GFN2-xTB          :
         :: gradient norm              0.000048009291 Eh/a0 ::
         :: HOMO-LUMO gap              0.403176944930 eV    ::
         :: SCC energy              -192.086550072467 Eh    ::
         :: -> dispersion             -0.180569372249 Eh    ::
         :: -> Gsolv                  -0.077213359644 Eh    ::
         :: repulsion energy           3.481798738571 Eh    ::

    * Orbital Energies and Occupations

         #    Occupation            Energy/Eh            Energy/eV
      -------------------------------------------------------------
         1        2.0000           -0.6688601             -18.2006
       ...           ...                  ...                  ...
       166        2.0000           -0.3977052             -10.8221
       167        2.0000           -0.3970139             -10.8033
       168        2.0000           -0.3948341             -10.7440
       169        2.0000           -0.3929047             -10.6915
       170        2.0000           -0.3916696             -10.6579
       171        2.0000           -0.3914556             -10.6520
       172        2.0000           -0.3875228             -10.5450
       173        2.0000           -0.3847713             -10.4702
       174        2.0000           -0.3728998             -10.1471
       175        2.0000           -0.3566422              -9.7047
       176        1.9616           -0.3474254              -9.4539
       177        1.0384           -0.3413076              -9.2875
       178        0.9996           -0.2677719              -7.2864 (HOMO)
       179        0.0004           -0.2529554              -6.8833 (LUMO)
       180                         -0.2347218              -6.3871
       181                         -0.2329801              -6.3397
       182                         -0.2325722              -6.3286
       183                         -0.2282460              -6.2109
       184                         -0.2279206              -6.2020
       185                         -0.2220161              -6.0414
       186                         -0.2218952              -6.0381
       187                         -0.2186075              -5.9486
       188                         -0.2183521              -5.9417
       189                         -0.2153738              -5.8606
       ...                                ...                  ...
       352                          0.7555468              20.5595
      -------------------------------------------------------------
                  HL-Gap            0.0148165 Eh            0.4032 eV

     #   Z          covCN         q      C6AA      α(0)
     1   6 C        3.758    -0.111    22.678     6.789
     2   6 C        2.965     0.020    27.551     8.610
     3   6 C        2.924    -0.047    29.160     8.856
     4   6 C        2.917    -0.031    28.781     8.797
     5   6 C        2.921    -0.051    29.265     8.871
     6   6 C        2.924     0.063    26.592     8.457
     7   7 N        2.753    -0.057    22.336     7.019
     8   6 C        2.924     0.065    26.544     8.449
     9   6 C        2.922    -0.045    29.126     8.850
    10   6 C        2.919    -0.029    28.723     8.789
    11   6 C        2.919    -0.036    28.902     8.816
    12   6 C        2.919    -0.029    28.722     8.789
    13   6 C        2.922    -0.045    29.111     8.848
    14   6 C        2.926     0.056    26.733     8.479
    15   6 C        2.920    -0.049    29.222     8.865
    16   6 C        2.911    -0.039    28.968     8.826
    17   6 C        3.033    -0.006    28.146     8.702
    18   6 C        3.054    -0.002    28.013     8.680
    19   6 C        2.915    -0.051    29.269     8.872
    20   6 C        3.933     0.018    20.211     6.389
    21   6 C        3.758    -0.098    22.416     6.750
    22   6 C        3.758    -0.098    22.424     6.751
    23   6 C        3.047    -0.005    28.109     8.695
    24   6 C        2.916    -0.045    29.120     8.849
    25   6 C        2.972     0.001    28.012     8.682
    26   6 C        2.972    -0.004    28.127     8.699
    27   6 C        2.920    -0.041    29.023     8.834
    28   6 C        2.907    -0.042    29.051     8.838
    29   6 C        3.034    -0.010    28.244     8.717
    30   6 C        3.047    -0.007    28.150     8.702
    31   6 C        2.915    -0.046    29.130     8.850
    32   6 C        3.932     0.016    20.242     6.394
    33   6 C        3.758    -0.096    22.380     6.745
    34   6 C        3.758    -0.096    22.386     6.746
    35   6 C        3.047    -0.007    28.148     8.701
    36   6 C        2.915    -0.045    29.124     8.850
    37   6 C        2.973    -0.004    28.124     8.699
    38   6 C        2.973     0.001    28.005     8.680
    39   6 C        2.922    -0.042    29.042     8.837
    40   6 C        2.908    -0.040    28.984     8.828
    41   6 C        3.036    -0.011    28.247     8.718
    42   6 C        3.048    -0.005    28.108     8.695
    43   6 C        2.917    -0.045    29.112     8.848
    44   6 C        3.933     0.018    20.210     6.389
    45   6 C        3.758    -0.098    22.418     6.750
    46   6 C        3.758    -0.098    22.417     6.750
    47   6 C        3.054    -0.002    28.015     8.680
    48   6 C        2.915    -0.051    29.279     8.873
    49   6 C        2.925     0.057    26.722     8.477
    50   7 N        2.753    -0.058    22.367     7.024
    51   6 C        2.924     0.065    26.536     8.448
    52   6 C        2.922    -0.046    29.137     8.852
    53   6 C        2.919    -0.029    28.727     8.789
    54   6 C        2.919    -0.037    28.914     8.818
    55   6 C        2.919    -0.029    28.727     8.789
    56   6 C        2.922    -0.045    29.120     8.849
    57   6 C        2.924     0.063    26.594     8.457
    58   6 C        2.921    -0.051    29.262     8.871
    59   6 C        2.917    -0.031    28.782     8.797
    60   6 C        2.924    -0.047    29.157     8.855
    61   6 C        2.965     0.020    27.553     8.610
    62   6 C        3.758    -0.111    22.678     6.789
    63   6 C        2.927    -0.055    29.369     8.887
    64   6 C        2.920    -0.049    29.220     8.864
    65   6 C        2.911    -0.039    28.962     8.825
    66   6 C        3.033    -0.006    28.150     8.703
    67   6 C        2.920    -0.041    29.019     8.834
    68   6 C        2.907    -0.042    29.052     8.838
    69   6 C        3.034    -0.010    28.239     8.716
    70   6 C        2.922    -0.042    29.044     8.838
    71   6 C        2.908    -0.040    28.986     8.828
    72   6 C        3.036    -0.011    28.257     8.719
    73   6 C        2.927    -0.055    29.369     8.887
    74   1 H        0.925     0.051     2.304     2.374
    75   1 H        0.925     0.051     2.302     2.373
    76   1 H        0.925     0.045     2.382     2.413
    77   1 H        0.926     0.036     2.505     2.475
    78   1 H        0.926     0.035     2.522     2.483
    79   1 H        0.926     0.032     2.554     2.499
    80   1 H        0.926     0.036     2.503     2.474
    81   1 H        0.926     0.037     2.490     2.467
    82   1 H        0.926     0.035     2.511     2.478
    83   1 H        0.926     0.037     2.496     2.470
    84   1 H        0.926     0.036     2.507     2.476
    85   1 H        0.926     0.031     2.575     2.509
    86   1 H        0.926     0.030     2.583     2.513
    87   1 H        0.926     0.033     2.539     2.492
    88   1 H        0.925     0.041     2.434     2.440
    89   1 H        0.925     0.043     2.406     2.425
    90   1 H        0.925     0.033     2.541     2.493
    91   1 H        0.925     0.042     2.419     2.432
    92   1 H        0.925     0.042     2.427     2.436
    93   1 H        0.925     0.033     2.545     2.495
    94   1 H        0.926     0.025     2.662     2.552
    95   1 H        0.926     0.023     2.684     2.562
    96   1 H        0.926     0.019     2.756     2.596
    97   1 H        0.926     0.022     2.701     2.570
    98   1 H        0.925     0.031     2.575     2.510
    99   1 H        0.925     0.039     2.466     2.456
   100   1 H        0.925     0.039     2.467     2.456
   101   1 H        0.925     0.031     2.575     2.509
   102   1 H        0.925     0.039     2.460     2.453
   103   1 H        0.925     0.039     2.459     2.452
   104   1 H        0.926     0.022     2.699     2.569
   105   1 H        0.926     0.024     2.670     2.555
   106   1 H        0.926     0.022     2.697     2.568
   107   1 H        0.926     0.025     2.662     2.551
   108   1 H        0.925     0.041     2.431     2.438
   109   1 H        0.925     0.042     2.422     2.434
   110   1 H        0.925     0.033     2.539     2.492
   111   1 H        0.925     0.042     2.418     2.432
   112   1 H        0.925     0.033     2.543     2.494
   113   1 H        0.925     0.042     2.427     2.436
   114   1 H        0.926     0.032     2.557     2.501
   115   1 H        0.926     0.035     2.513     2.479
   116   1 H        0.926     0.036     2.499     2.472
   117   1 H        0.926     0.035     2.520     2.482
   118   1 H        0.926     0.036     2.499     2.472
   119   1 H        0.926     0.036     2.504     2.475
   120   1 H        0.926     0.032     2.553     2.499
   121   1 H        0.926     0.035     2.519     2.482
   122   1 H        0.926     0.036     2.503     2.474
   123   1 H        0.925     0.052     2.290     2.367
   124   1 H        0.925     0.050     2.315     2.380
   125   1 H        0.925     0.045     2.383     2.414
   126   1 H        0.926     0.035     2.513     2.479
   127   1 H        0.926     0.032     2.559     2.502
   128   1 H        0.926     0.031     2.576     2.510
   129   1 H        0.926     0.023     2.686     2.563
   130   1 H        0.926     0.019     2.754     2.595
   131   1 H        0.926     0.024     2.674     2.557
   132   1 H        0.926     0.022     2.705     2.572
   133   1 H        0.926     0.036     2.503     2.474

molecular dipole:
                 x           y           z       tot (Debye)
 q only:        0.041      -0.625       0.019
   full:        0.040      -0.561       0.025       1.430

 projected vibrational frequencies (cm⁻¹)
eigval :       -0.00    -0.00    -0.00    -0.00    -0.00     0.00
eigval :        4.50     8.05     8.43    11.73    18.37    20.99
eigval :       25.69    28.21    30.78    34.10    35.67    37.44
eigval :       41.93    44.01    50.86    52.67    55.79    60.66
eigval :       72.31    75.03    76.84    79.89    90.08    92.91
eigval :       95.14   104.03   109.05   113.54   119.79   127.46
eigval :      130.97   131.39   143.28   152.74   158.19   170.57
eigval :      176.37   186.15   190.79   194.65   204.76   206.62
eigval :      207.63   208.35   217.86   218.45   221.29   225.80
eigval :      227.36   229.70   234.12   246.46   249.57   250.47
eigval :      254.90   269.36   269.46   271.44   283.55   302.19
eigval :      304.08   307.92   313.27   317.76   318.68   324.83
eigval :      328.87   335.56   344.75   353.37   362.84   371.38
eigval :      376.73   379.40   381.97   391.30   401.15   410.74
eigval :      412.65   419.50   426.05   433.02   437.15   440.84
eigval :      443.96   444.42   452.70   454.50   470.40   485.83
eigval :      502.28   503.47   504.16   524.59   533.09   533.84
eigval :      537.01   540.64   543.36   552.74   557.17   561.97
eigval :      565.38   567.62   570.55   572.32   577.26   579.18
eigval :      582.65   586.64   588.95   594.63   616.80   618.45
eigval :      624.70   627.98   629.39   644.55   657.79   658.66
eigval :      661.61   665.46   674.77   678.93   682.14   683.94
eigval :      684.56   703.60   709.67   711.96   721.20   722.04
eigval :      734.09   747.81   750.92   758.99   770.32   785.40
eigval :      787.31   794.66   800.01   803.52   807.22   812.75
eigval :      816.90   819.75   820.82   836.33   844.94   860.47
eigval :      860.63   864.95   866.46   868.82   872.98   876.87
eigval :      878.31   880.97   883.25   884.06   887.64   890.35
eigval :      892.32   892.91   894.64   899.28   902.73   903.47
eigval :      905.47   908.10   908.17   922.62   925.43   925.62
eigval :      928.05   928.47   928.78   937.72   939.55   954.39
eigval :      958.91   961.12   962.81   963.36   965.16   968.15
eigval :      974.49   976.38   984.85   985.53  1000.44  1000.56
eigval :     1002.79  1003.68  1009.95  1011.54  1011.75  1030.89
eigval :     1031.78  1032.88  1033.33  1037.87  1043.81  1061.57
eigval :     1062.36  1065.56  1068.49  1081.19  1082.15  1100.66
eigval :     1104.74  1105.48  1121.63  1122.12  1132.39  1133.00
eigval :     1143.44  1149.52  1161.20  1163.55  1164.39  1170.27
eigval :     1170.46  1171.65  1172.36  1173.29  1178.77  1180.38
eigval :     1186.99  1187.35  1190.54  1195.34  1195.83  1214.01
eigval :     1214.41  1217.05  1219.09  1224.01  1225.78  1235.09
eigval :     1237.39  1241.43  1252.22  1253.68  1257.44  1261.14
eigval :     1268.66  1270.19  1271.44  1277.06  1278.81  1288.17
eigval :     1290.49  1295.13  1302.86  1307.53  1312.43  1315.56
eigval :     1316.99  1317.97  1319.34  1326.27  1326.53  1328.20
eigval :     1332.59  1339.55  1346.78  1349.27  1379.19  1383.23
eigval :     1389.17  1390.10  1390.86  1392.95  1401.33  1402.31
eigval :     1406.86  1407.76  1409.97  1413.37  1428.27  1430.59
eigval :     1431.35  1435.46  1436.30  1436.70  1439.48  1448.18
eigval :     1456.65  1457.81  1458.70  1464.30  1465.19  1469.62
eigval :     1471.41  1471.55  1472.70  1475.65  1476.84  1479.20
eigval :     1482.10  1482.25  1483.31  1484.19  1485.53  1486.53
eigval :     1487.05  1488.30  1493.22  1494.27  1494.91  1496.84
eigval :     1498.75  1499.23  1500.13  1506.33  1511.11  1514.88
eigval :     1547.87  1558.77  1570.60  1570.76  1572.99  1573.65
eigval :     1576.32  1585.05  1585.42  1587.90  1590.47  1592.76
eigval :     1596.64  1603.66  1611.06  3000.20  3004.41  3019.37
eigval :     3020.44  3022.52  3023.20  3023.42  3023.59  3024.49
eigval :     3025.28  3026.17  3026.89  3026.94  3027.21  3028.80
eigval :     3028.95  3030.83  3033.05  3033.83  3034.16  3036.45
eigval :     3036.58  3043.86  3044.90  3060.47  3062.67  3063.36
eigval :     3064.20  3072.65  3073.44  3073.93  3074.01  3074.53
eigval :     3074.62  3074.74  3074.93  3075.44  3075.68  3076.36
eigval :     3077.67  3078.02  3078.15  3080.58  3081.08  3082.16
eigval :     3082.83  3083.04  3083.16  3084.05  3085.03  3085.37
eigval :     3085.44  3086.53  3087.29  3087.76  3087.94  3091.81
eigval :     3091.82  3095.68  3095.78

   temp. (K)  partition function   enthalpy   heat capacity  entropy
                                   cal/mol     cal/K/mol   cal/K/mol   J/K/mol
 298.15  VIB  0.100E+33            39317.878    239.929    248.092
         ROT  0.540E+09              888.752      2.981     42.940
         INT  0.540E+41            40206.630    242.910    291.032
         TR   0.279E+29             1481.254      4.968     46.380
         TOT                       41687.8840   247.8778   337.4118  1411.7309

       T/K    H(0)-H(T)+PV         H(T)/Eh          T*S/Eh         G(T)/Eh
   ------------------------------------------------------------------------
    298.15    0.664339E-01    0.113422E+01    0.160315E+00    0.973909E+00
   ------------------------------------------------------------------------

         :::::::::::::::::::::::::::::::::::::::::::::::::::::
         ::                  THERMODYNAMIC                  ::
         :::::::::::::::::::::::::::::::::::::::::::::::::::::
         :: total free energy        -187.630842349460 Eh   ::
         ::.................................................::
         :: total energy             -188.604751333611 Eh   ::
         :: zero point energy           1.067790337921 Eh   ::
         :: G(RRHO) w/o ZPVE           -0.093881353770 Eh   ::
         :: G(RRHO) contrib.            0.973908984151 Eh   ::
         :::::::::::::::::::::::::::::::::::::::::::::::::::::

           -------------------------------------------------
          | TOTAL ENERGY             -188.604751333611 Eh   |
          | TOTAL ENTHALPY           -187.470527123822 Eh   |
          | TOTAL FREE ENERGY        -187.630842349460 Eh   |
          | GRADIENT NORM               0.000048111677 Eh/α |
          | HOMO-LUMO GAP               0.403177693113 eV   |
           -------------------------------------------------

 * finished run on 2025/09/05 at 15:46:14.421
