   * xtb version 6.7.1 (edcfbbe) compiled by 'albert@albert-system' on 2024-07-22

   ID    Z sym.   atoms
    1    6 C      1-6, 8-49, 51-73
    2    7 N      7, 50
    3    1 H      74-133

          program call               : xtb data2507/toluene/MDP3FL/MDP3FL.xyz --gfn 2 --gbsa toluene --ohess vtight --parallel 40 --molden --ceasefiles --namespace data2507/toluene/MDP3FL/MDP3FL_toluene_S0_preOpt
      * Solvation model:               GBSA
        Solvent                        toluene
        Solvent mass                       9.2140E+01 g/mol
          :  Hamiltonian                  GFN2-xTB          :
 * total energy  :  -188.6544426 Eh     change       -0.3684988E-08 Eh
 * total energy  :  -188.6712653 Eh     change       -0.1682266E-01 Eh
 * total energy  :  -188.6775898 Eh     change       -0.6324556E-02 Eh
 * total energy  :  -188.6796422 Eh     change       -0.2052435E-02 Eh
 * total energy  :  -188.6807731 Eh     change       -0.1130831E-02 Eh
 * total energy  :  -188.6813843 Eh     change       -0.6112244E-03 Eh
 * total energy  :  -188.6817751 Eh     change       -0.3907719E-03 Eh
 * total energy  :  -188.6820428 Eh     change       -0.2677101E-03 Eh
 * total energy  :  -188.6822220 Eh     change       -0.1792597E-03 Eh
 * total energy  :  -188.6823492 Eh     change       -0.1271094E-03 Eh
 * total energy  :  -188.6843403 Eh     change       -0.2322232E-06 Eh
 * total energy  :  -188.6843405 Eh     change       -0.2285093E-06 Eh
 * total energy  :  -188.6843407 Eh     change       -0.2099079E-06 Eh
 * total energy  :  -188.6843409 Eh     change       -0.2147729E-06 Eh
 * total energy  :  -188.6843412 Eh     change       -0.2378869E-06 Eh
 * total energy  :  -188.6843414 Eh     change       -0.2492226E-06 Eh
 * total energy  :  -188.6843417 Eh     change       -0.2657480E-06 Eh
 * total energy  :  -188.6843420 Eh     change       -0.3153123E-06 Eh
 * total energy  :  -188.6843420 Eh     change       -0.3682771E-08 Eh
   *** GEOMETRY OPTIMIZATION CONVERGED AFTER 185 ITERATIONS ***

 final structure:
================
133
 xtb: 6.7.1 (edcfbbe)
C           10.71684161461106       -5.19134082631710       -0.84951288737703
C           11.63557788785789       -4.31024443360998       -0.05711411453949
C           12.46599432540195       -4.85746088450995        0.91671446775763
C           13.32120115328759       -4.04656653837296        1.64126963691116
C           13.35895966173433       -2.68328024451280        1.41541062591951
C           12.53867413775971       -2.11959761088954        0.44000348971141
N           12.56163233053537       -0.73899872415147        0.19902305398816
C           13.77110791017802       -0.03854724051834        0.25837062597278
C           14.95172964961149       -0.62183341218260       -0.20304919378472
C           16.14455633460432        0.07195506956598       -0.13616477369965
C           16.18205390044102        1.35724370937397        0.38045756686827
C           15.01186179416473        1.94366954550590        0.83554777593211
C           13.81595393656684        1.25435658085814        0.78154642594778
C           11.37234404546366       -0.06680316164461       -0.10377203811183
C           11.36781691531466        0.97319268539792       -1.03670244437821
C           10.20052369188824        1.64279005392823       -1.35163576677797
C            9.01739996915343        1.26055772608355       -0.73805155872591
C            9.01566531556965        0.21287497567328        0.19663961851982
C           10.17841490095354       -0.44278778197190        0.52199340440599
C            7.61984655764449       -0.03194801769001        0.72581741426396
C            7.14503881075623       -1.44778192720477        0.38032038925961
C            7.54830291680839        0.20124042400897        2.23847606658472
C            6.82488684653180        1.01140695534432       -0.02942892902297
C            5.47607012879089        1.27260657804694        0.02887358297397
C            4.93580241307284        2.29359728858901       -0.75920606180406
C            3.49484113701537        2.57924016178182       -0.71559645385920
C            3.03231795928870        3.89588577462457       -0.70859342481357
C            1.68015827998508        4.18524595109399       -0.67434988509525
C            0.77245796460572        3.13807547005397       -0.65311386463011
C            1.22538161116284        1.80968867612793       -0.65919914654563
C            2.57166079874940        1.52964790984781       -0.68587336934535
C            0.05902516295620        0.84565076971002       -0.64249275383277
C            0.08189577242135       -0.03121333744823        0.61427775603882
C            0.04552344932518       -0.02693636046152       -1.90246265072584
C           -1.11767638548065        1.79700042782779       -0.62532670450511
C           -2.46105202041800        1.50238533600809       -0.61321590593992
C           -3.39588376627926        2.54197201498037       -0.61737254516694
C           -4.83415347787385        2.23970633508975       -0.62381488487878
C           -5.70411137277836        2.96277187945881       -1.44075941650561
C           -7.05834386520918        2.68360282310930       -1.47784905999177
C           -7.55362897110912        1.66603762434889       -0.67748725665948
C           -6.68921756418631        0.93675861487217        0.15431542700432
C           -5.34283295472447        1.21530203927514        0.18056482829960
C           -7.45325987962496       -0.11350977975474        0.93155345782487
C           -6.95326483737904       -1.52294169549084        0.59795747658167
C           -7.36779039559229        0.14042605922837        2.44065175888960
C           -8.86246397096262        0.10504894568526        0.42672530775751
C          -10.00743094748868       -0.57199001306012        0.77156432010666
C          -11.22254590275288       -0.20072636559324        0.18528398154146
N          -12.40027021602880       -0.87302552546073        0.53165570793373
C          -12.61117990179770       -1.27920607855997        1.85329210130834
C          -13.26604514335876       -2.48001794886763        2.13002511948455
C          -13.47905302585514       -2.87342041257932        3.43711354415889
C          -13.03544412977691       -2.08781934043347        4.48889084830891
C          -12.37833743423089       -0.89762284986197        4.22049546552401
C          -12.17005143429745       -0.49045445319101        2.91698637114654
C          -13.37203230459751       -1.12969184345526       -0.44524147925097
C          -14.72835956022628       -1.03289059098280       -0.14050063822246
C          -15.67230914743893       -1.29484953841152       -1.11577714463534
C          -15.28324201078996       -1.64226169323454       -2.39702613803076
C          -13.93269975162669       -1.73783239419238       -2.72015917026487
C          -13.51412969967876       -2.11010671148858       -4.11097013534596
C          -12.98925308834450       -1.48606047691365       -1.73807725673431
C          -11.25417057582520        0.84189008958679       -0.74407296047080
C          -10.10047698688004        1.51514968864786       -1.09850663477698
C           -8.89928170766043        1.15035831719967       -0.50990177621745
C           -2.94783009164162        3.86354555365076       -0.62363045773601
C           -1.59842372192679        4.16753554246997       -0.62717555256364
C           -0.67922206876578        3.13023086324682       -0.63208452789124
C            5.77761103543276        3.03092263820028       -1.59279840925266
C            7.13438925019465        2.77055337557061       -1.66068371710231
C            7.66106492675942        1.75656595187442       -0.87597670287795
C           11.68622975326828       -2.94625744063175       -0.29161357116053
H           10.03010674193207       -4.59934542958833       -1.44932043093348
H           10.14114430996381       -5.83536637088004       -0.18662809264982
H           11.29387672643221       -5.83233411449770       -1.51624001909489
H           12.43889467090104       -5.92074294827723        1.10587306892431
H           13.95917643336702       -4.47739018930208        2.39966495652946
H           14.01760793447330       -2.05072387617197        1.99230304668612
H           14.92467469017903       -1.62027434716161       -0.61508969470594
H           17.05060419978330       -0.39176078062570       -0.49888025025150
H           17.11564781390427        1.89758676227739        0.42784129739623
H           15.03129202296492        2.94346134365985        1.24504160049238
H           12.90704354080075        1.71084446784551        1.14612564149638
H           12.29447635242991        1.24869532767984       -1.51927902264070
H           10.21493864875931        2.44333192624465       -2.07657163776573
H           10.18704698506402       -1.24186466800182        1.24866891537737
H            6.12045719095576       -1.59338362899175        0.71421917355443
H            7.77891128616054       -2.18641293657055        0.86555758790766
H            7.18639178768723       -1.60606637531369       -0.69577382562446
H            8.17642380017368       -0.51694261661392        2.76038682290815
H            6.52498345016303        0.09007310021169        2.58922342027349
H            7.89145167012634        1.20507574205476        2.48158085430349
H            4.83220955758942        0.71257447882573        0.69152156647989
H            3.74937939941525        4.70454107797081       -0.71025825756599
H            1.34152126755177        5.21122150206686       -0.66396295629978
H            2.92410072600077        0.50865830070057       -0.71056227841128
H            0.09212403965557        0.59043380984422        1.50775455381338
H           -0.79816916888961       -0.66937154184293        0.64443235765059
H            0.96859555680889       -0.66080849286561        0.61826373678206
H            0.02833026903636        0.59795099531816       -2.79348513401905
H            0.93289466999444       -0.65471361223893       -1.93622294269605
H           -0.83467759648944       -0.66560097655192       -1.90978739590748
H           -2.80318322245838        0.47767183149490       -0.62725852749878
H           -5.30385770431516        3.74123089149898       -2.07471479834200
H           -7.71489375263298        3.24841766457035       -2.12371489147311
H           -4.67662901100991        0.66678606929729        0.83067327007891
H           -5.92059092124636       -1.64132299080014        0.91738615888993
H           -7.56202297455148       -2.26860674829649        1.10394491329408
H           -7.00840789892224       -1.69779418878853       -0.47490093442323
H           -7.97964651109582       -0.57997280935261        2.97890003733621
H           -7.72301006359890        1.14228666251465        2.67460313470331
H           -6.33892977434587        0.04909428755124        2.78074705886007
H           -9.98631400464311       -1.38397441447825        1.48374604392677
H          -13.60451918643862       -3.10028026932586        1.31271634821418
H          -13.98757027946834       -3.80600631123785        3.63536782736706
H          -13.20034277947393       -2.40049930246488        5.50915681554931
H          -12.03320041746503       -0.27495358005492        5.03342089487773
H          -11.66774861175175        0.44402485119287        2.71245074199515
H          -15.03456374747819       -0.75084602971172        0.85622366788940
H          -16.72259932780423       -1.21751500875226       -0.87361015881904
H          -16.02843337335627       -1.84058562511886       -3.15355045784601
H          -14.00890849257287       -3.02784886424257       -4.42549292656370
H          -13.79765479573142       -1.32366802654028       -4.81041468419436
H          -12.43808238348153       -2.25277272608032       -4.16957302530475
H          -11.93646149180357       -1.56606098432649       -1.96989002494414
H          -12.19998488229837        1.12263138165100       -1.18452859224244
H          -10.14312025008998        2.32159817550823       -1.81568213840578
H           -3.67347816263737        4.66433863924593       -0.60599088767084
H           -1.27067930461306        5.19709572701020       -0.62643852265926
H            5.35319705635542        3.80625706928960       -2.21475919766783
H            7.76888466437709        3.34711985636574       -2.31815629573642
H           11.05594069027627       -2.50785892982362       -1.05253176507953

          :  Hamiltonian                  GFN2-xTB          :
         :: gradient norm              0.000040029871 Eh/a0 ::
         :: HOMO-LUMO gap              2.208527536845 eV    ::
         :: SCC energy              -192.182671165445 Eh    ::
         :: -> dispersion             -0.180332967215 Eh    ::
         :: -> Gsolv                  -0.075695111810 Eh    ::
         :: repulsion energy           3.498329168423 Eh    ::

    * Orbital Energies and Occupations

         #    Occupation            Energy/Eh            Energy/eV
      -------------------------------------------------------------
         1        2.0000           -0.6614457             -17.9989
       ...           ...                  ...                  ...
       165        2.0000           -0.3997977             -10.8790
       166        2.0000           -0.3995217             -10.8715
       167        2.0000           -0.3989994             -10.8573
       168        2.0000           -0.3944644             -10.7339
       169        2.0000           -0.3941171             -10.7245
       170        2.0000           -0.3936671             -10.7122
       171        2.0000           -0.3934935             -10.7075
       172        2.0000           -0.3933760             -10.7043
       173        2.0000           -0.3864648             -10.5162
       174        2.0000           -0.3776280             -10.2758
       175        2.0000           -0.3642689              -9.9123
       176        2.0000           -0.3443483              -9.3702
       177        2.0000           -0.3434971              -9.3470 (HOMO)
       178                         -0.2623352              -7.1385 (LUMO)
       179                         -0.2499178              -6.8006
       180                         -0.2351987              -6.4001
       181                         -0.2275442              -6.1918
       182                         -0.2274419              -6.1890
       183                         -0.2240032              -6.0954
       184                         -0.2239688              -6.0945
       185                         -0.2193110              -5.9678
       186                         -0.2192999              -5.9675
       187                         -0.2189806              -5.9588
       188                         -0.2169451              -5.9034
       ...                                ...                  ...
       352                          0.7457620              20.2932
      -------------------------------------------------------------
                  HL-Gap            0.0811619 Eh            2.2085 eV

     #   Z          covCN         q      C6AA      α(0)
     1   6 C        3.758    -0.110    22.652     6.786
     2   6 C        2.965     0.017    27.620     8.620
     3   6 C        2.924    -0.050    29.251     8.869
     4   6 C        2.918    -0.033    28.825     8.804
     5   6 C        2.922    -0.054    29.337     8.882
     6   6 C        2.922     0.064    26.564     8.452
     7   7 N        2.752    -0.080    22.797     7.091
     8   6 C        2.923     0.066    26.513     8.444
     9   6 C        2.922    -0.049    29.206     8.862
    10   6 C        2.919    -0.031    28.770     8.796
    11   6 C        2.919    -0.040    29.002     8.831
    12   6 C        2.919    -0.031    28.770     8.796
    13   6 C        2.922    -0.048    29.203     8.862
    14   6 C        2.925     0.063    26.599     8.458
    15   6 C        2.923    -0.053    29.315     8.879
    16   6 C        2.913    -0.037    28.910     8.817
    17   6 C        3.035    -0.011    28.250     8.718
    18   6 C        3.054    -0.001    28.011     8.680
    19   6 C        2.918    -0.053    29.306     8.877
    20   6 C        3.935     0.019    20.195     6.386
    21   6 C        3.758    -0.098    22.415     6.750
    22   6 C        3.758    -0.098    22.428     6.752
    23   6 C        3.052    -0.004    28.068     8.689
    24   6 C        2.920    -0.040    28.995     8.830
    25   6 C        2.978     0.004    27.930     8.669
    26   6 C        2.978     0.005    27.904     8.665
    27   6 C        2.926    -0.040    28.990     8.830
    28   6 C        2.912    -0.037    28.928     8.820
    29   6 C        3.036    -0.005    28.104     8.695
    30   6 C        3.052    -0.003    28.049     8.686
    31   6 C        2.920    -0.040    28.996     8.830
    32   6 C        3.935     0.019    20.199     6.387
    33   6 C        3.758    -0.097    22.410     6.749
    34   6 C        3.758    -0.098    22.419     6.750
    35   6 C        3.052    -0.003    28.049     8.686
    36   6 C        2.920    -0.040    28.995     8.830
    37   6 C        2.978     0.005    27.904     8.665
    38   6 C        2.978     0.004    27.928     8.669
    39   6 C        2.926    -0.040    28.988     8.829
    40   6 C        2.912    -0.038    28.952     8.823
    41   6 C        3.036    -0.004    28.085     8.692
    42   6 C        3.052    -0.004    28.068     8.689
    43   6 C        2.920    -0.040    28.994     8.830
    44   6 C        3.935     0.019    20.195     6.386
    45   6 C        3.758    -0.098    22.424     6.751
    46   6 C        3.758    -0.098    22.417     6.750
    47   6 C        3.054    -0.002    28.013     8.680
    48   6 C        2.918    -0.053    29.308     8.878
    49   6 C        2.925     0.063    26.599     8.458
    50   7 N        2.752    -0.080    22.803     7.092
    51   6 C        2.923     0.067    26.508     8.443
    52   6 C        2.922    -0.049    29.211     8.863
    53   6 C        2.919    -0.031    28.771     8.796
    54   6 C        2.919    -0.041    29.008     8.832
    55   6 C        2.919    -0.031    28.771     8.796
    56   6 C        2.922    -0.049    29.208     8.863
    57   6 C        2.922     0.064    26.568     8.453
    58   6 C        2.922    -0.054    29.336     8.882
    59   6 C        2.918    -0.033    28.826     8.804
    60   6 C        2.924    -0.050    29.248     8.869
    61   6 C        2.965     0.017    27.621     8.620
    62   6 C        3.758    -0.110    22.651     6.785
    63   6 C        2.928    -0.058    29.444     8.899
    64   6 C        2.923    -0.052    29.300     8.877
    65   6 C        2.913    -0.036    28.907     8.816
    66   6 C        3.035    -0.011    28.245     8.717
    67   6 C        2.926    -0.040    28.989     8.830
    68   6 C        2.912    -0.037    28.928     8.820
    69   6 C        3.036    -0.005    28.103     8.695
    70   6 C        2.926    -0.040    28.988     8.830
    71   6 C        2.912    -0.038    28.953     8.823
    72   6 C        3.036    -0.004    28.086     8.692
    73   6 C        2.928    -0.058    29.446     8.899
    74   1 H        0.925     0.044     2.400     2.423
    75   1 H        0.925     0.049     2.337     2.391
    76   1 H        0.925     0.049     2.330     2.387
    77   1 H        0.926     0.031     2.571     2.507
    78   1 H        0.926     0.030     2.591     2.517
    79   1 H        0.926     0.027     2.629     2.536
    80   1 H        0.926     0.031     2.578     2.511
    81   1 H        0.926     0.032     2.560     2.502
    82   1 H        0.926     0.030     2.581     2.512
    83   1 H        0.926     0.032     2.561     2.503
    84   1 H        0.926     0.031     2.579     2.511
    85   1 H        0.926     0.028     2.613     2.528
    86   1 H        0.926     0.030     2.588     2.516
    87   1 H        0.926     0.032     2.564     2.504
    88   1 H        0.925     0.043     2.406     2.426
    89   1 H        0.925     0.044     2.402     2.424
    90   1 H        0.925     0.034     2.532     2.489
    91   1 H        0.925     0.043     2.413     2.429
    92   1 H        0.925     0.044     2.402     2.424
    93   1 H        0.925     0.033     2.538     2.491
    94   1 H        0.926     0.031     2.570     2.507
    95   1 H        0.926     0.028     2.617     2.530
    96   1 H        0.926     0.027     2.633     2.537
    97   1 H        0.926     0.031     2.565     2.505
    98   1 H        0.925     0.034     2.534     2.489
    99   1 H        0.925     0.043     2.413     2.429
   100   1 H        0.925     0.043     2.412     2.429
   101   1 H        0.925     0.033     2.544     2.494
   102   1 H        0.925     0.043     2.408     2.426
   103   1 H        0.925     0.043     2.408     2.427
   104   1 H        0.926     0.031     2.567     2.505
   105   1 H        0.926     0.028     2.620     2.531
   106   1 H        0.926     0.027     2.632     2.537
   107   1 H        0.926     0.031     2.571     2.508
   108   1 H        0.925     0.043     2.404     2.425
   109   1 H        0.925     0.042     2.418     2.432
   110   1 H        0.925     0.034     2.529     2.487
   111   1 H        0.925     0.043     2.413     2.429
   112   1 H        0.925     0.033     2.537     2.491
   113   1 H        0.925     0.043     2.403     2.424
   114   1 H        0.926     0.030     2.580     2.512
   115   1 H        0.926     0.030     2.583     2.513
   116   1 H        0.926     0.031     2.566     2.505
   117   1 H        0.926     0.030     2.585     2.514
   118   1 H        0.926     0.032     2.560     2.502
   119   1 H        0.926     0.031     2.576     2.510
   120   1 H        0.926     0.027     2.625     2.533
   121   1 H        0.926     0.030     2.587     2.515
   122   1 H        0.926     0.031     2.568     2.506
   123   1 H        0.925     0.049     2.338     2.391
   124   1 H        0.925     0.050     2.324     2.384
   125   1 H        0.925     0.043     2.408     2.427
   126   1 H        0.926     0.030     2.581     2.512
   127   1 H        0.926     0.029     2.597     2.520
   128   1 H        0.926     0.030     2.579     2.512
   129   1 H        0.926     0.028     2.616     2.529
   130   1 H        0.926     0.027     2.632     2.537
   131   1 H        0.926     0.027     2.622     2.532
   132   1 H        0.926     0.026     2.637     2.539
   133   1 H        0.926     0.031     2.571     2.508

molecular dipole:
                 x           y           z       tot (Debye)
 q only:       -0.126      -1.370       0.134
   full:       -0.119      -1.209       0.069       3.092

 projected vibrational frequencies (cm⁻¹)
eigval :       -0.00    -0.00    -0.00    -0.00     0.00     0.00
eigval :        1.72     5.09     7.40    10.83    19.65    20.79
eigval :       24.42    25.29    31.17    33.38    36.19    37.65
eigval :       38.65    40.89    46.81    48.57    52.70    57.95
eigval :       63.21    72.68    77.17    83.06    85.80    95.08
eigval :      100.25   100.90   106.88   119.09   121.11   122.72
eigval :      127.56   129.37   136.51   155.48   166.76   172.66
eigval :      181.46   193.17   197.98   202.84   204.94   206.70
eigval :      210.65   216.86   219.10   222.20   225.72   227.50
eigval :      231.45   233.51   237.26   239.03   249.44   251.58
eigval :      258.96   268.73   271.01   274.27   287.82   301.93
eigval :      302.21   305.24   315.48   319.63   323.24   328.93
eigval :      331.40   339.48   345.61   351.98   362.68   371.92
eigval :      379.85   381.72   394.48   399.78   406.25   409.45
eigval :      413.88   421.98   423.93   432.33   443.83   452.53
eigval :      462.94   466.29   467.85   468.92   472.67   485.14
eigval :      502.40   503.23   505.12   524.59   529.37   531.44
eigval :      532.96   539.50   546.22   557.94   560.52   567.66
eigval :      567.94   576.43   578.55   580.31   581.36   587.55
eigval :      589.00   592.64   597.12   599.09   625.11   625.60
eigval :      628.79   642.78   648.14   650.98   658.66   659.26
eigval :      663.37   667.84   677.33   690.52   693.35   693.56
eigval :      696.43   722.14   722.50   726.84   732.21   735.04
eigval :      735.67   750.55   752.37   763.50   777.55   785.72
eigval :      789.07   798.06   811.83   814.63   818.92   826.50
eigval :      831.30   837.15   840.45   842.30   847.59   871.96
eigval :      872.34   879.96   880.94   881.39   882.21   886.17
eigval :      888.21   888.41   889.09   890.34   891.84   893.05
eigval :      894.42   897.30   908.84   909.63   911.19   914.21
eigval :      915.75   918.13   919.88   924.69   925.11   925.71
eigval :      926.58   927.03   928.16   942.69   946.76   960.59
eigval :      964.68   965.19   965.30   966.72   969.17   980.46
eigval :      984.19   986.88   987.92   991.00  1001.46  1001.54
eigval :     1007.28  1008.94  1010.22  1010.64  1010.90  1030.25
eigval :     1031.27  1034.37  1036.33  1067.45  1067.90  1070.13
eigval :     1078.93  1082.01  1082.73  1085.83  1111.51  1111.81
eigval :     1113.22  1121.21  1121.87  1132.28  1133.11  1153.96
eigval :     1154.61  1157.76  1160.21  1164.22  1168.17  1171.84
eigval :     1172.92  1173.15  1173.43  1173.46  1179.01  1179.44
eigval :     1187.96  1189.16  1195.66  1196.60  1211.87  1212.92
eigval :     1214.42  1215.33  1225.38  1227.16  1234.53  1235.77
eigval :     1241.08  1241.36  1251.75  1253.65  1254.34  1259.34
eigval :     1271.79  1273.08  1276.53  1278.56  1280.33  1282.85
eigval :     1287.48  1303.91  1311.67  1314.50  1316.17  1316.73
eigval :     1318.56  1322.60  1324.52  1326.24  1326.66  1326.98
eigval :     1329.33  1329.72  1362.04  1367.44  1368.43  1390.14
eigval :     1390.43  1392.45  1400.98  1401.39  1406.07  1406.29
eigval :     1408.05  1423.68  1424.22  1426.61  1430.89  1432.52
eigval :     1434.59  1437.89  1438.78  1439.89  1444.25  1447.84
eigval :     1449.53  1458.93  1467.63  1471.70  1472.15  1475.09
eigval :     1475.56  1477.11  1477.18  1479.87  1482.92  1483.42
eigval :     1483.56  1484.00  1484.06  1484.55  1486.29  1486.50
eigval :     1486.66  1493.62  1493.99  1494.55  1498.82  1498.98
eigval :     1499.39  1566.51  1567.53  1571.10  1575.62  1576.04
eigval :     1579.38  1579.77  1581.89  1584.85  1587.23  1589.79
eigval :     1591.79  1592.43  1593.38  1597.43  1599.05  1601.60
eigval :     1605.92  1609.97  1612.00  3000.32  3001.35  3018.81
eigval :     3020.91  3024.00  3024.04  3024.15  3027.68  3027.72
eigval :     3027.83  3028.28  3028.41  3028.88  3030.01  3030.64
eigval :     3030.93  3035.18  3035.24  3035.34  3037.96  3038.12
eigval :     3038.33  3041.76  3042.94  3066.39  3067.09  3068.40
eigval :     3068.50  3068.85  3069.04  3069.50  3069.89  3070.62
eigval :     3070.70  3072.72  3073.21  3073.81  3074.10  3074.90
eigval :     3075.21  3075.52  3075.97  3078.70  3079.51  3079.56
eigval :     3079.77  3080.11  3080.58  3080.80  3081.21  3081.57
eigval :     3081.96  3082.92  3083.62  3086.81  3086.85  3088.63
eigval :     3088.79  3091.97  3092.41

   temp. (K)  partition function   enthalpy   heat capacity  entropy
                                   cal/mol     cal/K/mol   cal/K/mol   J/K/mol
 298.15  VIB  0.612E+33            39067.841    237.487    248.216
         ROT  0.594E+09              888.752      2.981     43.128
         INT  0.364E+42            39956.593    240.468    291.343
         TR   0.279E+29             1481.254      4.968     46.380
         TOT                       41437.8472   245.4357   337.7235  1413.0349

       T/K    H(0)-H(T)+PV         H(T)/Eh          T*S/Eh         G(T)/Eh
   ------------------------------------------------------------------------
    298.15    0.660354E-01    0.113797E+01    0.160463E+00    0.977507E+00
   ------------------------------------------------------------------------

         :::::::::::::::::::::::::::::::::::::::::::::::::::::
         ::                  THERMODYNAMIC                  ::
         :::::::::::::::::::::::::::::::::::::::::::::::::::::
         :: total free energy        -187.706835434557 Eh   ::
         ::.................................................::
         :: total energy             -188.684341998972 Eh   ::
         :: zero point energy           1.071934462352 Eh   ::
         :: G(RRHO) w/o ZPVE           -0.094427897937 Eh   ::
         :: G(RRHO) contrib.            0.977506564415 Eh   ::
         :::::::::::::::::::::::::::::::::::::::::::::::::::::

           -------------------------------------------------
          | TOTAL ENERGY             -188.684341998972 Eh   |
          | TOTAL ENTHALPY           -187.546372123850 Eh   |
          | TOTAL FREE ENERGY        -187.706835434557 Eh   |
          | GRADIENT NORM               0.000040027947 Eh/α |
          | HOMO-LUMO GAP               2.208527401631 eV   |
           -------------------------------------------------

 * finished run on 2025/09/05 at 14:40:33.061
