   * xtb version 6.7.1 (edcfbbe) compiled by 'albert@albert-system' on 2024-07-22

   ID    Z sym.   atoms
    1    6 C      1-7, 9-13, 15-20, 22-32, 34-39, 41-50, 52-62
    2    7 N      8, 14, 33, 51
    3    8 O      21, 40
    4    1 H      63-96

          program call               : xtb data2507/gas/DBBPZ-DPXZ/DBBPZ-DPXZ_gas_T1_crest.xyz --gfn 2 --spinpol --tblite --uhf 2 --ohess vtight --parallel 40 --molden --ceasefiles --namespace data2507/gas/DBBPZ-DPXZ/DBBPZ-DPXZ_gas_T1_finalOpt
 * total energy  :  -157.1311417 Eh     change       -0.4508087E-07 Eh
 * total energy  :  -157.1311688 Eh     change       -0.2709748E-04 Eh
 * total energy  :  -157.1311748 Eh     change       -0.5983551E-05 Eh
 * total energy  :  -157.1311760 Eh     change       -0.1221876E-05 Eh
 * total energy  :  -157.1311769 Eh     change       -0.8846170E-06 Eh
 * total energy  :  -157.1311775 Eh     change       -0.6030854E-06 Eh
 * total energy  :  -157.1311782 Eh     change       -0.7247500E-06 Eh
 * total energy  :  -157.1311788 Eh     change       -0.5868265E-06 Eh
 * total energy  :  -157.1311795 Eh     change       -0.6908979E-06 Eh
 * total energy  :  -157.1311801 Eh     change       -0.5793831E-06 Eh
 * total energy  :  -157.1311806 Eh     change       -0.4850333E-06 Eh
 * total energy  :  -157.1311809 Eh     change       -0.3068826E-06 Eh
 * total energy  :  -157.1311810 Eh     change       -0.8233334E-07 Eh
   *** GEOMETRY OPTIMIZATION CONVERGED AFTER 13 ITERATIONS ***

 final structure:
================
96
 xtb: 6.7.1 (edcfbbe)
C            9.82538496809390        2.95840116952122        0.43860080090058
C            8.87606887064922        3.28004796139399       -0.51664018347682
C            7.70758487303568        2.54693467766272       -0.60895313604282
C            7.47559501490271        1.47325342121232        0.24699171106988
C            6.22695262154721        0.70101106254545        0.14794124985768
C            5.01777902862466        1.38414696722968        0.10974614470202
C            3.79727518463351        0.71992556112588        0.06653972680351
N            2.62814368393926        1.36274246413027        0.03633267998268
C            1.47441235205658        0.70966253083366        0.00050434740200
C            0.23323398051580        1.41387081897500       -0.03811113829355
C            0.24291856017843        2.81930556402466       -0.01671230466674
C           -0.92219532285939        3.53542542861207       -0.03050586549453
C           -2.14779812180376        2.85438712402491       -0.08628227242561
N           -3.35882827228455        3.58619194347750       -0.08865273336345
C           -4.25642096100397        3.47894726418732        0.97186503061372
C           -4.02052685244545        2.65795609599373        2.06923732561154
C           -4.93973488118714        2.57360162420037        3.10247543940563
C           -6.10506115386507        3.31397298036412        3.06482464780460
C           -6.34372149601602        4.15871541777549        1.99158887206732
C           -5.42996243689673        4.24802254371932        0.95739631953427
O           -5.72163559264773        5.12495919321504       -0.05564644714109
C           -4.83263922934514        5.21084783082088       -1.09610386073573
C           -5.14772961763862        6.08014207535809       -2.12424481837496
C           -4.30795245648480        6.19782297078259       -3.22145785745644
C           -3.16302907820277        5.42808046414824       -3.29003268372933
C           -2.84090093152109        4.55635753857204       -2.26237237792335
C           -3.65605650206258        4.44860115603420       -1.14106133717521
C           -2.17687025379780        1.47686152720037       -0.12677339139870
C           -0.99940869775913        0.71854293604788       -0.08996791227461
C           -0.99941474143582       -0.72269905398144       -0.08954447898063
C           -2.17689195438449       -1.48082198070009       -0.12769107378942
C           -2.14832841103179       -2.85835936274640       -0.08590464529532
N           -3.35955507453375       -3.58963060468972       -0.09041403382205
C           -3.65543250711675       -4.45192596374206       -1.14343664062711
C           -2.83552419416590       -4.56452675474977       -2.26080459531855
C           -3.15642429517483       -5.43621859837017       -3.28887761060581
C           -4.30486879138928       -6.20108406237238       -3.22480600892831
C           -5.14936165864965       -6.07836333087272       -2.13179618401953
C           -4.83545844246045       -5.20910670748836       -1.10325274222123
O           -5.72929432600005       -5.11799788003797       -0.06739408097956
C           -5.44059378243310       -4.23847534963355        0.94421149855168
C           -6.36113054596873       -4.14095195123901        1.97164166884061
C           -6.12584085700246       -3.29354905548943        3.04350861719894
C           -4.95693917920573       -2.55914195342370        3.08689223895616
C           -4.03102801455471       -2.65165260530542        2.06036248221193
C           -4.26359819075543       -3.47480308426323        0.96386748948961
C           -0.92288627033748       -3.53952387440830       -0.02748861239914
C            0.24237537522879       -2.82360602262744       -0.01326453417929
C            0.23311547352332       -1.41817422975577       -0.03600180817256
C            1.47435965001562       -0.71408516940405        0.00240614341569
N            2.62809020088756       -1.36702503206747        0.04232964742036
C            3.79720174799478       -0.72407026348844        0.06963075546761
C            5.01828373507231       -1.38800120370332        0.10036900130175
C            6.22752722128474       -0.70456591237756        0.13024625267322
C            7.47971621792508       -1.47683174420056        0.09993765368279
C            7.66421328065918       -2.55097738031830        0.96676943518144
C            8.83572690211159       -3.28453816957718        0.93796260286045
C            9.83585471866994       -2.96290112972707        0.03606651030520
C            9.65531331003397       -1.90578529979872       -0.84066418215442
C            8.48774642326742       -1.16758512362376       -0.81046616892657
C            8.43223256902692        1.16413746155187        1.21128681667705
C            9.59673584112747        1.90190559183969        1.30477731870953
H           10.73870890747932        3.53060571161588        0.50971820003806
H            9.04776441466411        4.10460917375413       -1.19363298131775
H            6.97361088146980        2.79122449647252       -1.36383186742431
H            5.00619042055794        2.46321289814753        0.13878080182215
H            1.20080107967641        3.31419711615793        0.02694776161920
H           -0.91487648104562        4.61433225701206        0.00667408976370
H           -3.10665146264787        2.08756464998246        2.11981638203406
H           -4.73275214642064        1.92472271861943        3.93939815459803
H           -6.82438158312455        3.24828842077537        3.86558975008106
H           -7.23432561044120        4.76421731031213        1.93926773998356
H           -6.05776580904481        6.65336757031161       -2.04818059451002
H           -4.55920788575503        6.88075305392121       -4.01738446188129
H           -2.51050618538502        5.49674048892745       -4.14666571673045
H           -1.95173165463900        3.94988753218402       -2.33230989052963
H           -3.13957870178553        0.99331168849224       -0.18176163293705
H           -3.13933098488159       -0.99704424806977       -0.18530261036148
H           -1.94354264963664       -3.96186355590108       -2.32759211908506
H           -2.50007488707329       -5.50866888383028       -4.14226607286020
H           -4.55519913828076       -6.88397897406755       -4.02105353530428
H           -6.06227379872473       -6.64747777114274       -2.05937188675721
H           -7.25435841898621       -4.74220288742113        1.91516032972710
H           -6.85056749082100       -3.22118270293339        3.83880439121095
H           -4.75249564113132       -1.90843960987391        3.92302480517544
H           -3.11458356963056       -2.08582888588044        2.11556913060611
H           -0.91574147846854       -4.61838842030564        0.01088921432264
H            1.20012420413253       -3.31869720333994        0.03121614213645
H            5.00876135609684       -2.46707448618385        0.07024572472932
H            6.89003000332037       -2.79532622403115        1.68032964259605
H            8.96984273642259       -4.10958246764975        1.62280546101935
H           10.75139018654096       -3.53558313109945        0.01445170741217
H           10.42853110100171       -1.65596701988727       -1.55259841964791
H            8.34705544145729       -0.35141199681459       -1.50375051539268
H            8.25352092200644        0.34845123831214        1.89633349581279
H           10.32981039871392        1.65222232203632        2.05802527794435

 projected vibrational frequencies (cm⁻¹)
eigval :       -0.00    -0.00    -0.00     0.00     0.00     0.00
eigval :        7.54     8.48    12.16    12.90    15.52    21.81
eigval :       31.52    37.22    39.85    42.12    44.83    56.69
eigval :       58.24    62.14    82.08    84.83    90.38    93.95
eigval :      106.79   109.06   115.92   125.43   129.63   144.56
eigval :      153.54   189.17   190.72   208.73   215.91   235.68
eigval :      237.54   239.60   246.31   247.78   249.69   264.38
eigval :      269.55   286.82   294.03   300.05   305.94   313.08
eigval :      347.64   361.39   372.41   373.92   375.86   377.41
eigval :      385.77   391.97   399.07   417.22   419.00   419.29
eigval :      428.96   429.21   433.68   438.68   443.05   448.66
eigval :      457.59   472.31   477.64   489.56   507.21   507.28
eigval :      508.49   515.14   518.83   524.55   525.70   527.45
eigval :      559.34   566.50   567.48   576.98   580.15   582.17
eigval :      588.11   591.61   597.18   616.20   618.22   618.90
eigval :      622.07   637.81   647.65   652.71   661.81   662.63
eigval :      663.85   664.18   670.15   671.23   677.69   682.66
eigval :      688.50   693.48   705.85   720.57   722.75   724.96
eigval :      760.28   760.92   766.50   775.94   777.68   777.77
eigval :      777.88   801.99   820.97   823.72   825.80   826.36
eigval :      831.27   854.45   855.58   855.85   857.82   862.16
eigval :      865.02   865.21   870.12   877.52   878.12   881.59
eigval :      896.84   897.07   897.28   898.11   899.24   900.66
eigval :      902.68   913.36   913.87   913.92   915.10   916.90
eigval :      917.53   919.39   919.55   923.47   929.03   929.09
eigval :      930.15   930.71   957.38   973.23  1000.46  1006.48
eigval :     1041.05  1062.40  1073.72  1084.71  1087.76  1088.27
eigval :     1088.43  1089.13  1089.90  1109.71  1110.03  1118.93
eigval :     1120.55  1121.29  1124.02  1143.19  1144.13  1167.58
eigval :     1168.10  1173.36  1174.24  1180.50  1180.53  1182.19
eigval :     1184.88  1196.39  1197.27  1198.95  1202.68  1203.24
eigval :     1204.27  1210.15  1228.13  1229.93  1234.54  1240.48
eigval :     1241.27  1244.64  1247.96  1256.51  1257.89  1259.52
eigval :     1277.24  1280.59  1280.90  1285.67  1294.20  1305.69
eigval :     1309.34  1311.95  1313.31  1316.24  1320.18  1323.85
eigval :     1333.40  1334.75  1343.90  1344.88  1350.33  1362.35
eigval :     1380.10  1401.22  1403.07  1415.35  1421.58  1423.18
eigval :     1424.10  1431.12  1433.20  1442.86  1444.10  1460.91
eigval :     1467.71  1473.60  1475.53  1475.88  1482.25  1485.11
eigval :     1486.09  1492.97  1508.66  1516.87  1532.53  1537.75
eigval :     1564.21  1564.31  1570.65  1574.99  1575.24  1580.36
eigval :     1580.95  1580.99  1583.75  1586.23  1595.99  1597.96
eigval :     1598.52  1599.59  3068.01  3068.04  3072.01  3072.44
eigval :     3078.64  3078.80  3084.87  3085.45  3088.71  3088.74
eigval :     3089.67  3089.84  3089.87  3090.51  3090.82  3090.90
eigval :     3091.60  3092.02  3094.79  3100.10  3100.19  3100.25
eigval :     3100.55  3101.90  3102.11  3106.03  3106.98  3107.24
eigval :     3107.36  3108.31  3112.77  3112.88  3112.89  3113.65

   temp. (K)  partition function   enthalpy   heat capacity  entropy
                                   cal/mol     cal/K/mol   cal/K/mol   J/K/mol
 298.15  VIB  0.584E+23            28138.308    178.554    175.613
         ROT  0.223E+09              888.752      2.981     41.180
         INT  0.130E+32            29027.060    181.535    216.792
         TR   0.217E+29             1481.254      4.968     45.876
         TOT                       30508.3142   186.5031   262.6687  1099.0057

       T/K    H(0)-H(T)+PV         H(T)/Eh          T*S/Eh         G(T)/Eh
   ------------------------------------------------------------------------
    298.15    0.486181E-01    0.767567E+00    0.124802E+00    0.642765E+00
   ------------------------------------------------------------------------

         :::::::::::::::::::::::::::::::::::::::::::::::::::::
         ::                  THERMODYNAMIC                  ::
         :::::::::::::::::::::::::::::::::::::::::::::::::::::
         :: total free energy        -156.488416318170 Eh   ::
         ::.................................................::
         :: total energy             -157.131180961672 Eh   ::
         :: zero point energy           0.718948905552 Eh   ::
         :: G(RRHO) w/o ZPVE           -0.076184262050 Eh   ::
         :: G(RRHO) contrib.            0.642764643502 Eh   ::
         :::::::::::::::::::::::::::::::::::::::::::::::::::::

           -------------------------------------------------
          | TOTAL ENERGY             -157.131180961672 Eh   |
          | TOTAL ENTHALPY           -156.363613962732 Eh   |
          | TOTAL FREE ENERGY        -156.488416318170 Eh   |
          | GRADIENT NORM               0.000100213508 Eh/α |
           -------------------------------------------------

 * finished run on 2025/08/22 at 17:36:51.653
