   * xtb version 6.7.1 (edcfbbe) compiled by 'albert@albert-system' on 2024-07-22

   ID    Z sym.   atoms
    1    6 C      1-7, 9-13, 15-20, 22-32, 34-39, 41-50, 52-62
    2    7 N      8, 14, 33, 51
    3    8 O      21, 40
    4    1 H      63-96

          program call               : xtb data2507/gas/DBBPZ-DPXZ/DBBPZ-DPXZ_gas_S0_finalOpt.xtbopt.xyz --gfn 2 --spinpol --tblite --uhf 2 --ohess vtight --parallel 40 --molden --ceasefiles --namespace data2507/gas/DBBPZ-DPXZ/DBBPZ-DPXZ_gas_T1_preOpt
 * total energy  :  -157.1271934 Eh     change       -0.4511219E-07 Eh
 * total energy  :  -157.1299510 Eh     change       -0.2757543E-02 Eh
 * total energy  :  -157.1308507 Eh     change       -0.8997681E-03 Eh
 * total energy  :  -157.1309644 Eh     change       -0.1136961E-03 Eh
 * total energy  :  -157.1310135 Eh     change       -0.4910742E-04 Eh
 * total energy  :  -157.1310210 Eh     change       -0.7434198E-05 Eh
 * total energy  :  -157.1310289 Eh     change       -0.7941313E-05 Eh
 * total energy  :  -157.1310389 Eh     change       -0.1000502E-04 Eh
 * total energy  :  -157.1310493 Eh     change       -0.1037251E-04 Eh
 * total energy  :  -157.1310596 Eh     change       -0.1032396E-04 Eh
 * total energy  :  -157.1311572 Eh     change       -0.2077453E-05 Eh
 * total energy  :  -157.1311593 Eh     change       -0.2030574E-05 Eh
 * total energy  :  -157.1311617 Eh     change       -0.2388192E-05 Eh
 * total energy  :  -157.1311641 Eh     change       -0.2473561E-05 Eh
 * total energy  :  -157.1311667 Eh     change       -0.2616029E-05 Eh
 * total energy  :  -157.1311685 Eh     change       -0.1789703E-05 Eh
 * total energy  :  -157.1311698 Eh     change       -0.1317625E-05 Eh
 * total energy  :  -157.1311698 Eh     change        0.8239425E-08 Eh
 * total energy  :  -157.1311699 Eh     change       -0.2072380E-07 Eh
   *** GEOMETRY OPTIMIZATION CONVERGED AFTER 45 ITERATIONS ***

 final structure:
================
96
 xtb: 6.7.1 (edcfbbe)
C            9.83639969375504        2.96782053759228       -0.06635596758359
C            8.82834897669502        3.29223770229854       -0.95839091520133
C            7.65725797911218        2.55778426727969       -0.98019248762802
C            7.48111984694049        1.47983183533312       -0.11632163004169
C            6.22947170943613        0.70644494077076       -0.13949084856821
C            5.01974930496939        1.38830902024864       -0.09634015080470
C            3.79970244316595        0.72279538702998       -0.06016634157566
N            2.63012689584485        1.36411522524915       -0.02228799408335
C            1.47714009561849        0.71019506716516        0.02146747889959
C            0.23564230606923        1.41323433373214        0.06645011938477
C            0.24198657478743        2.81849007063077        0.03260298924291
C           -0.92456049479601        3.53237863626806        0.04490157793308
C           -2.14866348297833        2.85007682519988        0.11997354159096
N           -3.36163662651036        3.57744033884971        0.11889024835109
C           -3.64500172544161        4.47486167479794        1.14614342843338
C           -2.81250413994543        4.62432791721381        2.24989120816684
C           -3.12003418107355        5.53165068984491        3.25083188500343
C           -4.26815423998005        6.29582943297231        3.17398082774339
C           -5.12613576762053        6.13566200822528        2.09653963962340
C           -4.82533056822949        5.23084464275947        1.09504773407967
O           -5.73290429696232        5.10402686425527        0.07515006944223
C           -5.45722921826983        4.19040342099606       -0.90933876544015
C           -6.39233270086007        4.05798230376263       -1.91968683572316
C           -6.17197350154556        3.17528781033106       -2.96576833456553
C           -5.00239944711429        2.44162737739266       -3.00163020386607
C           -4.06178494166364        2.56961853601852       -1.99249631505050
C           -4.27970734466441        3.42733777351916       -0.91955505166005
C           -2.17354333442944        1.47291481518159        0.17833069245808
C           -0.99536478198406        0.71651281458199        0.13309903127398
C           -0.99418614917325       -0.72459089868187        0.12689826431383
C           -2.17128420605371       -1.48296971968666        0.16569909216095
C           -2.14465231284631       -2.85954740055522        0.09561916279518
N           -3.35700478900256       -3.58800327156227        0.08929434351850
C           -4.27707420052459       -3.42764012873298       -0.94581997234532
C           -4.05824711753350       -2.56388300043731       -2.01371017371376
C           -5.00118511683661       -2.42496721623352       -3.01921924098999
C           -6.17411688410949       -3.15331121945270       -2.98462430487052
C           -6.39527379997739       -4.04230239694961       -1.94403132488751
C           -5.45761938612804       -4.18600654638460       -0.93761269602624
O           -5.73388950771661       -5.10573217137675        0.04101366423939
C           -4.82355308776317       -5.24378355147366        1.05698297181613
C           -5.12436779215469       -6.15563137647273        2.05206280480485
C           -4.26407043908820       -6.32680913712314        3.12595910591615
C           -3.11363841464141       -5.56645351244046        3.20589007161051
C           -2.80591289981566       -4.65234180835801        2.21118692236493
C           -3.64067091823919       -4.49194296876958        1.11070646926264
C           -0.91969471537773       -3.53947620126161        0.01388113297852
C            0.24593806031512       -2.82386844052974        0.00752810701179
C            0.23786024790815       -1.41899753791666        0.05429900508956
C            1.47844592084784       -0.71374796999293        0.01600805425472
N            2.63277328018743       -1.36512938848493       -0.03023126548785
C            3.80119712875878       -0.72128329350719       -0.06435631831698
C            5.02216782720478       -1.38377753085035       -0.11966589308178
C            6.23021278018705       -0.69895515637075       -0.16434335441950
C            7.47890155500927       -1.46888703417138       -0.27969264526136
C            7.72190405271612       -2.54624728528114        0.56847754926567
C            8.89019869764202       -3.27739354081265        0.45936825113960
C            9.82808746856733       -2.95017936537246       -0.50522937784192
C            9.58842328897715       -1.88973936265766       -1.36357592849900
C            8.42427605671247       -1.15379211713435       -1.25312965971896
C            8.49721180088384        1.16764161400048        0.78402883044084
C            9.66428429176760        1.90688584521054        0.80744614606137
H           10.75155981333019        3.54127938443002       -0.05014988626303
H            8.95593789891407        4.12015858101735       -1.64100800343517
H            6.87677887616675        2.80439558575987       -1.68607747821514
H            5.00923050464670        2.46719518788132       -0.06056876424734
H            1.19838308273909        3.31512272075165       -0.02281279463315
H           -0.91913134099691        4.61061478488687       -0.00851579467870
H           -1.92091523419277        4.02248262906629        2.32790182854171
H           -2.45341898268618        5.63253886833838        4.09330527314856
H           -4.50795588175606        7.00663888037569        3.94874146218162
H           -6.03976777996211        6.70245537457813        2.01550658700179
H           -7.28504907514600        4.66062236265807       -1.87034063833655
H           -6.90817082201335        3.07544314765007       -3.74742078626509
H           -4.80866897157241        1.76379870868695       -3.81852098115415
H           -3.14500207238669        2.00415519585645       -2.04424412378504
H           -3.13418495199067        0.98769163369728        0.25123232713985
H           -3.13258111983489       -0.99965497838216        0.24259762757738
H           -3.13902285818869       -2.00225485461543       -2.06422668351574
H           -4.80667939359790       -1.74276990400883       -3.83228221451812
H           -6.91234985495167       -3.04458221760100       -3.76316385531649
H           -7.29061570074941       -4.64115054250369       -1.89608666189867
H           -6.03994954552613       -6.71899088745912        1.96904296261847
H           -4.50393781119195       -7.04303264739772        3.89569467393150
H           -2.44533028430658       -5.67566921005029        4.04598004010170
H           -1.91245227905456       -4.05361633877417        2.29165793098722
H           -0.91276581375138       -4.61716503000093       -0.04941137107738
H            1.20289170222315       -3.31880089124144       -0.05319766871408
H            5.01180237169337       -2.46270859805596       -0.15379921514780
H            6.99680823249409       -2.79511844748287        1.33041146822519
H            9.07064079805223       -4.10493731309445        1.13041419423827
H           10.74105726879744       -3.52112155705752       -0.58973395122102
H           10.31249660223717       -1.63560175545336       -2.12400730368631
H            8.23683770861779       -0.33493351054701       -1.93203791302705
H            8.36324079738474        0.34832787156193        1.47494838917425
H           10.44375750693897        1.65489075994487        1.51175559121985

 projected vibrational frequencies (cm⁻¹)
eigval :       -0.00    -0.00     0.00     0.00     0.00     0.00
eigval :        7.94     9.26    12.36    13.48    15.83    22.10
eigval :       32.51    37.43    39.98    42.67    44.93    57.35
eigval :       58.45    62.27    82.27    85.14    90.50    94.35
eigval :      106.80   109.22   116.56   126.67   131.81   145.27
eigval :      153.94   189.61   191.16   208.87   216.51   235.56
eigval :      238.74   240.34   246.49   248.13   250.20   264.26
eigval :      270.05   287.41   294.17   300.70   306.19   313.42
eigval :      347.66   361.61   372.42   373.79   375.88   377.65
eigval :      386.39   392.09   398.93   417.35   419.25   419.33
eigval :      429.43   429.68   433.90   438.99   443.68   448.78
eigval :      457.50   472.60   477.87   489.71   507.21   507.36
eigval :      508.47   515.42   519.13   524.73   526.09   527.68
eigval :      559.15   566.68   567.45   576.96   580.03   582.47
eigval :      588.28   591.63   597.30   616.24   618.15   618.79
eigval :      622.22   637.60   647.61   652.60   661.83   662.73
eigval :      663.96   664.29   669.91   671.12   677.73   682.48
eigval :      688.42   693.42   705.66   720.40   722.36   724.76
eigval :      760.44   761.06   766.59   775.84   778.04   778.15
eigval :      778.31   802.01   821.30   823.93   826.71   827.11
eigval :      831.47   854.45   855.75   856.06   858.08   862.41
eigval :      865.84   866.01   871.88   877.72   878.34   883.62
eigval :      896.97   897.31   897.74   898.54   900.19   900.86
eigval :      902.85   913.30   914.07   914.17   915.79   916.84
eigval :      917.52   920.60   920.72   923.46   929.23   929.27
eigval :      930.40   930.95   957.57   973.26  1000.56  1006.50
eigval :     1041.23  1062.48  1073.77  1084.84  1087.93  1088.69
eigval :     1088.88  1089.59  1090.49  1109.86  1110.23  1119.33
eigval :     1120.79  1121.54  1124.39  1143.62  1144.87  1167.68
eigval :     1168.18  1173.51  1174.67  1180.98  1181.00  1182.59
eigval :     1185.71  1196.79  1197.45  1199.37  1202.97  1203.70
eigval :     1204.82  1210.56  1228.32  1230.34  1234.50  1240.64
eigval :     1241.69  1245.12  1248.01  1256.49  1258.09  1260.01
eigval :     1277.61  1280.77  1281.18  1285.71  1293.47  1305.67
eigval :     1309.67  1311.68  1313.14  1316.23  1320.16  1323.52
eigval :     1333.25  1334.32  1344.25  1344.82  1350.13  1362.58
eigval :     1380.54  1401.06  1403.18  1415.31  1421.41  1423.16
eigval :     1424.18  1431.19  1433.17  1442.80  1444.10  1461.12
eigval :     1467.86  1473.52  1475.56  1476.19  1482.30  1485.12
eigval :     1485.97  1493.00  1508.68  1517.01  1532.56  1537.56
eigval :     1564.23  1564.35  1570.62  1575.04  1575.33  1580.30
eigval :     1580.91  1580.95  1583.77  1586.25  1596.25  1598.07
eigval :     1598.55  1599.60  3068.20  3068.20  3072.16  3072.59
eigval :     3078.79  3078.95  3085.00  3085.58  3088.27  3088.72
eigval :     3089.70  3089.83  3089.89  3090.74  3090.81  3091.00
eigval :     3091.74  3092.16  3095.01  3100.27  3100.38  3100.41
eigval :     3100.77  3101.62  3102.02  3106.39  3107.41  3107.66
eigval :     3107.71  3108.88  3112.88  3112.97  3112.99  3113.80

   temp. (K)  partition function   enthalpy   heat capacity  entropy
                                   cal/mol     cal/K/mol   cal/K/mol   J/K/mol
 298.15  VIB  0.411E+23            28111.470    178.553    175.194
         ROT  0.222E+09              888.752      2.981     41.176
         INT  0.913E+31            29000.222    181.534    216.370
         TR   0.217E+29             1481.254      4.968     45.876
         TOT                       30481.4762   186.5025   262.2464  1097.2390

       T/K    H(0)-H(T)+PV         H(T)/Eh          T*S/Eh         G(T)/Eh
   ------------------------------------------------------------------------
    298.15    0.485753E-01    0.767660E+00    0.124602E+00    0.643058E+00
   ------------------------------------------------------------------------

         :::::::::::::::::::::::::::::::::::::::::::::::::::::
         ::                  THERMODYNAMIC                  ::
         :::::::::::::::::::::::::::::::::::::::::::::::::::::
         :: total free energy        -156.488111748282 Eh   ::
         ::.................................................::
         :: total energy             -157.131169867400 Eh   ::
         :: zero point energy           0.719084526079 Eh   ::
         :: G(RRHO) w/o ZPVE           -0.076026406962 Eh   ::
         :: G(RRHO) contrib.            0.643058119118 Eh   ::
         :::::::::::::::::::::::::::::::::::::::::::::::::::::

           -------------------------------------------------
          | TOTAL ENERGY             -157.131169867400 Eh   |
          | TOTAL ENTHALPY           -156.363510017070 Eh   |
          | TOTAL FREE ENERGY        -156.488111748282 Eh   |
          | GRADIENT NORM               0.000108276442 Eh/α |
           -------------------------------------------------

 * finished run on 2025/08/22 at 17:27:48.054
