   * xtb version 6.7.1 (edcfbbe) compiled by 'albert@albert-system' on 2024-07-22

   ID    Z sym.   atoms
    1    6 C      1-7, 9-13, 15-20, 22-32, 34-39, 41-50, 52-62
    2    7 N      8, 14, 33, 51
    3    8 O      21, 40
    4    1 H      63-96

          program call               : xtb data2507/gas/DBBPZ-DPXZ/DBBPZ-DPXZ_gas_S0_crest.xyz --gfn 2 --ohess vtight --parallel 40 --molden --ceasefiles --namespace data2507/gas/DBBPZ-DPXZ/DBBPZ-DPXZ_gas_S0_finalOpt
          :  Hamiltonian                  GFN2-xTB          :
 * total energy  :  -157.1723053 Eh     change       -0.1780535E-08 Eh
 * total energy  :  -157.1723060 Eh     change       -0.7758593E-06 Eh
 * total energy  :  -157.1723073 Eh     change       -0.1220803E-05 Eh
 * total energy  :  -157.1723084 Eh     change       -0.1104872E-05 Eh
 * total energy  :  -157.1723096 Eh     change       -0.1212576E-05 Eh
 * total energy  :  -157.1723109 Eh     change       -0.1278482E-05 Eh
 * total energy  :  -157.1723118 Eh     change       -0.9766723E-06 Eh
 * total energy  :  -157.1723126 Eh     change       -0.7617944E-06 Eh
 * total energy  :  -157.1723134 Eh     change       -0.7697501E-06 Eh
 * total energy  :  -157.1723140 Eh     change       -0.6172017E-06 Eh
 * total energy  :  -157.1723161 Eh     change       -0.6743760E-06 Eh
 * total energy  :  -157.1723168 Eh     change       -0.6880418E-06 Eh
 * total energy  :  -157.1723172 Eh     change       -0.4503762E-06 Eh
 * total energy  :  -157.1723176 Eh     change       -0.3632564E-06 Eh
 * total energy  :  -157.1723180 Eh     change       -0.4527849E-06 Eh
 * total energy  :  -157.1723186 Eh     change       -0.5490559E-06 Eh
 * total energy  :  -157.1723191 Eh     change       -0.5090189E-06 Eh
 * total energy  :  -157.1723195 Eh     change       -0.3668200E-06 Eh
 * total energy  :  -157.1723195 Eh     change       -0.6228987E-08 Eh
   *** GEOMETRY OPTIMIZATION CONVERGED AFTER 22 ITERATIONS ***

 final structure:
================
96
 xtb: 6.7.1 (edcfbbe)
C            9.85374778508998        2.91693618361910        0.03968915752913
C            8.86725970264146        3.26363469454494       -0.86794986520682
C            7.68486129906752        2.54848569351383       -0.91479911303715
C            7.47856635974456        1.46817527907876       -0.06147962318056
C            6.21298701124936        0.71591552510546       -0.11045500732791
C            5.02406263418105        1.39890148056727       -0.06354677506473
C            3.79389116183462        0.71420564279409       -0.05145178748085
N            2.64367433835468        1.40025039558514       -0.00426496225271
C            1.51630316560344        0.71300804677708        0.01807653348349
C            0.26182129732860        1.42800426975684        0.05986086661806
C            0.26281851534875        2.82616597996576        0.01919018576365
C           -0.91206543617106        3.53609137726044        0.02672201706090
C           -2.12820399222137        2.85006477129251        0.10042883239838
N           -3.34579397446956        3.55822824913960        0.09057864166012
C           -3.62852327917317        4.49926934172468        1.08480270854624
C           -2.78112046213198        4.71578901939068        2.16437611997372
C           -3.08928176748028        5.66024432729137        3.13160721693652
C           -4.25479468990213        6.39402593676731        3.04491352110092
C           -5.13069457752355        6.16199576720895        1.99489920707446
C           -4.82881494357652        5.21995598596764        1.02921332418185
O           -5.76197972816632        5.02090721818030        0.04286181959848
C           -5.49073815120344        4.06250305587893       -0.90117647361755
C           -6.45303429648205        3.85605635441300       -1.87225217099310
C           -6.24131933302762        2.93214529976347       -2.88447982480997
C           -5.05079202043796        2.23622814774747       -2.92791491278260
C           -4.08318256664900        2.43872979455250       -1.95586611139959
C           -4.29470033734263        3.33169384491842       -0.91208350016996
C           -2.13865582974190        1.46668641960317        0.16549385611089
C           -0.95686526854574        0.72438964681913        0.12647212696200
C           -0.95583815158237       -0.73135685423341        0.11704414332149
C           -2.13596724120059       -1.47592177859241        0.16176951176172
C           -2.12469707070794       -2.85818360855925        0.07631703073741
N           -3.34108654806601       -3.56844218991377        0.07963492523147
C           -4.31196950459285       -3.32592222518632       -0.89793794160694
C           -4.12149516839845       -2.41951021871585       -1.93416563591200
C           -5.11061564153339       -2.20067150141139       -2.88069285432589
C           -6.30214487235072       -2.89355576944982       -2.81921028337055
C           -6.49347182281823       -3.83079593195787       -1.81522327494112
C           -5.50972709089807       -4.05340102665092       -0.86953752417335
O           -5.76224359968464       -5.02382297971267        0.06736907361641
C           -4.80766296328483       -5.23835946427003        1.02964521723793
C           -5.09097724246224       -6.19196940412410        1.98959355567664
C           -4.19251529954372       -6.44056511150831        3.01646985779056
C           -3.02281602765053       -5.71170389873174        3.08624234424067
C           -2.73339796722102       -4.75547436865177        2.12480332640126
C           -3.60410665876543       -4.52192863038082        1.06753790887263
C           -0.90892787226073       -3.54083083737469       -0.02856704038009
C            0.26502154439510       -2.82931555673555       -0.03863507195605
C            0.26310655814185       -1.43216355520011        0.02817099917703
C            1.51680869658743       -0.71520563875759       -0.00354630026623
N            2.64456068197488       -1.40047606208999       -0.05290428195827
C            3.79428239412421       -0.71240941574504       -0.07911988920782
C            5.02417327696658       -1.39480103563978       -0.14279233304893
C            6.21249272274753       -0.70958840904541       -0.16969254381447
C            7.47420498291907       -1.45908075235770       -0.29721662820612
C            7.73465391038182       -2.54038828357706        0.53989618243976
C            8.91358593453852       -3.25268386666038        0.41957367926925
C            9.84216446510158       -2.90198966844637       -0.54578844252741
C            9.58368549101827       -1.83781574873540       -1.39378073095986
C            8.40972862212513       -1.11913449480346       -1.27103237680468
C            8.47253146146193        1.13209047008751        0.85399990833511
C            9.64999798286907        1.85380425206037        0.90375255360862
H           10.77744613527038        3.47529791044127        0.07561772125267
H            9.01985619605004        4.09378339860233       -1.54225219397956
H            6.91946993625064        2.81210362250523       -1.63080740470526
H            5.00614244987883        2.47696728411779       -0.00872547036181
H            1.21661325719623        3.32618623406038       -0.03827987026585
H           -0.90976042584739        4.61399698916431       -0.03413899541339
H           -1.87547851701957        4.13705527226484        2.25596021063582
H           -2.40816899425553        5.81175766807123        3.95482108934522
H           -4.49619012770744        7.13439273546016        3.79106228016304
H           -6.06103594380355        6.70027361027767        1.90902657466364
H           -7.36076079406498        4.43571564245163       -1.82060531784958
H           -6.99983367382922        2.77428430135081       -3.63464713445983
H           -4.85882361170859        1.53056247798988       -3.72134253770131
H           -3.14962527646126        1.90253510827528       -2.02042902073447
H           -3.09609362982052        0.97641805832757        0.24100299309665
H           -3.09251592735749       -0.98823862433568        0.26137863955129
H           -3.18783288367493       -1.88534852291427       -2.01280112752224
H           -4.93506578942765       -1.48428428449848       -3.66824762750624
H           -7.07734170616048       -2.72291777575637       -3.54925089529712
H           -7.40171262882285       -4.40833872374042       -1.75048420458100
H           -6.02497188796933       -6.72595810713596        1.91776545141281
H           -4.41964351889754       -7.18975963108059        3.75827343710814
H           -2.32377738695977       -5.87618272046053        3.89175626471035
H           -1.82404159426137       -4.18077381748492        2.20380922759779
H           -0.90615579993711       -4.61747670985041       -0.10860874530478
H            1.21854005701851       -3.32710902965976       -0.11645985849993
H            5.00491757079990       -2.47288698266742       -0.19682731650192
H            7.01503113004750       -2.80711216383995        1.30079973830222
H            9.10888413160720       -4.08373634632930        1.08163908668660
H           10.76323022687792       -3.45806828174040       -0.63903677028560
H           10.30058556126285       -1.56596855554651       -2.15456990906151
H            8.20762894471683       -0.29703303128288       -1.94175653180899
H            8.31371764246624        0.31062363268746        1.53704559377129
H           10.41259860541609        1.58513019751929        1.61992107900643

          :  Hamiltonian                  GFN2-xTB          :
         :: gradient norm              0.000054023266 Eh/a0 ::
         :: HOMO-LUMO gap              1.083273576869 eV    ::
         :: SCC energy              -159.989338386191 Eh    ::
         :: -> dispersion             -0.142649313218 Eh    ::
         :: repulsion energy           2.817018905103 Eh    ::

    * Orbital Energies and Occupations

         #    Occupation            Energy/Eh            Energy/eV
      -------------------------------------------------------------
         1        2.0000           -0.7267914             -19.7770
       ...           ...                  ...                  ...
       133        2.0000           -0.4116585             -11.2018
       134        2.0000           -0.4107282             -11.1765
       135        2.0000           -0.4080828             -11.1045
       136        2.0000           -0.4075646             -11.0904
       137        2.0000           -0.4029129             -10.9638
       138        2.0000           -0.4010738             -10.9138
       139        2.0000           -0.3908396             -10.6353
       140        2.0000           -0.3900089             -10.6127
       141        2.0000           -0.3877980             -10.5525
       142        2.0000           -0.3859002             -10.5009
       143        2.0000           -0.3495337              -9.5113
       144        2.0000           -0.3426884              -9.3250
       145        2.0000           -0.3417566              -9.2997 (HOMO)
       146                         -0.3019470              -8.2164 (LUMO)
       147                         -0.2715605              -7.3895
       148                         -0.2612641              -7.1094
       149                         -0.2431744              -6.6171
       150                         -0.2373525              -6.4587
       151                         -0.2372935              -6.4571
       152                         -0.2360147              -6.4223
       153                         -0.2290186              -6.2319
       154                         -0.2286741              -6.2225
       155                         -0.2285748              -6.2198
       156                         -0.2244665              -6.1080
       ...                                ...                  ...
       282                          0.7154257              19.4677
      -------------------------------------------------------------
                  HL-Gap            0.0398095 Eh            1.0833 eV

     #   Z          covCN         q      C6AA      α(0)
     1   6 C        2.920    -0.030    28.743     8.792
     2   6 C        2.919    -0.029    28.722     8.788
     3   6 C        2.925    -0.033    28.831     8.806
     4   6 C        2.979     0.014    27.702     8.634
     5   6 C        2.976     0.010    27.794     8.648
     6   6 C        2.923    -0.048    29.189     8.860
     7   6 C        2.966     0.080    26.216     8.398
     8   7 N        1.848    -0.243    27.195     7.729
     9   6 C        2.962     0.082    26.171     8.391
    10   6 C        2.988    -0.005    28.130     8.700
    11   6 C        2.923    -0.028    28.701     8.785
    12   6 C        2.918    -0.041    29.030     8.835
    13   6 C        2.919     0.066    26.513     8.444
    14   7 N        2.751    -0.069    22.587     7.059
    15   6 C        2.922     0.042    27.050     8.529
    16   6 C        2.924    -0.060    29.481     8.904
    17   6 C        2.919    -0.039    28.961     8.825
    18   6 C        2.919    -0.040    28.993     8.830
    19   6 C        2.920    -0.056    29.396     8.891
    20   6 C        2.884     0.125    25.262     8.240
    21   8 O        1.709    -0.255    18.220     5.763
    22   6 C        2.884     0.125    25.259     8.240
    23   6 C        2.920    -0.056    29.394     8.891
    24   6 C        2.919    -0.040    28.991     8.830
    25   6 C        2.919    -0.038    28.949     8.823
    26   6 C        2.924    -0.060    29.494     8.906
    27   6 C        2.921     0.042    27.058     8.530
    28   6 C        2.926    -0.048    29.200     8.862
    29   6 C        2.977     0.007    27.869     8.660
    30   6 C        2.977     0.007    27.869     8.660
    31   6 C        2.926    -0.048    29.200     8.862
    32   6 C        2.919     0.066    26.513     8.444
    33   7 N        2.751    -0.069    22.586     7.058
    34   6 C        2.921     0.042    27.058     8.530
    35   6 C        2.924    -0.060    29.493     8.906
    36   6 C        2.919    -0.038    28.950     8.823
    37   6 C        2.919    -0.040    28.991     8.829
    38   6 C        2.920    -0.056    29.394     8.891
    39   6 C        2.885     0.125    25.260     8.240
    40   8 O        1.709    -0.255    18.220     5.763
    41   6 C        2.884     0.125    25.262     8.240
    42   6 C        2.920    -0.056    29.396     8.891
    43   6 C        2.919    -0.040    28.993     8.830
    44   6 C        2.919    -0.039    28.961     8.825
    45   6 C        2.924    -0.060    29.482     8.904
    46   6 C        2.922     0.042    27.049     8.529
    47   6 C        2.918    -0.041    29.030     8.835
    48   6 C        2.923    -0.028    28.701     8.786
    49   6 C        2.988    -0.005    28.130     8.700
    50   6 C        2.962     0.082    26.171     8.391
    51   7 N        1.848    -0.243    27.195     7.729
    52   6 C        2.966     0.080    26.216     8.398
    53   6 C        2.923    -0.048    29.189     8.860
    54   6 C        2.976     0.010    27.794     8.648
    55   6 C        2.979     0.014    27.702     8.634
    56   6 C        2.925    -0.033    28.831     8.806
    57   6 C        2.919    -0.029    28.722     8.788
    58   6 C        2.920    -0.030    28.743     8.792
    59   6 C        2.919    -0.029    28.715     8.787
    60   6 C        2.924    -0.030    28.744     8.792
    61   6 C        2.924    -0.030    28.744     8.792
    62   6 C        2.919    -0.029    28.715     8.787
    63   1 H        0.926     0.032     2.560     2.502
    64   1 H        0.926     0.032     2.554     2.499
    65   1 H        0.926     0.033     2.548     2.496
    66   1 H        0.926     0.052     2.300     2.372
    67   1 H        0.926     0.065     2.141     2.288
    68   1 H        0.926     0.045     2.388     2.417
    69   1 H        0.926     0.036     2.499     2.472
    70   1 H        0.926     0.036     2.500     2.472
    71   1 H        0.926     0.038     2.475     2.460
    72   1 H        0.926     0.050     2.316     2.380
    73   1 H        0.926     0.051     2.313     2.378
    74   1 H        0.926     0.038     2.472     2.459
    75   1 H        0.926     0.035     2.516     2.481
    76   1 H        0.926     0.035     2.512     2.478
    77   1 H        0.926     0.045     2.388     2.417
    78   1 H        0.926     0.045     2.389     2.417
    79   1 H        0.926     0.035     2.512     2.478
    80   1 H        0.926     0.035     2.514     2.479
    81   1 H        0.926     0.038     2.472     2.459
    82   1 H        0.926     0.051     2.313     2.378
    83   1 H        0.926     0.050     2.316     2.380
    84   1 H        0.926     0.038     2.475     2.460
    85   1 H        0.926     0.036     2.500     2.473
    86   1 H        0.926     0.036     2.499     2.472
    87   1 H        0.926     0.045     2.387     2.416
    88   1 H        0.926     0.065     2.141     2.288
    89   1 H        0.926     0.052     2.300     2.372
    90   1 H        0.926     0.033     2.548     2.496
    91   1 H        0.926     0.032     2.554     2.499
    92   1 H        0.926     0.032     2.560     2.502
    93   1 H        0.926     0.031     2.565     2.505
    94   1 H        0.926     0.030     2.585     2.514
    95   1 H        0.926     0.030     2.586     2.515
    96   1 H        0.926     0.031     2.565     2.505

molecular dipole:
                 x           y           z       tot (Debye)
 q only:        1.033       0.000       0.002
   full:        1.160       0.001      -0.003       2.948

 projected vibrational frequencies (cm⁻¹)
eigval :       -0.00    -0.00     0.00     0.00     0.00     0.00
eigval :        7.34    12.16    13.61    14.00    16.15    21.87
eigval :       33.65    37.80    39.22    42.46    44.53    56.18
eigval :       59.72    61.00    83.33    83.67    91.67    96.57
eigval :      105.72   107.34   118.10   124.40   137.69   148.30
eigval :      155.25   192.30   200.31   210.99   217.60   235.10
eigval :      239.19   245.03   247.93   249.46   252.63   263.18
eigval :      271.86   287.67   292.38   300.88   305.10   324.15
eigval :      357.27   369.51   372.98   374.87   375.47   379.41
eigval :      390.64   391.68   399.32   417.41   420.46   422.82
eigval :      430.68   432.20   439.76   442.39   445.68   449.75
eigval :      456.56   467.32   476.03   490.85   505.46   509.68
eigval :      510.19   517.80   519.85   525.16   526.80   531.34
eigval :      561.95   570.88   571.40   577.53   580.97   584.77
eigval :      591.56   591.70   601.65   618.15   619.95   625.19
eigval :      644.19   646.70   654.96   659.92   661.48   661.87
eigval :      662.23   667.41   671.45   678.35   693.11   694.29
eigval :      697.25   708.85   728.25   734.99   742.99   763.36
eigval :      763.47   767.02   768.71   776.03   779.38   779.43
eigval :      779.70   804.00   824.26   834.94   836.56   855.04
eigval :      855.50   855.90   857.01   860.80   863.51   868.23
eigval :      868.50   876.54   877.41   878.67   882.88   888.70
eigval :      897.87   898.30   899.08   902.73   904.23   904.31
eigval :      907.27   912.85   914.84   914.91   917.34   917.38
eigval :      918.40   927.22   930.11   930.20   932.11   932.22
eigval :      932.32   932.64   971.92   976.73  1004.15  1008.48
eigval :     1049.67  1064.72  1068.54  1084.77  1087.20  1090.88
eigval :     1091.11  1091.80  1092.82  1108.60  1109.03  1120.39
eigval :     1121.04  1122.18  1125.33  1144.48  1146.42  1169.83
eigval :     1170.64  1174.41  1176.25  1182.14  1182.14  1184.35
eigval :     1187.80  1197.12  1198.81  1200.38  1201.67  1203.09
eigval :     1207.23  1213.31  1224.95  1231.02  1235.80  1244.13
eigval :     1244.39  1254.11  1262.15  1262.49  1270.47  1275.36
eigval :     1279.47  1280.54  1283.99  1286.19  1309.57  1309.73
eigval :     1311.54  1315.03  1317.30  1319.41  1322.79  1328.84
eigval :     1338.25  1343.19  1350.57  1355.58  1360.14  1382.82
eigval :     1402.49  1419.14  1422.69  1423.32  1425.29  1427.63
eigval :     1434.64  1437.39  1443.81  1445.15  1454.73  1471.62
eigval :     1475.63  1484.43  1485.87  1485.99  1488.90  1496.20
eigval :     1503.93  1503.96  1522.89  1543.80  1552.31  1567.38
eigval :     1567.51  1577.77  1579.85  1580.57  1580.99  1582.09
eigval :     1586.16  1590.40  1591.30  1592.59  1599.26  1601.52
eigval :     1603.29  1603.32  3072.08  3072.11  3075.51  3075.99
eigval :     3081.72  3082.08  3087.61  3088.04  3089.01  3089.15
eigval :     3089.19  3090.28  3091.22  3091.30  3092.51  3092.87
eigval :     3094.29  3094.53  3099.12  3099.13  3099.20  3099.89
eigval :     3101.15  3106.13  3106.49  3106.91  3107.39  3112.02
eigval :     3112.06  3112.62  3112.98  3113.05  3113.56  3113.74

   temp. (K)  partition function   enthalpy   heat capacity  entropy
                                   cal/mol     cal/K/mol   cal/K/mol   J/K/mol
 298.15  VIB  0.236E+23            27930.786    177.393    173.828
         ROT  0.220E+09              888.752      2.981     41.155
         INT  0.519E+31            28819.538    180.374    214.982
         TR   0.217E+29             1481.254      4.968     45.876
         TOT                       30300.7922   185.3422   260.8586  1091.4323

       T/K    H(0)-H(T)+PV         H(T)/Eh          T*S/Eh         G(T)/Eh
   ------------------------------------------------------------------------
    298.15    0.482874E-01    0.770108E+00    0.123942E+00    0.646166E+00
   ------------------------------------------------------------------------

         :::::::::::::::::::::::::::::::::::::::::::::::::::::
         ::                  THERMODYNAMIC                  ::
         :::::::::::::::::::::::::::::::::::::::::::::::::::::
         :: total free energy        -156.526153800157 Eh   ::
         ::.................................................::
         :: total energy             -157.172319481086 Eh   ::
         :: zero point energy           0.721820625891 Eh   ::
         :: G(RRHO) w/o ZPVE           -0.075654944962 Eh   ::
         :: G(RRHO) contrib.            0.646165680929 Eh   ::
         :::::::::::::::::::::::::::::::::::::::::::::::::::::

           -------------------------------------------------
          | TOTAL ENERGY             -157.172319481086 Eh   |
          | TOTAL ENTHALPY           -156.402211469202 Eh   |
          | TOTAL FREE ENERGY        -156.526153800157 Eh   |
          | GRADIENT NORM               0.000054023193 Eh/α |
          | HOMO-LUMO GAP               1.083272942033 eV   |
           -------------------------------------------------

 * finished run on 2025/08/22 at 17:27:30.461
