   * xtb version 6.7.1 (edcfbbe) compiled by 'albert@albert-system' on 2024-07-22

   ID    Z sym.   atoms
    1    6 C      1-7, 9-13, 15-20, 22-32, 34-39, 41-50, 52-62
    2    7 N      8, 14, 33, 51
    3    8 O      21, 40
    4    1 H      63-96

          program call               : xtb data2507/gas/DBBPZ-DPXZ/DBBPZ-DPXZ.xyz --gfn 2 --ohess vtight --parallel 40 --molden --ceasefiles --namespace data2507/gas/DBBPZ-DPXZ/DBBPZ-DPXZ_gas_S0_preOpt
          :  Hamiltonian                  GFN2-xTB          :
 * total energy  :  -157.1379985 Eh     change       -0.2743406E-08 Eh
 * total energy  :  -157.1570825 Eh     change       -0.1908402E-01 Eh
 * total energy  :  -157.1633215 Eh     change       -0.6239028E-02 Eh
 * total energy  :  -157.1653358 Eh     change       -0.2014274E-02 Eh
 * total energy  :  -157.1668990 Eh     change       -0.1563244E-02 Eh
 * total energy  :  -157.1676168 Eh     change       -0.7177433E-03 Eh
 * total energy  :  -157.1679887 Eh     change       -0.3718806E-03 Eh
 * total energy  :  -157.1682483 Eh     change       -0.2595861E-03 Eh
 * total energy  :  -157.1684745 Eh     change       -0.2262507E-03 Eh
 * total energy  :  -157.1687615 Eh     change       -0.2869632E-03 Eh
 * total energy  :  -157.1715934 Eh     change       -0.1246826E-05 Eh
 * total energy  :  -157.1715944 Eh     change       -0.1010574E-05 Eh
 * total energy  :  -157.1715952 Eh     change       -0.7816482E-06 Eh
 * total energy  :  -157.1715957 Eh     change       -0.5883190E-06 Eh
 * total energy  :  -157.1715963 Eh     change       -0.5389609E-06 Eh
 * total energy  :  -157.1715968 Eh     change       -0.5125467E-06 Eh
 * total energy  :  -157.1715973 Eh     change       -0.5075650E-06 Eh
 * total energy  :  -157.1715978 Eh     change       -0.4693796E-06 Eh
 * total energy  :  -157.1715978 Eh     change       -0.3506074E-08 Eh
   *** GEOMETRY OPTIMIZATION CONVERGED AFTER 122 ITERATIONS ***

 final structure:
================
96
 xtb: 6.7.1 (edcfbbe)
C            9.59176684735221        2.91257209512208        0.22520351690898
C            8.63298084477569        3.24035298811941       -0.71843675773565
C            7.45102360338145        2.52595176978799       -0.78407175290560
C            7.21775000382127        1.46512806106735        0.08656418500747
C            5.95314383787054        0.71295093155662        0.01632064492229
C            4.76414334670621        1.39727881247882        0.01286480176138
C            3.53342152302024        0.71336020224000        0.00237664285870
N            2.38302419183856        1.40035513657086        0.00005873130491
C            1.25482305218983        0.71389550552235        0.00090727551864
C            0.00009120586979        1.42974448915144       -0.01089489947054
C            0.00815570814418        2.82823734415760       -0.02771251054373
C           -1.16388925736887        3.54209165294022       -0.04913569609193
C           -2.38301250044125        2.85850968962965       -0.06826690006396
N           -3.59533769545673        3.57785347465422       -0.09528284287154
C           -4.50857744033272        3.47756432173483        0.95798433669533
C           -4.27292365636263        2.68777918614504        2.07645993176756
C           -5.20162985901767        2.61359037461484        3.10358557791450
C           -6.37575523135580        3.33524311360259        3.03675662630463
C           -6.61218310291697        4.15352520362540        1.94205490828499
C           -5.68878917596051        4.23248219546565        0.91634679876281
O           -5.98032695328393        5.09011255922817       -0.11497944384620
C           -5.07240903964781        5.17904919875892       -1.14049795461766
C           -5.38439684231525        6.03426766310857       -2.18070310864097
C           -4.53236766046003        6.15368094910965       -3.26879280356195
C           -3.37937734748840        5.39697662090912       -3.31518907755874
C           -3.06092068260661        4.53900114823247       -2.27342394569531
C           -3.88604318712795        4.43371606459819       -1.16070799685041
C           -2.40243024257177        1.47394837399361       -0.05626260738988
C           -1.22207369569786        0.72829314665478       -0.01251295932467
C           -1.22219995280094       -0.72776110466055        0.01775856629777
C           -2.40271746919949       -1.47322312581991        0.06021008587033
C           -2.38361963471529       -2.85781755670555        0.07085000270306
N           -3.59613334900742       -3.57686332074783        0.09528752985569
C           -4.50823694353596       -3.47422583965412       -0.95879936753446
C           -4.27151007563320       -2.68184186832483       -2.07522007287573
C           -5.19920192670273       -2.60521487400453       -3.10307750659284
C           -6.37339436554995       -3.32701810683795       -3.03912501944998
C           -6.61080657253003       -4.14798368268798       -1.94665987575794
C           -5.68840652022328       -4.22937315804295       -0.92023638623431
O           -5.98087284836400       -5.08966675985402        0.10859067774320
C           -5.07392522381041       -5.18120174901922        1.13472407587370
C           -5.38672024376319       -6.03938801034641        2.17224421202271
C           -4.53580864083996       -6.16149707201211        3.26090017192612
C           -3.38319256183786       -5.40442779088976        3.31064295695859
C           -3.06391392884953       -4.54352038835020        2.27155456446268
C           -3.88779317674899       -4.43559162038589        1.15816466875140
C           -1.16457976040335       -3.54159024476628        0.05233749235421
C            0.00761061903007       -2.82793296846379        0.03261936157662
C           -0.00015771128274       -1.42942703569871        0.01659656178491
C            1.25470133004220       -0.71380705275758        0.00537605046306
N            2.38279375138096       -1.40045433913229        0.00618493860929
C            3.53330336406539       -0.71364853793672        0.00352876445955
C            4.76391362571826       -1.39775983710230       -0.00777169073989
C            5.95301383791267       -0.71361159588677       -0.01238531207211
C            7.21741883735696       -1.46599063341831       -0.08413196760092
C            7.45164584262478       -2.52683575297192        0.78621486037519
C            8.63336368397180       -3.24148880902868        0.71898648395009
C            9.59094539817952       -2.91392125698292       -0.22594981503669
C            9.35883171322531       -1.87062232111792       -1.10687256159160
C            8.18213481251099       -1.14933121893073       -1.03705394326307
C            8.18368153267412        1.14825952984182        1.03818209030740
C            9.36061485054039        1.86931772208118        1.10643222286619
H           10.51519463653153        3.47023346012560        0.27569641330032
H            8.80693660443059        4.05508914676581       -1.40621479723476
H            6.70747167148949        2.77455926325359       -1.52791218113470
H            4.74568990852150        2.47625688415649        0.04464608249497
H            0.96514013459925        3.32521641817231       -0.01461512855734
H           -1.15786768231640        4.62172676829550       -0.04836947269506
H           -3.35099157997865        2.13299856057577        2.15361914598745
H           -4.99264737897069        1.98739810518743        3.95733050590359
H           -7.10337150539851        3.27787893988680        3.83074154497763
H           -7.50916570736301        4.74719581234765        1.86714733216813
H           -6.30330254545578        6.59533442045431       -2.12187207505466
H           -4.78214775607128        6.82641197831624       -4.07392154019058
H           -2.71634479092221        5.46288601633715       -4.16409719113684
H           -2.16481143595828        3.94115830087639       -2.33075642726852
H           -3.36349113637607        0.98574792071843       -0.09007469000082
H           -3.36368962109587       -0.98483365916124        0.09376120234981
H           -3.34951623898309       -2.12688434268116       -2.15026380991966
H           -4.98938665342155       -1.97694981366855       -3.95509422120836
H           -7.10025756306116       -3.26772438522842       -3.83365730672808
H           -7.50779170555117       -4.74193894110897       -1.87408051204809
H           -6.30538726572338       -6.60057716591257        2.11090206465850
H           -4.78619735809697       -6.83653320555134        4.06390644661891
H           -2.72107644484969       -5.47238329326656        4.16010307433026
H           -2.16811788253173       -3.94546987184740        2.33152899566580
H           -1.15871257777329       -4.62122521019204        0.05052584593265
H            0.96450785795820       -3.32509267014207        0.01998875921385
H            4.74527309590237       -2.47673520161443       -0.03954565631611
H            6.70902724681104       -2.77530055765231        1.53103528899179
H            8.80810772404030       -4.05621391042390        1.40657783697277
H           10.51420408658149       -3.47175174617625       -0.27765726203108
H           10.09860452532507       -1.61706984528000       -1.85190178825259
H            8.00088809673930       -0.34356936557034       -1.73308769495259
H            8.00321939990675        0.34251605240698        1.73444045016234
H           10.10134595305037        1.61559524545762        1.85045022368688

          :  Hamiltonian                  GFN2-xTB          :
         :: gradient norm              0.000038315402 Eh/a0 ::
         :: HOMO-LUMO gap              1.058486893479 eV    ::
         :: SCC energy              -159.988555582795 Eh    ::
         :: -> dispersion             -0.141173552620 Eh    ::
         :: repulsion energy           2.816957808901 Eh    ::

    * Orbital Energies and Occupations

         #    Occupation            Energy/Eh            Energy/eV
      -------------------------------------------------------------
         1        2.0000           -0.7262692             -19.7628
       ...           ...                  ...                  ...
       133        2.0000           -0.4116644             -11.2020
       134        2.0000           -0.4110489             -11.1852
       135        2.0000           -0.4085838             -11.1181
       136        2.0000           -0.4079491             -11.1009
       137        2.0000           -0.4032520             -10.9730
       138        2.0000           -0.4019579             -10.9378
       139        2.0000           -0.3910850             -10.6420
       140        2.0000           -0.3899401             -10.6108
       141        2.0000           -0.3878913             -10.5551
       142        2.0000           -0.3863433             -10.5129
       143        2.0000           -0.3502988              -9.5321
       144        2.0000           -0.3418718              -9.3028
       145        2.0000           -0.3416752              -9.2975 (HOMO)
       146                         -0.3027765              -8.2390 (LUMO)
       147                         -0.2722820              -7.4092
       148                         -0.2619989              -7.1294
       149                         -0.2436414              -6.6298
       150                         -0.2369774              -6.4485
       151                         -0.2368689              -6.4455
       152                         -0.2363541              -6.4315
       153                         -0.2294202              -6.2428
       154                         -0.2283110              -6.2127
       155                         -0.2281820              -6.2091
       156                         -0.2247862              -6.1167
       ...                                ...                  ...
       282                          0.7147181              19.4485
      -------------------------------------------------------------
                  HL-Gap            0.0388987 Eh            1.0585 eV

     #   Z          covCN         q      C6AA      α(0)
     1   6 C        2.920    -0.030    28.741     8.792
     2   6 C        2.919    -0.029    28.721     8.788
     3   6 C        2.925    -0.033    28.830     8.805
     4   6 C        2.979     0.014    27.703     8.634
     5   6 C        2.976     0.010    27.790     8.647
     6   6 C        2.923    -0.048    29.187     8.860
     7   6 C        2.966     0.080    26.213     8.398
     8   7 N        1.848    -0.243    27.185     7.727
     9   6 C        2.963     0.082    26.171     8.391
    10   6 C        2.988    -0.004    28.120     8.699
    11   6 C        2.923    -0.028    28.698     8.785
    12   6 C        2.919    -0.041    29.013     8.833
    13   6 C        2.919     0.067    26.501     8.442
    14   7 N        2.752    -0.071    22.609     7.062
    15   6 C        2.921     0.042    27.051     8.529
    16   6 C        2.924    -0.060    29.502     8.907
    17   6 C        2.919    -0.039    28.963     8.825
    18   6 C        2.919    -0.040    28.997     8.830
    19   6 C        2.920    -0.056    29.395     8.891
    20   6 C        2.884     0.125    25.263     8.240
    21   8 O        1.709    -0.255    18.225     5.764
    22   6 C        2.884     0.125    25.263     8.240
    23   6 C        2.920    -0.056    29.398     8.891
    24   6 C        2.919    -0.040    28.998     8.831
    25   6 C        2.919    -0.039    28.962     8.825
    26   6 C        2.924    -0.060    29.484     8.905
    27   6 C        2.922     0.043    27.046     8.528
    28   6 C        2.925    -0.047    29.178     8.858
    29   6 C        2.976     0.007    27.863     8.659
    30   6 C        2.976     0.007    27.864     8.659
    31   6 C        2.925    -0.047    29.179     8.858
    32   6 C        2.919     0.067    26.501     8.442
    33   7 N        2.752    -0.071    22.609     7.062
    34   6 C        2.921     0.042    27.051     8.529
    35   6 C        2.924    -0.060    29.502     8.907
    36   6 C        2.919    -0.039    28.963     8.825
    37   6 C        2.919    -0.040    28.997     8.830
    38   6 C        2.920    -0.056    29.395     8.891
    39   6 C        2.884     0.125    25.263     8.240
    40   8 O        1.709    -0.255    18.225     5.764
    41   6 C        2.884     0.125    25.263     8.240
    42   6 C        2.920    -0.056    29.398     8.891
    43   6 C        2.919    -0.040    28.998     8.831
    44   6 C        2.919    -0.039    28.962     8.825
    45   6 C        2.924    -0.060    29.484     8.905
    46   6 C        2.922     0.043    27.046     8.528
    47   6 C        2.919    -0.041    29.013     8.833
    48   6 C        2.923    -0.028    28.698     8.785
    49   6 C        2.988    -0.004    28.121     8.699
    50   6 C        2.963     0.082    26.171     8.391
    51   7 N        1.848    -0.243    27.185     7.727
    52   6 C        2.966     0.080    26.212     8.398
    53   6 C        2.923    -0.048    29.187     8.860
    54   6 C        2.976     0.010    27.790     8.647
    55   6 C        2.979     0.014    27.703     8.634
    56   6 C        2.925    -0.033    28.830     8.805
    57   6 C        2.919    -0.029    28.721     8.788
    58   6 C        2.920    -0.030    28.741     8.792
    59   6 C        2.919    -0.029    28.714     8.787
    60   6 C        2.924    -0.030    28.743     8.792
    61   6 C        2.924    -0.030    28.743     8.792
    62   6 C        2.919    -0.029    28.714     8.787
    63   1 H        0.926     0.032     2.558     2.501
    64   1 H        0.926     0.032     2.552     2.498
    65   1 H        0.926     0.033     2.548     2.496
    66   1 H        0.926     0.052     2.298     2.370
    67   1 H        0.926     0.066     2.135     2.285
    68   1 H        0.926     0.045     2.387     2.416
    69   1 H        0.926     0.034     2.523     2.484
    70   1 H        0.926     0.036     2.509     2.477
    71   1 H        0.926     0.038     2.476     2.461
    72   1 H        0.926     0.050     2.315     2.379
    73   1 H        0.926     0.050     2.317     2.381
    74   1 H        0.926     0.038     2.478     2.461
    75   1 H        0.926     0.036     2.505     2.475
    76   1 H        0.926     0.035     2.515     2.480
    77   1 H        0.926     0.045     2.384     2.415
    78   1 H        0.926     0.045     2.384     2.415
    79   1 H        0.926     0.035     2.523     2.484
    80   1 H        0.926     0.036     2.509     2.477
    81   1 H        0.926     0.038     2.476     2.461
    82   1 H        0.926     0.050     2.315     2.379
    83   1 H        0.926     0.050     2.317     2.380
    84   1 H        0.926     0.038     2.478     2.461
    85   1 H        0.926     0.036     2.504     2.475
    86   1 H        0.926     0.035     2.515     2.480
    87   1 H        0.926     0.045     2.387     2.416
    88   1 H        0.926     0.066     2.135     2.285
    89   1 H        0.926     0.052     2.298     2.370
    90   1 H        0.926     0.033     2.548     2.496
    91   1 H        0.926     0.032     2.552     2.498
    92   1 H        0.926     0.032     2.558     2.501
    93   1 H        0.926     0.032     2.563     2.504
    94   1 H        0.926     0.030     2.585     2.514
    95   1 H        0.926     0.030     2.585     2.514
    96   1 H        0.926     0.032     2.563     2.504

molecular dipole:
                 x           y           z       tot (Debye)
 q only:        1.136      -0.001       0.000
   full:        1.270      -0.001       0.000       3.229

 projected vibrational frequencies (cm⁻¹)
eigval :       -0.00    -0.00    -0.00    -0.00     0.00     0.00
eigval :        7.81    11.55    13.48    13.51    16.19    22.20
eigval :       32.09    37.56    39.24    40.73    44.33    55.29
eigval :       59.49    61.14    82.71    83.80    90.17    97.71
eigval :      104.13   108.34   119.07   124.62   128.82   147.78
eigval :      152.88   192.54   199.19   210.64   211.03   236.49
eigval :      239.20   241.60   248.36   249.12   253.01   264.71
eigval :      269.32   285.19   293.24   299.95   304.27   321.01
eigval :      359.78   367.98   372.41   374.18   375.21   379.07
eigval :      388.19   391.84   400.09   418.65   418.99   422.57
eigval :      429.53   430.40   438.31   442.45   447.01   452.58
eigval :      456.07   461.76   474.30   490.85   507.12   510.10
eigval :      510.12   516.30   519.52   523.01   528.51   530.40
eigval :      562.23   568.54   571.32   580.16   581.20   584.82
eigval :      591.63   591.68   599.49   618.61   619.86   626.04
eigval :      644.18   647.21   655.12   659.80   661.11   661.46
eigval :      661.82   667.24   671.53   678.39   693.53   694.46
eigval :      697.41   708.72   728.22   735.34   743.08   763.32
eigval :      763.49   766.92   768.95   778.52   778.88   779.04
eigval :      779.39   803.92   824.13   833.49   835.71   855.03
eigval :      855.26   855.30   857.00   861.96   863.25   866.84
eigval :      867.11   875.76   876.68   878.65   882.88   886.29
eigval :      897.26   897.58   898.90   899.95   904.26   904.40
eigval :      907.42   914.58   914.60   915.50   915.81   917.63
eigval :      918.39   927.24   930.10   930.18   930.68   930.73
eigval :      932.24   932.65   971.92   976.74  1003.61  1008.51
eigval :     1049.02  1064.64  1068.46  1084.76  1087.18  1090.60
eigval :     1090.64  1091.45  1092.08  1108.61  1108.62  1120.02
eigval :     1121.03  1122.17  1124.59  1144.67  1146.22  1170.35
eigval :     1170.41  1175.75  1175.80  1182.12  1182.13  1185.54
eigval :     1186.03  1197.04  1198.68  1200.35  1201.78  1202.04
eigval :     1206.56  1212.80  1224.81  1230.55  1234.92  1243.84
eigval :     1244.14  1254.11  1262.27  1262.32  1268.56  1275.42
eigval :     1278.16  1280.64  1283.78  1286.15  1309.25  1310.80
eigval :     1311.23  1314.81  1317.19  1319.41  1321.36  1330.43
eigval :     1338.72  1343.41  1351.05  1356.22  1360.25  1382.71
eigval :     1401.78  1419.44  1423.07  1423.65  1425.34  1427.60
eigval :     1434.42  1437.45  1444.04  1444.99  1453.97  1470.97
eigval :     1475.48  1484.25  1485.82  1487.89  1489.02  1496.67
eigval :     1504.34  1504.58  1522.95  1544.10  1552.23  1567.32
eigval :     1567.43  1577.86  1579.87  1580.67  1580.81  1582.10
eigval :     1586.38  1590.52  1591.44  1592.65  1599.26  1601.52
eigval :     1603.34  1603.46  3072.18  3072.20  3075.63  3076.12
eigval :     3081.81  3082.17  3087.71  3088.12  3088.57  3088.58
eigval :     3088.76  3088.78  3091.12  3091.19  3092.62  3092.98
eigval :     3094.41  3094.64  3098.38  3098.64  3098.68  3098.78
eigval :     3099.90  3105.17  3105.38  3105.90  3105.96  3110.74
eigval :     3112.32  3112.37  3112.88  3112.90  3113.40  3113.52

   temp. (K)  partition function   enthalpy   heat capacity  entropy
                                   cal/mol     cal/K/mol   cal/K/mol   J/K/mol
 298.15  VIB  0.297E+23            27974.504    177.391    174.201
         ROT  0.111E+09              888.752      2.981     39.792
         INT  0.330E+31            28863.257    180.371    213.993
         TR   0.217E+29             1481.254      4.968     45.876
         TOT                       30344.5107   185.3396   259.8696  1087.2943

       T/K    H(0)-H(T)+PV         H(T)/Eh          T*S/Eh         G(T)/Eh
   ------------------------------------------------------------------------
    298.15    0.483571E-01    0.769997E+00    0.123472E+00    0.646525E+00
   ------------------------------------------------------------------------

         :::::::::::::::::::::::::::::::::::::::::::::::::::::
         ::                  THERMODYNAMIC                  ::
         :::::::::::::::::::::::::::::::::::::::::::::::::::::
         :: total free energy        -156.525072754499 Eh   ::
         ::.................................................::
         :: total energy             -157.171597773889 Eh   ::
         :: zero point energy           0.721640380475 Eh   ::
         :: G(RRHO) w/o ZPVE           -0.075115361084 Eh   ::
         :: G(RRHO) contrib.            0.646525019391 Eh   ::
         :::::::::::::::::::::::::::::::::::::::::::::::::::::

           -------------------------------------------------
          | TOTAL ENERGY             -157.171597773889 Eh   |
          | TOTAL ENTHALPY           -156.401600337557 Eh   |
          | TOTAL FREE ENERGY        -156.525072754499 Eh   |
          | GRADIENT NORM               0.000038323342 Eh/α |
          | HOMO-LUMO GAP               1.058486241470 eV   |
           -------------------------------------------------

 * finished run on 2025/08/22 at 17:21:09.493
