   * xtb version 6.7.1 (edcfbbe) compiled by 'albert@albert-system' on 2024-07-22

   ID    Z sym.   atoms
    1    6 C      1-4, 6, 8-10, 12-24, 26-39
    2    7 N      5, 11, 25
    3    8 O      7, 41, 42
    4   16 S      40
    5    1 H      43-69

          program call               : xtb data2507/gas/DiCz-Sac/DiCz-Sac_gas_S0_crest.xyz --gfn 2 --ohess vtight --parallel 40 --molden --ceasefiles --namespace data2507/gas/DiCz-Sac/DiCz-Sac_gas_S0_finalOpt
          :  Hamiltonian                  GFN2-xTB          :
 * total energy  :  -113.0529773 Eh     change       -0.4553542E-08 Eh
 * total energy  :  -113.0529780 Eh     change       -0.6486012E-06 Eh
 * total energy  :  -113.0529786 Eh     change       -0.6542042E-06 Eh
 * total energy  :  -113.0529793 Eh     change       -0.6747996E-06 Eh
 * total energy  :  -113.0529796 Eh     change       -0.2293489E-06 Eh
 * total energy  :  -113.0529799 Eh     change       -0.3516595E-06 Eh
 * total energy  :  -113.0529803 Eh     change       -0.4149602E-06 Eh
 * total energy  :  -113.0529806 Eh     change       -0.2412014E-06 Eh
 * total energy  :  -113.0529807 Eh     change       -0.1675858E-06 Eh
 * total energy  :  -113.0529809 Eh     change       -0.1868740E-06 Eh
 * total energy  :  -113.0529811 Eh     change       -0.1781440E-06 Eh
 * total energy  :  -113.0529812 Eh     change       -0.1271064E-06 Eh
 * total energy  :  -113.0529813 Eh     change       -0.9617921E-07 Eh
   *** GEOMETRY OPTIMIZATION CONVERGED AFTER 13 ITERATIONS ***

 final structure:
================
69
 xtb: 6.7.1 (edcfbbe)
C            6.51022136304181        1.68965856802471       -0.64723347140772
C            6.15941447558715        0.50255212591939        0.25370840240436
C            6.50460435300270        0.79987353252039        1.71563131256028
C            6.91343933734956       -0.74184822339421       -0.20909736563915
N            4.71063013907640        0.24577302292575        0.15194004772727
C            3.77246421709154        1.16363433069587        0.51801821527460
O            3.98864091165998        2.26391872696357        0.97838464799764
C            2.41112894479376        0.62523848142744        0.26909750241318
C            1.22789619319205        1.27148607468662        0.58484963983805
C            0.01333747319488        0.64791572872101        0.30959773244645
N           -1.17967708388411        1.27254037771581        0.66882739317081
C           -2.24615227245641        0.65801294390622        1.30655442839858
C           -2.27676763192276       -0.54251696949870        1.99763775676020
C           -3.48132299043863       -0.93543642899641        2.54972864610256
C           -4.61885338848806       -0.14032671995417        2.44518827978730
C           -4.57334189735144        1.08923319101765        1.81728146444790
C           -3.37564969641976        1.50101956934815        1.25059037969252
C           -2.96244282746114        2.69316675271223        0.56126645826110
C           -3.62272600845958        3.85745660137236        0.19472731206346
C           -2.92168253368857        4.82575293970072       -0.49692612461984
C           -1.58344558328237        4.63922001808371       -0.83143742150419
C           -0.90561231100913        3.48623543081240       -0.47965254384391
C           -1.60155892737724        2.51971435961490        0.22844865593008
C           -0.00238478687281       -0.61808880693218       -0.32826819364389
N           -1.20536143618067       -1.23226914430985       -0.66384005181696
C           -1.62508250329021       -2.47892224261912       -0.21793462700800
C           -0.92229567948871       -3.44827669149833        0.47959000212571
C           -1.60003747810274       -4.59806825728284        0.84254967828166
C           -2.94427049701464       -4.77834444938675        0.52969538405612
C           -3.65218118054259       -3.80619669169414       -0.14964024977613
C           -2.99235907112001       -2.64518682595745       -0.52700789151663
C           -3.41224800959373       -1.44994688283506       -1.20737653874243
C           -4.61781874818216       -1.03266971333137       -1.75276611393183
C           -4.66894417378564        0.19789298156197       -2.37848357836839
C           -3.53008158609719        0.98820591730816       -2.50194339295397
C           -2.31765515448799        0.58949206707732       -1.97135488529529
C           -2.28048778637961       -0.61173607097690       -1.28211254823907
C            1.20293757331270       -1.26198127856254       -0.62167337041081
C            2.38181548100977       -0.62998540208498       -0.31276354298783
S            4.05867338426091       -1.17240604413344       -0.54031763146330
O            4.40759456654854       -1.24669215033810       -1.92451063650189
O            4.34817896311475       -2.30323053330880        0.28430858085412
H            5.98583574318053        2.58180842709643       -0.31614708472653
H            6.22666036264510        1.47137793581672       -1.67455315450519
H            7.57988361231561        1.87621676242699       -0.60837508247817
H            5.98491445539751        1.69144110276951        2.05429943296903
H            6.21478581295498       -0.03908535587838        2.34431089930846
H            7.57510068282485        0.95875709713538        1.81179245634788
H            7.98272094183726       -0.56234565341684       -0.12622303204429
H            6.67561022600622       -0.97357571706089       -1.24350556012051
H            6.65194973006424       -1.59975221835796        0.40416333521889
H            1.25393951952401        2.23153734880251        1.07699966231624
H           -1.39189325276839       -1.15017595661675        2.11105526993696
H           -3.53658555238557       -1.87722412352314        3.07450024201426
H           -5.54400081046079       -0.48444382360239        2.88232664297325
H           -5.44678421510209        1.72121372744158        1.76961379003718
H           -4.66361824848894        3.99591735756603        0.44368730301296
H           -3.41594963926232        5.73993160677934       -0.78948440549856
H           -1.06242640189501        5.40964504934691       -1.37985328052174
H            0.12820220454295        3.34712355398001       -0.75823320613129
H            0.11612509237353       -3.31400919029985        0.74401779796909
H           -1.07370395494911       -5.37026633468377        1.38321273325779
H           -3.43804036882877       -5.69011601237269        0.83033726869895
H           -4.69796952264272       -3.93899566807404       -0.38031750165618
H           -5.49288755043041       -1.66108658861512       -1.69070688466108
H           -5.60010001679068        0.54633637007810       -2.79906258350991
H           -3.59037217078814        1.93081815315612       -3.02458410693739
H           -1.43239298501334        1.19339870582701       -2.09961516053755
H            1.20058718248152       -2.22144527404056       -1.11369931345553

          :  Hamiltonian                  GFN2-xTB          :
         :: gradient norm              0.000030063878 Eh/a0 ::
         :: HOMO-LUMO gap              2.166076912482 eV    ::
         :: SCC energy              -114.890805934871 Eh    ::
         :: -> dispersion             -0.111689493518 Eh    ::
         :: repulsion energy           1.837824616793 Eh    ::

    * Orbital Energies and Occupations

         #    Occupation            Energy/Eh            Energy/eV
      -------------------------------------------------------------
         1        2.0000           -0.7960638             -21.6620
       ...           ...                  ...                  ...
        91        2.0000           -0.4305078             -11.7147
        92        2.0000           -0.4293761             -11.6839
        93        2.0000           -0.4291211             -11.6770
        94        2.0000           -0.4281048             -11.6493
        95        2.0000           -0.4275273             -11.6336
        96        2.0000           -0.4185747             -11.3900
        97        2.0000           -0.4154643             -11.3054
        98        2.0000           -0.4140319             -11.2664
        99        2.0000           -0.4112378             -11.1904
       100        2.0000           -0.3925149             -10.6809
       101        2.0000           -0.3860384             -10.5046
       102        2.0000           -0.3803362             -10.3495
       103        2.0000           -0.3763070             -10.2398 (HOMO)
       104                         -0.2967052              -8.0738 (LUMO)
       105                         -0.2759175              -7.5081
       106                         -0.2555554              -6.9540
       107                         -0.2540134              -6.9121
       108                         -0.2366750              -6.4403
       109                         -0.2276866              -6.1957
       110                         -0.2226606              -6.0589
       111                         -0.2063217              -5.6143
       112                         -0.1968176              -5.3557
       113                         -0.1963789              -5.3437
       114                         -0.1951407              -5.3100
       ...                                ...                  ...
       200                          1.2498884              34.0112
      -------------------------------------------------------------
                  HL-Gap            0.0796018 Eh            2.1661 eV

     #   Z          covCN         q      C6AA      α(0)
     1   6 C        3.759    -0.120    22.850     6.815
     2   6 C        3.857     0.101    18.888     6.181
     3   6 C        3.759    -0.120    22.852     6.815
     4   6 C        3.767    -0.135    23.126     6.854
     5   7 N        2.755    -0.259    26.715     7.677
     6   6 C        2.920     0.276    22.347     7.752
     7   8 O        0.857    -0.401    21.699     6.245
     8   6 C        3.156    -0.033    28.505     8.730
     9   6 C        2.921    -0.030    28.741     8.791
    10   6 C        2.912     0.061    26.631     8.462
    11   7 N        2.800    -0.041    22.037     6.972
    12   6 C        3.073     0.047    26.864     8.498
    13   6 C        2.910    -0.047    29.174     8.857
    14   6 C        2.925    -0.031    28.766     8.796
    15   6 C        2.921    -0.038    28.934     8.821
    16   6 C        2.913    -0.031    28.782     8.797
    17   6 C        3.065    -0.013    28.279     8.720
    18   6 C        3.068    -0.012    28.255     8.716
    19   6 C        2.913    -0.031    28.769     8.795
    20   6 C        2.920    -0.038    28.947     8.823
    21   6 C        2.925    -0.031    28.771     8.796
    22   6 C        2.910    -0.050    29.236     8.866
    23   6 C        3.069     0.048    26.845     8.496
    24   6 C        2.916     0.064    26.563     8.452
    25   7 N        2.800    -0.041    22.024     6.970
    26   6 C        3.068     0.048    26.856     8.498
    27   6 C        2.910    -0.050    29.241     8.867
    28   6 C        2.925    -0.031    28.767     8.796
    29   6 C        2.920    -0.038    28.938     8.821
    30   6 C        2.913    -0.031    28.764     8.795
    31   6 C        3.068    -0.012    28.240     8.714
    32   6 C        3.065    -0.013    28.268     8.718
    33   6 C        2.913    -0.031    28.776     8.796
    34   6 C        2.921    -0.037    28.922     8.819
    35   6 C        2.925    -0.030    28.756     8.794
    36   6 C        2.910    -0.047    29.160     8.855
    37   6 C        3.072     0.048    26.855     8.497
    38   6 C        2.929    -0.034    28.840     8.807
    39   6 C        2.984    -0.101    30.547     9.066
    40  16 S        3.972     1.161   102.158    17.011
    41   8 O        0.860    -0.552    24.966     6.699
    42   8 O        0.860    -0.550    24.929     6.694
    43   1 H        0.925     0.067     2.122     2.278
    44   1 H        0.925     0.045     2.379     2.412
    45   1 H        0.925     0.054     2.275     2.359
    46   1 H        0.925     0.070     2.084     2.258
    47   1 H        0.925     0.045     2.388     2.417
    48   1 H        0.925     0.053     2.279     2.361
    49   1 H        0.925     0.057     2.229     2.335
    50   1 H        0.925     0.058     2.217     2.329
    51   1 H        0.925     0.059     2.215     2.327
    52   1 H        0.926     0.087     1.908     2.160
    53   1 H        0.926     0.024     2.671     2.556
    54   1 H        0.926     0.034     2.532     2.488
    55   1 H        0.926     0.034     2.524     2.484
    56   1 H        0.926     0.037     2.494     2.470
    57   1 H        0.926     0.036     2.499     2.472
    58   1 H        0.926     0.034     2.527     2.486
    59   1 H        0.926     0.036     2.501     2.473
    60   1 H        0.926     0.030     2.583     2.513
    61   1 H        0.926     0.029     2.604     2.524
    62   1 H        0.926     0.037     2.487     2.466
    63   1 H        0.926     0.035     2.513     2.479
    64   1 H        0.926     0.037     2.487     2.466
    65   1 H        0.926     0.037     2.485     2.465
    66   1 H        0.926     0.035     2.513     2.479
    67   1 H        0.926     0.035     2.519     2.482
    68   1 H        0.926     0.025     2.651     2.546
    69   1 H        0.926     0.071     2.073     2.251

molecular dipole:
                 x           y           z       tot (Debye)
 q only:       -1.348       0.365       0.192
   full:       -1.125       0.229       0.128       2.937

 projected vibrational frequencies (cm⁻¹)
eigval :       -0.00    -0.00    -0.00     0.00     0.00     0.00
eigval :       16.65    21.58    23.10    28.85    37.61    42.98
eigval :       46.99    60.69    84.41   104.39   105.63   116.97
eigval :      120.76   132.04   139.31   145.77   153.34   164.91
eigval :      192.16   201.70   206.55   208.75   238.56   246.32
eigval :      249.51   250.05   269.38   272.91   276.90   278.33
eigval :      297.23   307.17   318.23   357.36   365.11   375.81
eigval :      396.51   401.70   407.17   409.47   419.88   422.69
eigval :      430.37   432.19   441.87   443.47   470.24   482.25
eigval :      506.56   516.63   518.15   520.87   526.31   537.97
eigval :      541.99   543.01   550.04   553.24   560.67   586.71
eigval :      587.88   599.59   627.44   650.46   670.96   671.96
eigval :      676.50   689.50   704.93   707.88   709.79   716.76
eigval :      753.56   756.53   771.37   772.73   775.28   783.34
eigval :      783.58   829.87   865.36   871.22   878.38   879.14
eigval :      881.03   881.95   893.92   895.48   899.54   905.88
eigval :      906.40   907.33   908.02   924.33   924.94   925.37
eigval :      925.56   945.42   949.90   955.79   967.07   987.31
eigval :     1009.48  1012.88  1017.92  1037.49  1050.01  1070.41
eigval :     1071.26  1073.93  1074.99  1090.60  1108.52  1132.11
eigval :     1147.73  1151.39  1152.90  1167.70  1178.51  1179.69
eigval :     1180.09  1180.72  1192.22  1203.02  1216.83  1233.12
eigval :     1234.86  1235.96  1238.15  1248.36  1257.65  1273.67
eigval :     1276.02  1292.12  1294.17  1297.88  1298.92  1313.20
eigval :     1330.27  1357.41  1358.61  1360.30  1361.03  1368.86
eigval :     1392.48  1398.79  1411.86  1420.44  1422.08  1426.65
eigval :     1427.51  1429.74  1471.39  1472.21  1473.93  1474.44
eigval :     1483.91  1486.32  1486.57  1486.82  1489.10  1491.38
eigval :     1505.22  1548.85  1569.80  1578.15  1578.73  1592.11
eigval :     1592.44  1600.10  1600.74  1613.38  1614.71  1730.24
eigval :     3035.03  3036.00  3037.61  3044.39  3050.19  3056.01
eigval :     3056.39  3059.58  3063.07  3079.59  3080.58  3082.16
eigval :     3082.97  3084.67  3085.00  3086.32  3087.38  3092.40
eigval :     3092.82  3094.42  3095.10  3099.76  3100.39  3101.55
eigval :     3102.15  3104.73  3108.95

   temp. (K)  partition function   enthalpy   heat capacity  entropy
                                   cal/mol     cal/K/mol   cal/K/mol   J/K/mol
 298.15  VIB  0.265E+15            20144.665    128.714    122.247
         ROT  0.424E+08              888.752      2.981     37.881
         INT  0.112E+23            21033.417    131.695    160.128
         TR   0.132E+29             1481.254      4.968     44.884
         TOT                       22514.6711   136.6627   205.0116   857.7687

       T/K    H(0)-H(T)+PV         H(T)/Eh          T*S/Eh         G(T)/Eh
   ------------------------------------------------------------------------
    298.15    0.358794E-01    0.562358E+00    0.974076E-01    0.464950E+00
   ------------------------------------------------------------------------

         :::::::::::::::::::::::::::::::::::::::::::::::::::::
         ::                  THERMODYNAMIC                  ::
         :::::::::::::::::::::::::::::::::::::::::::::::::::::
         :: total free energy        -112.588030916939 Eh   ::
         ::.................................................::
         :: total energy             -113.052981318071 Eh   ::
         :: zero point energy           0.526478630318 Eh   ::
         :: G(RRHO) w/o ZPVE           -0.061528229187 Eh   ::
         :: G(RRHO) contrib.            0.464950401131 Eh   ::
         :::::::::::::::::::::::::::::::::::::::::::::::::::::

           -------------------------------------------------
          | TOTAL ENERGY             -113.052981318071 Eh   |
          | TOTAL ENTHALPY           -112.490623275490 Eh   |
          | TOTAL FREE ENERGY        -112.588030916939 Eh   |
          | GRADIENT NORM               0.000030132459 Eh/α |
          | HOMO-LUMO GAP               2.166074927585 eV   |
           -------------------------------------------------

 * finished run on 2025/08/23 at 09:27:16.322
