   * xtb version 6.7.1 (edcfbbe) compiled by 'albert@albert-system' on 2024-07-22

   ID    Z sym.   atoms
    1    6 C      1-4, 6, 8-10, 12-24, 26-39
    2    7 N      5, 11, 25
    3    8 O      7, 41, 42
    4   16 S      40
    5    1 H      43-69

          program call               : xtb data2507/gas/DiCz-Sac/DiCz-Sac.xyz --gfn 2 --ohess vtight --parallel 40 --molden --ceasefiles --namespace data2507/gas/DiCz-Sac/DiCz-Sac_gas_S0_preOpt
          :  Hamiltonian                  GFN2-xTB          :
 * total energy  :  -113.0228716 Eh     change       -0.3744020E-08 Eh
 * total energy  :  -113.0407371 Eh     change       -0.1786553E-01 Eh
 * total energy  :  -113.0469127 Eh     change       -0.6175583E-02 Eh
 * total energy  :  -113.0486523 Eh     change       -0.1739660E-02 Eh
 * total energy  :  -113.0495955 Eh     change       -0.9431314E-03 Eh
 * total energy  :  -113.0499530 Eh     change       -0.3574860E-03 Eh
 * total energy  :  -113.0501421 Eh     change       -0.1891745E-03 Eh
 * total energy  :  -113.0502784 Eh     change       -0.1362447E-03 Eh
 * total energy  :  -113.0504004 Eh     change       -0.1220499E-03 Eh
 * total energy  :  -113.0505288 Eh     change       -0.1283249E-03 Eh
 * total energy  :  -113.0529706 Eh     change       -0.1032735E-05 Eh
 * total energy  :  -113.0529716 Eh     change       -0.9595099E-06 Eh
 * total energy  :  -113.0529725 Eh     change       -0.8964070E-06 Eh
 * total energy  :  -113.0529733 Eh     change       -0.8366233E-06 Eh
 * total energy  :  -113.0529741 Eh     change       -0.7560357E-06 Eh
 * total energy  :  -113.0529748 Eh     change       -0.6813892E-06 Eh
 * total energy  :  -113.0529753 Eh     change       -0.5495300E-06 Eh
 * total energy  :  -113.0529759 Eh     change       -0.5717834E-06 Eh
 * total energy  :  -113.0529759 Eh     change       -0.9932947E-08 Eh
   *** GEOMETRY OPTIMIZATION CONVERGED AFTER 68 ITERATIONS ***

 final structure:
================
69
 xtb: 6.7.1 (edcfbbe)
C            6.84926891029907        1.15682952280059        0.47579551705510
C            6.16500420144276       -0.09222972899774       -0.07451207352212
C            6.55941549029547       -1.31194489810896        0.76269889012205
C            6.54811020345869       -0.28629039660149       -1.54428296181254
N            4.70376422992468        0.08830110049185        0.01247456330506
C            3.81858824931656       -0.85723336562210       -0.41048715518412
O            4.09736655701677       -1.92973574399056       -0.90176057317006
C            2.42780311183918       -0.39021387057526       -0.18055899165167
C            1.28397491911380       -1.08814089046224       -0.52996280927497
C            0.03518890130068       -0.52956193116623       -0.26856706134503
N           -1.11898770716773       -1.20722313363213       -0.65751043022828
C           -2.20425395921287       -0.63683023091742       -1.30456275061397
C           -2.28265405235011        0.56972895672413       -1.98121734245845
C           -3.49626952388207        0.91094772080558       -2.54768507464709
C           -4.59524652841773        0.06036808029099       -2.47111605406767
C           -4.49958889818007       -1.17364944137417       -1.85775184480372
C           -3.29209618780159       -1.53426805469926       -1.27716358832279
C           -2.83199482777127       -2.71393735991790       -0.59614954912928
C           -3.44039974290619       -3.91360600253855       -0.25480035896311
C           -2.70376833212989       -4.85589169294683        0.43578154891900
C           -1.38148823031528       -4.60916950040522        0.79391391250597
C           -0.75526804943995       -3.42009124108973        0.46750960174136
C           -1.48647078965373       -2.47908869285788       -0.23941070714210
C           -0.05479669708163        0.72431090760211        0.38681099406291
N           -1.29281673526086        1.27295624340756        0.70847399671228
C           -1.76784958914549        2.50220558387901        0.27018046934276
C           -1.10343148178689        3.51470985669548       -0.40320077689204
C           -1.83263415819336        4.63296705207086       -0.76488409395385
C           -3.18957005480996        4.74058521489592       -0.47415771411937
C           -3.85845594118142        3.72553132239699        0.18155982000566
C           -3.14679848219025        2.59505434765169        0.55744124888115
C           -3.51642810983407        1.37189058020595        1.21703397850247
C           -4.70757552559485        0.88784403281649        1.73844250370684
C           -4.70588708841012       -0.35092449236528        2.34989576550058
C           -3.53061943367300       -1.08444283534065        2.48246459263780
C           -2.33195786927954       -0.61894104983770        1.97556219911155
C           -2.34495502668244        0.59106822745547        1.30097342126377
C            1.11145840436094        1.42195903313592        0.71296031254879
C            2.32563859699766        0.85277844261082        0.41903592442695
S            3.96890775695749        1.47065587890284        0.69374370306912
O            4.27535652096671        1.55390555597602        2.08719731967052
O            4.22911220828115        2.61786328960191       -0.11826701578048
H            6.57957915736886        1.31667112968929        1.51598482821392
H            6.55986656414853        2.03589248274760       -0.09332050765603
H            7.92734764458924        1.03233979910674        0.40725741087829
H            7.63776024897201       -1.44177628653526        0.73465476304487
H            6.24766670105310       -1.16973606697383        1.79513377990541
H            6.08731180798345       -2.20809165414774        0.36990585722626
H            6.07678468845763       -1.17983689841055       -1.94347719530553
H            7.62631906281193       -0.38931415410802       -1.62982000681554
H            6.22848173088832        0.57396372076440       -2.12820650147023
H            1.36652185605108       -2.03785790368764       -1.03574898148373
H           -1.42677458549494        1.22102444353647       -2.07287273909158
H           -3.58923007442330        1.85572122432731       -3.06165377520657
H           -5.52924139003053        0.36493304045109       -2.91866873680506
H           -5.34187334455919       -1.84778419429440       -1.83177250051907
H           -4.46939116907216       -4.09899152669525       -0.52203777175122
H           -3.15738224607217       -5.79676623733561        0.70891560392376
H           -0.83203789083426       -5.36070128415560        1.34079883649070
H            0.26616934108146       -3.23474814944642        0.76424812750585
H           -0.05504022236686        3.43657711047890       -0.65030906970601
H           -1.33722940656281        5.43766909782949       -1.28705745119491
H           -3.72410144648632        5.62955478219484       -0.77337313029705
H           -4.91347266321107        3.80215619618098        0.39505949157303
H           -5.61228538656090        1.47200347451976        1.66944768808072
H           -5.62446689219766       -0.75059289159433        2.75217322449888
H           -3.55118903884728       -2.03499547863091        2.99366871105858
H           -1.41933869989763       -1.17903076131743        2.11082552368965
H            1.05255241398220        2.37266958853450        1.21830416519938

          :  Hamiltonian                  GFN2-xTB          :
         :: gradient norm              0.000059311265 Eh/a0 ::
         :: HOMO-LUMO gap              2.164329589148 eV    ::
         :: SCC energy              -114.890830508104 Eh    ::
         :: -> dispersion             -0.111699913024 Eh    ::
         :: repulsion energy           1.837854602215 Eh    ::

    * Orbital Energies and Occupations

         #    Occupation            Energy/Eh            Energy/eV
      -------------------------------------------------------------
         1        2.0000           -0.7960939             -21.6628
       ...           ...                  ...                  ...
        91        2.0000           -0.4305011             -11.7145
        92        2.0000           -0.4293616             -11.6835
        93        2.0000           -0.4291129             -11.6768
        94        2.0000           -0.4281054             -11.6493
        95        2.0000           -0.4275447             -11.6341
        96        2.0000           -0.4185643             -11.3897
        97        2.0000           -0.4154611             -11.3053
        98        2.0000           -0.4140211             -11.2661
        99        2.0000           -0.4112995             -11.1920
       100        2.0000           -0.3925272             -10.6812
       101        2.0000           -0.3860151             -10.5040
       102        2.0000           -0.3803051             -10.3486
       103        2.0000           -0.3763049             -10.2398 (HOMO)
       104                         -0.2967674              -8.0755 (LUMO)
       105                         -0.2759491              -7.5090
       106                         -0.2555381              -6.9535
       107                         -0.2540206              -6.9123
       108                         -0.2366781              -6.4403
       109                         -0.2276575              -6.1949
       110                         -0.2226208              -6.0578
       111                         -0.2063471              -5.6150
       112                         -0.1968011              -5.3552
       113                         -0.1963657              -5.3434
       114                         -0.1951387              -5.3100
       ...                                ...                  ...
       200                          1.2500662              34.0160
      -------------------------------------------------------------
                  HL-Gap            0.0795375 Eh            2.1643 eV

     #   Z          covCN         q      C6AA      α(0)
     1   6 C        3.767    -0.135    23.129     6.854
     2   6 C        3.857     0.101    18.888     6.181
     3   6 C        3.759    -0.120    22.851     6.815
     4   6 C        3.759    -0.120    22.851     6.815
     5   7 N        2.755    -0.259    26.712     7.676
     6   6 C        2.919     0.276    22.347     7.752
     7   8 O        0.857    -0.401    21.699     6.245
     8   6 C        3.156    -0.033    28.505     8.730
     9   6 C        2.921    -0.030    28.740     8.791
    10   6 C        2.912     0.061    26.629     8.462
    11   7 N        2.800    -0.041    22.038     6.972
    12   6 C        3.073     0.047    26.863     8.498
    13   6 C        2.910    -0.047    29.173     8.857
    14   6 C        2.925    -0.031    28.766     8.796
    15   6 C        2.921    -0.038    28.933     8.821
    16   6 C        2.913    -0.031    28.782     8.797
    17   6 C        3.065    -0.013    28.279     8.720
    18   6 C        3.068    -0.012    28.254     8.716
    19   6 C        2.913    -0.031    28.768     8.795
    20   6 C        2.920    -0.038    28.947     8.823
    21   6 C        2.925    -0.031    28.771     8.796
    22   6 C        2.910    -0.050    29.236     8.866
    23   6 C        3.069     0.048    26.845     8.496
    24   6 C        2.916     0.064    26.563     8.451
    25   7 N        2.800    -0.041    22.026     6.970
    26   6 C        3.068     0.048    26.855     8.497
    27   6 C        2.910    -0.050    29.241     8.867
    28   6 C        2.925    -0.031    28.767     8.796
    29   6 C        2.920    -0.038    28.938     8.822
    30   6 C        2.913    -0.031    28.764     8.794
    31   6 C        3.068    -0.012    28.240     8.714
    32   6 C        3.065    -0.013    28.269     8.719
    33   6 C        2.913    -0.031    28.776     8.796
    34   6 C        2.921    -0.037    28.923     8.819
    35   6 C        2.925    -0.030    28.757     8.794
    36   6 C        2.910    -0.047    29.160     8.855
    37   6 C        3.072     0.048    26.855     8.497
    38   6 C        2.929    -0.034    28.838     8.807
    39   6 C        2.984    -0.101    30.546     9.066
    40  16 S        3.971     1.161   102.158    17.011
    41   8 O        0.860    -0.551    24.947     6.697
    42   8 O        0.860    -0.551    24.946     6.697
    43   1 H        0.925     0.059     2.214     2.327
    44   1 H        0.925     0.059     2.216     2.328
    45   1 H        0.925     0.057     2.229     2.335
    46   1 H        0.925     0.054     2.276     2.359
    47   1 H        0.925     0.045     2.384     2.414
    48   1 H        0.925     0.068     2.109     2.271
    49   1 H        0.925     0.069     2.096     2.264
    50   1 H        0.925     0.053     2.277     2.360
    51   1 H        0.925     0.045     2.386     2.415
    52   1 H        0.926     0.087     1.907     2.160
    53   1 H        0.926     0.024     2.671     2.556
    54   1 H        0.926     0.034     2.532     2.488
    55   1 H        0.926     0.034     2.524     2.484
    56   1 H        0.926     0.037     2.494     2.470
    57   1 H        0.926     0.036     2.499     2.472
    58   1 H        0.926     0.034     2.526     2.486
    59   1 H        0.926     0.036     2.501     2.473
    60   1 H        0.926     0.030     2.585     2.514
    61   1 H        0.926     0.029     2.606     2.524
    62   1 H        0.926     0.037     2.487     2.466
    63   1 H        0.926     0.035     2.513     2.479
    64   1 H        0.926     0.037     2.487     2.466
    65   1 H        0.926     0.037     2.485     2.465
    66   1 H        0.926     0.035     2.513     2.479
    67   1 H        0.926     0.035     2.519     2.482
    68   1 H        0.926     0.025     2.653     2.547
    69   1 H        0.926     0.071     2.072     2.251

molecular dipole:
                 x           y           z       tot (Debye)
 q only:       -1.321      -0.439      -0.204
   full:       -1.106      -0.291      -0.136       2.929

 projected vibrational frequencies (cm⁻¹)
eigval :       -0.00    -0.00    -0.00    -0.00     0.00     0.00
eigval :       15.48    21.42    23.05    28.57    37.44    42.97
eigval :       47.08    60.68    84.24   104.26   105.70   116.74
eigval :      121.11   131.88   139.26   145.79   153.27   164.88
eigval :      192.31   201.96   206.86   208.25   238.51   245.70
eigval :      249.41   250.23   269.14   272.80   276.86   278.36
eigval :      297.13   307.85   317.83   357.48   365.12   375.54
eigval :      396.60   401.63   407.33   409.45   419.71   422.70
eigval :      430.31   432.20   441.78   443.40   470.14   482.06
eigval :      506.51   516.59   518.15   520.78   526.27   537.78
eigval :      541.98   542.99   550.02   553.44   560.95   586.61
eigval :      587.87   599.34   627.36   650.44   670.94   671.91
eigval :      676.52   689.50   705.04   707.88   709.78   716.74
eigval :      753.57   756.54   771.34   772.70   775.27   783.34
eigval :      783.54   829.88   865.34   871.20   878.31   879.12
eigval :      880.89   881.88   893.91   895.50   899.57   905.83
eigval :      906.36   907.28   907.97   924.30   924.89   925.30
eigval :      925.54   945.40   949.91   955.75   967.05   987.63
eigval :     1009.49  1012.89  1017.91  1037.46  1050.08  1070.37
eigval :     1071.23  1073.90  1074.91  1090.57  1108.48  1132.20
eigval :     1147.70  1151.36  1152.82  1167.73  1178.48  1179.69
eigval :     1180.06  1180.72  1192.11  1203.05  1216.80  1233.13
eigval :     1234.85  1235.89  1238.07  1248.36  1257.65  1273.76
eigval :     1276.13  1292.20  1294.16  1297.88  1298.94  1313.15
eigval :     1330.27  1357.43  1358.63  1360.33  1360.99  1368.81
eigval :     1392.45  1398.78  1411.87  1420.44  1422.07  1426.64
eigval :     1427.51  1429.73  1471.43  1472.20  1473.92  1474.42
eigval :     1483.92  1486.30  1486.66  1486.84  1489.32  1491.19
eigval :     1505.27  1548.85  1569.87  1578.14  1578.73  1592.13
eigval :     1592.45  1600.13  1600.75  1613.40  1614.72  1730.17
eigval :     3035.06  3036.03  3037.52  3044.44  3050.23  3056.51
eigval :     3057.44  3059.17  3062.39  3079.49  3080.53  3082.16
eigval :     3082.95  3084.64  3084.97  3086.31  3087.32  3092.38
eigval :     3092.81  3094.41  3095.07  3099.75  3100.38  3101.54
eigval :     3102.14  3104.69  3108.84

   temp. (K)  partition function   enthalpy   heat capacity  entropy
                                   cal/mol     cal/K/mol   cal/K/mol   J/K/mol
 298.15  VIB  0.292E+15            20148.619    128.708    122.337
         ROT  0.424E+08              888.752      2.981     37.881
         INT  0.124E+23            21037.372    131.689    160.218
         TR   0.132E+29             1481.254      4.968     44.884
         TOT                       22518.6255   136.6567   205.1016   858.1452

       T/K    H(0)-H(T)+PV         H(T)/Eh          T*S/Eh         G(T)/Eh
   ------------------------------------------------------------------------
    298.15    0.358857E-01    0.562355E+00    0.974504E-01    0.464904E+00
   ------------------------------------------------------------------------

         :::::::::::::::::::::::::::::::::::::::::::::::::::::
         ::                  THERMODYNAMIC                  ::
         :::::::::::::::::::::::::::::::::::::::::::::::::::::
         :: total free energy        -112.588071761723 Eh   ::
         ::.................................................::
         :: total energy             -113.052975905895 Eh   ::
         :: zero point energy           0.526468826931 Eh   ::
         :: G(RRHO) w/o ZPVE           -0.061564682759 Eh   ::
         :: G(RRHO) contrib.            0.464904144171 Eh   ::
         :::::::::::::::::::::::::::::::::::::::::::::::::::::

           -------------------------------------------------
          | TOTAL ENERGY             -113.052975905895 Eh   |
          | TOTAL ENTHALPY           -112.490621365029 Eh   |
          | TOTAL FREE ENERGY        -112.588071761723 Eh   |
          | GRADIENT NORM               0.000059277563 Eh/α |
          | HOMO-LUMO GAP               2.164326408929 eV   |
           -------------------------------------------------

 * finished run on 2025/08/23 at 09:23:01.916
