   * xtb version 6.7.1 (edcfbbe) compiled by 'albert@albert-system' on 2024-07-22

   ID    Z sym.   atoms
    1    6 C      1-4, 6, 8-10, 12-24, 26-39
    2    7 N      5, 11, 25
    3    8 O      7, 41, 42
    4   16 S      40
    5    1 H      43-69

          program call               : xtb data2507/gas/DiCz-Sac/DiCz-Sac_gas_S0_finalOpt.xtbopt.xyz --gfn 2 --spinpol --tblite --uhf 2 --ohess vtight --parallel 40 --molden --ceasefiles --namespace data2507/gas/DiCz-Sac/DiCz-Sac_gas_T1_preOpt
 * total energy  :  -112.9559971 Eh     change        0.2189714E-07 Eh
 * total energy  :  -112.9606437 Eh     change       -0.4646540E-02 Eh
 * total energy  :  -112.9622692 Eh     change       -0.1625480E-02 Eh
 * total energy  :  -112.9624060 Eh     change       -0.1368514E-03 Eh
 * total energy  :  -112.9625087 Eh     change       -0.1026789E-03 Eh
 * total energy  :  -112.9625301 Eh     change       -0.2142752E-04 Eh
 * total energy  :  -112.9625615 Eh     change       -0.3136996E-04 Eh
 * total energy  :  -112.9625783 Eh     change       -0.1679728E-04 Eh
 * total energy  :  -112.9626017 Eh     change       -0.2336370E-04 Eh
 * total energy  :  -112.9626284 Eh     change       -0.2672038E-04 Eh
 * total energy  :  -112.9628641 Eh     change       -0.2673856E-05 Eh
 * total energy  :  -112.9628667 Eh     change       -0.2551644E-05 Eh
 * total energy  :  -112.9628693 Eh     change       -0.2654806E-05 Eh
 * total energy  :  -112.9628710 Eh     change       -0.1655851E-05 Eh
 * total energy  :  -112.9628719 Eh     change       -0.9040979E-06 Eh
 * total energy  :  -112.9628719 Eh     change       -0.2819070E-07 Eh
 * total energy  :  -112.9628722 Eh     change       -0.2783256E-06 Eh
 * total energy  :  -112.9628723 Eh     change       -0.1400606E-06 Eh
 * total energy  :  -112.9628724 Eh     change       -0.1367802E-07 Eh
   *** GEOMETRY OPTIMIZATION CONVERGED AFTER 43 ITERATIONS ***

 final structure:
================
69
 xtb: 6.7.1 (edcfbbe)
C            6.40944554846969        1.51441749542367       -0.83349452222181
C            6.14217896873215        0.48298305805553        0.26926765600008
C            6.56307238257660        1.02376696706977        1.63746126029261
C            6.91298785029874       -0.80374730668761       -0.03175660926574
N            4.71187049017856        0.17422926684881        0.29286245441292
C            3.75259116838147        1.13909356623489        0.59900602675083
O            4.02433594316697        2.26901363940760        1.02403972401123
C            2.44392091866219        0.64766098165932        0.32628098015057
C            1.22933285620343        1.30934136368476        0.58965535049350
C            0.04249844430684        0.67335754310192        0.33335602898921
N           -1.17407206522148        1.26570785037916        0.68341231648329
C           -2.21064238443545        0.63241077202707        1.34350557810310
C           -2.19833159257235       -0.55781659779228        2.05676254066170
C           -3.38720270332364       -0.98229390677795        2.62098403122632
C           -4.55167070269082       -0.22903183899158        2.50586951510348
C           -4.55202995225109        0.99155994959390        1.85260237172557
C           -3.37218095715446        1.43476422220381        1.27705766466117
C           -2.99831251027701        2.62900741878170        0.56664025368728
C           -3.69169821614621        3.76361757929962        0.17732523699992
C           -3.01698252680509        4.73986698590098       -0.53452728276133
C           -1.67274636305451        4.58765740297418       -0.86820311792536
C           -0.96058799777934        3.46456765413231       -0.49304564761333
C           -1.62853979530621        2.48842588155704        0.23577250427903
C            0.01912821565419       -0.64768188568502       -0.26906663129952
N           -1.19538999095024       -1.22579334177691       -0.63121034117623
C           -1.66297773371139       -2.44863742037100       -0.19711351146513
C           -1.00762483189008       -3.43415679287758        0.53155624841748
C           -1.72835746274487       -4.55758093822085        0.88808019123395
C           -3.06968773194941       -4.70115689251926        0.53613335954921
C           -3.73249323789919       -3.71554576485347       -0.17422708728225
C           -3.03112971574767       -2.57939172059179       -0.54447293938522
C           -3.39129439865549       -1.37666494152584       -1.24529673617657
C           -4.56330212614686       -0.91743225279041       -1.82429751522771
C           -4.54717741124053        0.30685416926566       -2.47079615312324
C           -3.37368477445549        1.04869865519115       -2.57775513542164
C           -2.19335494645462        0.61047603762381       -2.00697277751046
C           -2.22128989696852       -0.58285957709221       -1.29835039669280
C            1.23540058807223       -1.29990857518940       -0.53345019401509
C            2.40129446840795       -0.65651597010197       -0.26136915392854
S            4.06643175626755       -1.16144240373121       -0.53555771107567
O            4.42732221767311       -1.11161112971946       -1.92445205444837
O            4.37580418066794       -2.37302575882849        0.16537905096824
H            5.88021498442028        2.43735443103247       -0.60813896699463
H            6.06031454876952        1.12667241107767       -1.78825553926437
H            7.47384006230697        1.72323937657421       -0.90013662046951
H            6.00574970597024        1.92917946291755        1.86599414887018
H            6.36091443961498        0.28525098656915        2.40965047178619
H            7.62543937195475        1.25230971801691        1.63069005395572
H            7.98037773971173       -0.59830651570478        0.00113838175723
H            6.65495684772277       -1.18140768748509       -1.01706090840624
H            6.67288599376020       -1.56967924709675        0.70077341127142
H            1.25388888574070        2.27811435477657        1.06360417315794
H           -1.28951262474231       -1.12687281782010        2.17825200552452
H           -3.40830060960707       -1.91435900854842        3.16472792839236
H           -5.46315738700733       -0.59565722877749        2.95279286210606
H           -5.44897769086357        1.58859250955647        1.79447226813209
H           -4.73684306129814        3.87723078250906        0.42054019752985
H           -3.53880135698751        5.63306843438872       -0.84310914330525
H           -1.17701093693532        5.36314823594423       -1.43196586958064
H            0.07806691579723        3.34930023177436       -0.76134981587844
H            0.02777081949003       -3.32506998767918        0.81555006615688
H           -1.24321390158331       -5.33949930682925        1.45206632102026
H           -3.59862198712765       -5.59502820468786        0.83035154602409
H           -4.77512973576098       -3.82342009421496       -0.43069104918603
H           -5.46669476707062       -1.50557306639594       -1.77494138773283
H           -5.45256669020751        0.68509610642138       -2.92042053782450
H           -3.38190918991521        1.98175499145181       -3.12006661380747
H           -1.27728224656785        1.16897514774930       -2.12305044985408
H            1.23892838295727       -2.27272885860602       -0.99978929669580

 projected vibrational frequencies (cm⁻¹)
eigval :       -0.00    -0.00    -0.00     0.00     0.00     0.00
eigval :       17.11    22.00    25.58    33.24    40.24    44.50
eigval :       46.15    57.38    83.24   102.45   104.97   114.61
eigval :      118.23   136.92   139.38   142.33   152.09   162.42
eigval :      187.68   196.98   205.60   213.63   237.56   243.94
eigval :      247.15   256.88   270.48   271.20   273.35   275.17
eigval :      291.93   309.42   317.07   346.64   360.30   368.47
eigval :      373.03   390.33   396.98   399.33   408.85   416.29
eigval :      419.89   424.80   434.52   438.21   459.49   468.54
eigval :      501.05   503.83   513.90   515.04   520.11   533.61
eigval :      535.82   537.05   543.39   551.15   554.02   563.28
eigval :      585.41   586.21   621.36   625.18   639.52   646.12
eigval :      660.42   669.26   674.96   694.24   705.15   707.76
eigval :      751.01   754.55   767.20   769.34   770.73   777.15
eigval :      778.87   828.76   851.21   865.87   867.54   873.67
eigval :      874.51   875.90   880.82   889.84   894.55   904.63
eigval :      905.44   905.71   906.74   919.51   920.56   921.06
eigval :      922.35   922.90   943.34   953.97   962.17   969.27
eigval :      995.45  1008.28  1011.57  1028.94  1044.58  1065.37
eigval :     1066.94  1068.31  1070.04  1077.31  1100.68  1104.31
eigval :     1115.10  1136.71  1140.09  1155.19  1160.97  1170.21
eigval :     1175.87  1176.95  1177.99  1179.43  1211.90  1216.31
eigval :     1222.88  1225.37  1226.04  1228.22  1242.13  1248.76
eigval :     1249.41  1266.25  1274.92  1279.28  1288.43  1292.88
eigval :     1316.35  1328.81  1331.23  1341.59  1361.71  1365.45
eigval :     1371.45  1384.44  1386.79  1392.35  1404.29  1409.34
eigval :     1414.32  1421.91  1425.29  1457.36  1459.63  1466.12
eigval :     1478.36  1478.89  1480.28  1480.66  1481.97  1483.59
eigval :     1489.63  1502.43  1513.90  1556.77  1563.15  1566.33
eigval :     1570.11  1573.30  1577.03  1579.69  1592.18  1598.77
eigval :     3031.31  3034.77  3037.58  3038.94  3039.01  3043.35
eigval :     3045.25  3050.99  3060.55  3085.78  3085.95  3086.38
eigval :     3086.45  3089.94  3090.31  3091.35  3092.35  3096.33
eigval :     3096.89  3097.35  3098.43  3099.15  3102.74  3103.17
eigval :     3103.66  3103.90  3104.70

   temp. (K)  partition function   enthalpy   heat capacity  entropy
                                   cal/mol     cal/K/mol   cal/K/mol   J/K/mol
 298.15  VIB  0.271E+15            20400.601    130.553    123.644
         ROT  0.420E+08              888.752      2.981     37.866
         INT  0.114E+23            21289.353    133.534    161.510
         TR   0.132E+29             1481.254      4.968     44.884
         TOT                       22770.6069   138.5021   206.3941   863.5531

       T/K    H(0)-H(T)+PV         H(T)/Eh          T*S/Eh         G(T)/Eh
   ------------------------------------------------------------------------
    298.15    0.362873E-01    0.558372E+00    0.980645E-01    0.460307E+00
   ------------------------------------------------------------------------

         :::::::::::::::::::::::::::::::::::::::::::::::::::::
         ::                  THERMODYNAMIC                  ::
         :::::::::::::::::::::::::::::::::::::::::::::::::::::
         :: total free energy        -112.502564905590 Eh   ::
         ::.................................................::
         :: total energy             -112.962872395321 Eh   ::
         :: zero point energy           0.522084737642 Eh   ::
         :: G(RRHO) w/o ZPVE           -0.061777247911 Eh   ::
         :: G(RRHO) contrib.            0.460307489731 Eh   ::
         :::::::::::::::::::::::::::::::::::::::::::::::::::::

           -------------------------------------------------
          | TOTAL ENERGY             -112.962872395321 Eh   |
          | TOTAL ENTHALPY           -112.404500385831 Eh   |
          | TOTAL FREE ENERGY        -112.502564905590 Eh   |
          | GRADIENT NORM               0.000139799350 Eh/α |
           -------------------------------------------------

 * finished run on 2025/08/23 at 09:27:24.852
