   * xtb version 6.7.1 (edcfbbe) compiled by 'albert@albert-system' on 2024-07-22

   ID    Z sym.   atoms
    1    6 C      1-4, 6, 8-10, 12-24, 26-39
    2    7 N      5, 11, 25
    3    8 O      7, 41, 42
    4   16 S      40
    5    1 H      43-69

          program call               : xtb data2507/gas/DiCz-Sac/DiCz-Sac_gas_T1_crest.xyz --gfn 2 --spinpol --tblite --uhf 2 --ohess vtight --parallel 40 --molden --ceasefiles --namespace data2507/gas/DiCz-Sac/DiCz-Sac_gas_T1_finalOpt
 * total energy  :  -112.9628409 Eh     change        0.2423519E-08 Eh
 * total energy  :  -112.9628587 Eh     change       -0.1780476E-04 Eh
 * total energy  :  -112.9628649 Eh     change       -0.6183719E-05 Eh
 * total energy  :  -112.9628666 Eh     change       -0.1670440E-05 Eh
 * total energy  :  -112.9628684 Eh     change       -0.1809633E-05 Eh
 * total energy  :  -112.9628700 Eh     change       -0.1604213E-05 Eh
 * total energy  :  -112.9628712 Eh     change       -0.1191048E-05 Eh
 * total energy  :  -112.9628719 Eh     change       -0.7653565E-06 Eh
 * total energy  :  -112.9628723 Eh     change       -0.3878539E-06 Eh
 * total energy  :  -112.9628726 Eh     change       -0.2941275E-06 Eh
 * total energy  :  -112.9628726 Eh     change       -0.2308566E-07 Eh
 * total energy  :  -112.9628728 Eh     change       -0.1871501E-06 Eh
 * total energy  :  -112.9628730 Eh     change       -0.1217934E-06 Eh
 * total energy  :  -112.9628729 Eh     change        0.2409924E-07 Eh
 * total energy  :  -112.9628730 Eh     change       -0.1113950E-06 Eh
 * total energy  :  -112.9628730 Eh     change        0.5018961E-08 Eh
 * total energy  :  -112.9628731 Eh     change       -0.3342598E-07 Eh
   *** GEOMETRY OPTIMIZATION CONVERGED AFTER 17 ITERATIONS ***

 final structure:
================
69
 xtb: 6.7.1 (edcfbbe)
C            6.40552939605753        1.52585134359775       -0.82447227739858
C            6.14094147788286        0.47652673176169        0.26191488360740
C            6.56502944222671        0.99480831029909        1.63778396287260
C            6.91113944469777       -0.80507143058579       -0.06178808484324
N            4.71066480364484        0.16723413277853        0.28356511265400
C            3.75190004597226        1.12672553209010        0.60767322102159
O            4.02428051194986        2.24905409830839        1.05220630727718
C            2.44279432834051        0.64057818475613        0.32775290238206
C            1.22866440755642        1.29784818130759        0.60437191608795
C            0.04164812014596        0.66687948145428        0.33731557968418
N           -1.17531552912169        1.25069892754322        0.70067694427852
C           -2.20864479659515        0.60190540269457        1.35085641740226
C           -2.19054647868222       -0.60066399924000        2.04293531779828
C           -3.37699902808086       -1.03982923395229        2.60106516477921
C           -4.54459965251671       -0.28942829543137        2.50048391532100
C           -4.55076659756309        0.94242584382134        1.86868855312767
C           -3.37343206767527        1.40055774475387        1.29972466744940
C           -3.00509144695807        2.60842070646897        0.60971136074738
C           -3.70350218531351        3.74658306876501        0.24040308262187
C           -3.03346084306806        4.73762538658699       -0.45522490480696
C           -1.68878776702858        4.59694910638155       -0.79225975249611
C           -0.97161202389699        3.47062701555650       -0.43696929775617
C           -1.63506488171302        2.47912290215218        0.27506505466396
C            0.01733280107494       -0.64242278700446       -0.29022855241988
N           -1.19839713636171       -1.21081161702308       -0.66400580026045
C           -1.67147228804728       -2.43858740074770       -0.25070181432046
C           -1.02025677918930       -3.43944469948259        0.46058447859275
C           -1.74637680726020       -4.56484151130136        0.79939136366737
C           -3.08882538854279       -4.69565693676152        0.44672213612948
C           -3.74722256328090       -3.69534644073763       -0.24699201241092
C           -3.04045170978051       -2.55692050931662       -0.59936535539730
C           -3.39520544285011       -1.34088951894045       -1.27978203116965
C           -4.56510923930393       -0.86629848608632       -1.85055789655394
C           -4.54327355373245        0.36874990634456       -2.47614707944734
C           -3.36642596958343        1.10686238886035       -2.57058740021228
C           -2.18809160040021        0.65348199604151       -2.00746587302656
C           -2.22155709467748       -0.55182008103157       -1.31968182843849
C            1.23285681029257       -1.29070036340935       -0.56662573815788
C            2.39921560308442       -0.65305394372023       -0.28281959344793
S            4.06384894585940       -1.15417884610056       -0.56637555980117
O            4.42374976371224       -1.08177389149337       -1.95454243557066
O            4.37322787640071       -2.37724123432268        0.11429981848950
H            5.87738626311736        2.44517874463890       -0.58240625011033
H            6.05341445720665        1.15402422564567       -1.78444733770312
H            7.46980915335827        1.73528621206982       -0.89083635502493
H            6.00734835662231        1.89561262295879        1.88298991650410
H            6.36585416156754        0.24330040258710        2.39810544700246
H            7.62710664751559        1.22464247774645        1.63185386614729
H            7.97858236384648       -0.60031000292999       -0.02662400605532
H            6.65196220192854       -1.16604519197067       -1.05303663203174
H            6.67180233871767       -1.58320842747326        0.65803278370926
H            1.25390950129955        2.25773557003963        1.09603701639318
H           -1.27917896980814       -1.16796582058797        2.15307794595700
H           -3.39365665383080       -1.98143098926269        3.12827827635996
H           -5.45404415301473       -0.66759280983815        2.94192589467562
H           -5.45027159001082        1.53661183757900        1.82196933417519
H           -4.74889674314369        3.85165574446783        0.48638404272936
H           -3.55933519969467        5.63369012388767       -0.74824977129441
H           -1.19678648631220        5.38419212471715       -1.34285902882649
H            0.06743819719237        3.36437463702488       -0.70748668010596
H            0.01605114052449       -3.34026534820198        0.74489147229013
H           -1.26471922476556       -5.35839994100440        1.34995051252349
H           -3.62215096972907       -5.59134518425548        0.72716742081847
H           -4.79062522430247       -3.79373603804098       -0.50415344131543
H           -5.47132619756477       -1.45081684104983       -1.81089890884059
H           -5.44693423400568        0.75885778675351       -2.91906153149202
H           -3.37040721506676        2.04917444262694       -3.09669910299439
H           -1.26937733540509        1.20961141278976       -2.11371767764857
H            1.23574228538221       -2.25495869305210       -1.05040954566150

 projected vibrational frequencies (cm⁻¹)
eigval :       -0.00    -0.00     0.00     0.00     0.00     0.00
eigval :       17.08    21.95    25.74    33.69    40.81    44.59
eigval :       46.51    57.10    83.15   102.51   105.05   114.55
eigval :      118.26   136.89   139.74   142.25   151.84   162.41
eigval :      187.59   196.91   205.51   213.51   237.33   243.59
eigval :      247.20   256.63   270.38   270.76   273.31   275.18
eigval :      291.96   309.33   317.11   346.82   360.97   368.51
eigval :      373.15   389.91   396.87   399.12   408.78   416.38
eigval :      419.99   424.94   434.20   437.98   459.40   468.52
eigval :      501.64   503.82   513.91   515.06   520.38   533.63
eigval :      535.84   536.90   543.51   551.19   553.67   563.31
eigval :      585.43   586.07   621.25   625.18   639.51   646.11
eigval :      660.22   669.31   674.86   694.21   705.13   707.72
eigval :      750.85   754.63   767.26   769.25   770.73   777.04
eigval :      778.90   828.74   851.16   866.06   867.51   873.50
eigval :      874.51   875.96   880.76   889.93   894.53   904.56
eigval :      905.39   905.62   906.75   919.45   920.50   921.04
eigval :      922.41   922.80   943.45   953.92   961.90   968.98
eigval :      995.32  1008.26  1011.54  1028.93  1044.34  1065.23
eigval :     1066.77  1068.02  1069.71  1077.20  1100.55  1104.22
eigval :     1114.93  1136.71  1140.03  1155.16  1160.95  1170.19
eigval :     1175.83  1176.83  1177.86  1179.30  1211.80  1215.96
eigval :     1222.72  1225.39  1225.94  1228.22  1242.05  1248.86
eigval :     1249.45  1266.28  1274.97  1279.35  1288.37  1292.77
eigval :     1316.40  1328.75  1331.23  1341.71  1361.37  1364.79
eigval :     1371.38  1384.47  1386.59  1392.17  1404.44  1409.42
eigval :     1413.96  1421.93  1425.32  1457.36  1459.68  1466.00
eigval :     1478.38  1478.80  1480.06  1480.52  1481.73  1483.57
eigval :     1489.48  1502.17  1513.70  1556.98  1563.35  1566.52
eigval :     1570.15  1573.29  1577.06  1579.35  1592.18  1598.55
eigval :     3030.82  3034.80  3037.37  3038.56  3038.82  3042.94
eigval :     3044.97  3050.75  3060.12  3085.56  3085.74  3086.18
eigval :     3086.31  3089.75  3090.13  3091.12  3092.16  3096.08
eigval :     3096.69  3097.15  3098.13  3098.84  3102.51  3102.91
eigval :     3103.40  3103.73  3104.25

   temp. (K)  partition function   enthalpy   heat capacity  entropy
                                   cal/mol     cal/K/mol   cal/K/mol   J/K/mol
 298.15  VIB  0.263E+15            20400.664    130.586    123.655
         ROT  0.420E+08              888.752      2.981     37.864
         INT  0.110E+23            21289.416    133.567    161.518
         TR   0.132E+29             1481.254      4.968     44.884
         TOT                       22770.6702   138.5349   206.4021   863.5865

       T/K    H(0)-H(T)+PV         H(T)/Eh          T*S/Eh         G(T)/Eh
   ------------------------------------------------------------------------
    298.15    0.362874E-01    0.558340E+00    0.980683E-01    0.460272E+00
   ------------------------------------------------------------------------

         :::::::::::::::::::::::::::::::::::::::::::::::::::::
         ::                  THERMODYNAMIC                  ::
         :::::::::::::::::::::::::::::::::::::::::::::::::::::
         :: total free energy        -112.502601535014 Eh   ::
         ::.................................................::
         :: total energy             -112.962873108760 Eh   ::
         :: zero point energy           0.522052515928 Eh   ::
         :: G(RRHO) w/o ZPVE           -0.061780942183 Eh   ::
         :: G(RRHO) contrib.            0.460271573746 Eh   ::
         :::::::::::::::::::::::::::::::::::::::::::::::::::::

           -------------------------------------------------
          | TOTAL ENERGY             -112.962873108760 Eh   |
          | TOTAL ENTHALPY           -112.404533220049 Eh   |
          | TOTAL FREE ENERGY        -112.502601535014 Eh   |
          | GRADIENT NORM               0.000041878710 Eh/α |
           -------------------------------------------------

 * finished run on 2025/08/23 at 09:32:58.079
