   * xtb version 6.7.1 (edcfbbe) compiled by 'albert@albert-system' on 2024-07-22

   ID    Z sym.   atoms
    1    8 O      1, 10, 11
    2    6 C      2-8, 12-19, 21-24, 26-31, 33-38
    3   16 S      9
    4    7 N      20
    5   35 Br     25, 32
    6    1 H      39-57

          program call               : xtb data2507/gas/PCTXO/PCTXO_gas_S0_finalOpt.xtbopt.xyz --gfn 2 --spinpol --tblite --uhf 2 --ohess vtight --parallel 40 --molden --ceasefiles --namespace data2507/gas/PCTXO/PCTXO_gas_T1_preOpt
 * total energy  :  -102.5044125 Eh     change        0.4241875E-07 Eh
 * total energy  :  -102.5079672 Eh     change       -0.3554764E-02 Eh
 * total energy  :  -102.5092029 Eh     change       -0.1235697E-02 Eh
 * total energy  :  -102.5094518 Eh     change       -0.2488579E-03 Eh
 * total energy  :  -102.5096938 Eh     change       -0.2420519E-03 Eh
 * total energy  :  -102.5097869 Eh     change       -0.9309530E-04 Eh
 * total energy  :  -102.5098401 Eh     change       -0.5312392E-04 Eh
 * total energy  :  -102.5098651 Eh     change       -0.2500477E-04 Eh
 * total energy  :  -102.5098816 Eh     change       -0.1656049E-04 Eh
 * total energy  :  -102.5099038 Eh     change       -0.2213539E-04 Eh
 * total energy  :  -102.5100034 Eh     change       -0.3365225E-06 Eh
 * total energy  :  -102.5100038 Eh     change       -0.3571252E-06 Eh
 * total energy  :  -102.5100042 Eh     change       -0.3826579E-06 Eh
 * total energy  :  -102.5100046 Eh     change       -0.3962447E-06 Eh
 * total energy  :  -102.5100049 Eh     change       -0.3906138E-06 Eh
 * total energy  :  -102.5100053 Eh     change       -0.3981645E-06 Eh
 * total energy  :  -102.5100057 Eh     change       -0.3670664E-06 Eh
 * total energy  :  -102.5100062 Eh     change       -0.4668670E-06 Eh
 * total energy  :  -102.5100062 Eh     change       -0.2520299E-07 Eh
   *** GEOMETRY OPTIMIZATION CONVERGED AFTER 44 ITERATIONS ***

 final structure:
================
57
 xtb: 6.7.1 (edcfbbe)
O            5.29843326337936        2.37012147011422       -0.00819746090065
C            5.84129290371106        1.23260768838570       -0.04159170578270
C            7.26421299444290        1.10440581335275       -0.30047670094572
C            7.96036776067633        2.27501346512689       -0.67642582612591
C            9.28871401011404        2.22190152258377       -1.01753042704276
C            9.98534114976951        1.01539662308082       -0.99995750227904
C            9.32879149058898       -0.13861272628139       -0.60711902020887
C            7.99531734371828       -0.08015217682511       -0.25804378739397
S            7.26374772729263       -1.56727956491760        0.40454404541026
O            7.68235746032123       -2.71231033196510       -0.35900036006442
O            7.51777653485589       -1.59970634906103        1.82183886452659
C            5.52483635499678       -1.27237854858088        0.15430683644531
C            4.68456484371524       -2.36706381949318        0.15452507120743
C            3.31485044271495       -2.18935383629212        0.12128872980511
C            2.78294794345232       -0.88839719278801        0.10820941138620
C            1.33330418056045       -0.66829845782195        0.08699281825824
C            0.49352692924253       -1.48476884448509       -0.67246124639735
C           -0.86782580219285       -1.27329963455911       -0.69961706416368
C           -1.43395476423890       -0.23508274500373        0.04239315479041
N           -2.81714409260189       -0.01617433680403        0.01732150663967
C           -3.69187169926865       -1.10256532367914       -0.01576042136235
C           -3.38578533652265       -2.27687229141100        0.67713916720833
C           -4.24570583137619       -3.35469804115954        0.64270353450916
C           -5.42334892822003       -3.26667075611717       -0.08423640455388
Br          -6.61228780475187       -4.75084848538538       -0.13059444926235
C           -5.74512548568009       -2.11024120050842       -0.77851352331850
C           -4.88179211044382       -1.03498880057766       -0.74530221792321
C           -3.31255194008112        1.28844393439239        0.02501120244791
C           -2.63178188373647        2.30663509235391       -0.64773684932796
C           -3.11627043064941        3.59799861790628       -0.63799343870217
C           -4.28994639333305        3.88262807687270        0.04354349265484
Br          -4.96327088951169        5.66135530225665        0.05402223156009
C           -4.97966713994462        2.88631106026386        0.71786157373006
C           -4.49117697966223        1.59640156568203        0.70957822036024
C           -0.60108937333305        0.58329345106361        0.80793710170656
C            0.75962540896809        0.37057591697571        0.82314959882001
C            3.63668447316283        0.19712912567793        0.09225068314927
C            5.03739601095154        0.03452708105043        0.08254473605570
H            7.40172048608258        3.19906945050210       -0.69369415986429
H            9.79730848326289        3.12964939956471       -1.30770878178556
H           11.02744489494850        0.97801674860152       -1.27537005156998
H            9.83023863398433       -1.09234747146036       -0.55749722403248
H            5.12770056427494       -3.34951413086509        0.19964091362441
H            2.65851906249097       -3.04438647601507        0.15137808959827
H            0.91861535860276       -2.27521806815767       -1.27164407253894
H           -1.50261479287506       -1.90003244866955       -1.30855316739555
H           -2.47415508597520       -2.33493661257525        1.25198133515138
H           -4.00880582915163       -4.25697320707657        1.18445481657495
H           -6.65974292814903       -2.05606486243873       -1.34797226320959
H           -5.12070770911427       -0.13869328358655       -1.29739650000987
H           -1.72554385696336        2.07737128631387       -1.18713831570970
H           -2.59054526422004        4.37970765505791       -1.16352831999083
H           -5.88658774216475        3.12106640988617        1.25276363411608
H           -5.01619289104569        0.82120357914505        1.24687784194925
H           -1.03327491099003        1.37598342318325        1.40051445287974
H            1.38861948480834        0.99693348676160        1.43628481534242
H            3.26032617552081        1.20832870035819        0.04261683567678

 projected vibrational frequencies (cm⁻¹)
eigval :       -0.00    -0.00    -0.00    -0.00     0.00     0.00
eigval :       10.05    11.32    16.87    22.57    26.04    35.83
eigval :       42.75    55.11    57.69    90.73    95.02   101.39
eigval :      113.93   122.13   124.53   137.89   148.30   154.21
eigval :      175.65   188.20   211.21   223.44   231.50   247.74
eigval :      271.36   279.75   285.08   298.83   311.84   321.35
eigval :      344.42   357.42   366.50   375.74   379.55   380.00
eigval :      381.48   387.78   407.85   422.58   426.43   438.85
eigval :      454.33   472.29   486.19   493.20   500.82   506.29
eigval :      524.12   530.46   565.36   590.13   592.19   597.15
eigval :      598.03   606.86   634.79   636.52   648.03   653.57
eigval :      661.86   665.29   673.62   694.23   715.14   733.86
eigval :      766.29   795.05   802.92   808.56   813.31   825.35
eigval :      862.33   862.64   863.20   865.73   870.36   898.90
eigval :      900.55   904.37   907.07   908.15   910.91   913.16
eigval :      918.96   922.16   923.81   929.28   936.86   986.05
eigval :      997.64  1008.11  1017.01  1044.40  1071.49  1073.92
eigval :     1090.36  1091.97  1100.05  1133.17  1135.94  1137.72
eigval :     1139.86  1150.60  1161.48  1172.10  1182.68  1184.22
eigval :     1189.09  1191.47  1214.11  1215.88  1220.44  1228.41
eigval :     1259.72  1262.13  1267.07  1278.98  1307.97  1309.56
eigval :     1311.52  1319.07  1324.76  1329.23  1333.21  1354.64
eigval :     1388.82  1400.79  1411.68  1413.61  1415.47  1420.85
eigval :     1450.06  1451.52  1452.36  1477.59  1499.34  1512.81
eigval :     1535.42  1546.91  1554.60  1557.86  1568.49  1569.71
eigval :     1573.28  1583.53  3078.95  3084.73  3086.84  3088.07
eigval :     3091.57  3092.85  3094.90  3096.25  3096.61  3097.17
eigval :     3097.99  3100.77  3104.29  3106.76  3107.38  3107.72
eigval :     3108.05  3108.46  3108.98

   temp. (K)  partition function   enthalpy   heat capacity  entropy
                                   cal/mol     cal/K/mol   cal/K/mol   J/K/mol
 298.15  VIB  0.200E+16            18886.782    114.386    118.418
         ROT  0.140E+09              888.752      2.981     40.257
         INT  0.280E+24            19775.535    117.366    158.675
         TR   0.159E+29             1481.254      4.968     45.256
         TOT                       21256.7886   122.3346   203.9307   853.2459

       T/K    H(0)-H(T)+PV         H(T)/Eh          T*S/Eh         G(T)/Eh
   ------------------------------------------------------------------------
    298.15    0.338748E-01    0.434523E+00    0.968940E-01    0.337629E+00
   ------------------------------------------------------------------------

         :::::::::::::::::::::::::::::::::::::::::::::::::::::
         ::                  THERMODYNAMIC                  ::
         :::::::::::::::::::::::::::::::::::::::::::::::::::::
         :: total free energy        -102.172377221339 Eh   ::
         ::.................................................::
         :: total energy             -102.510006196936 Eh   ::
         :: zero point energy           0.400648171206 Eh   ::
         :: G(RRHO) w/o ZPVE           -0.063019195609 Eh   ::
         :: G(RRHO) contrib.            0.337628975597 Eh   ::
         :::::::::::::::::::::::::::::::::::::::::::::::::::::

           -------------------------------------------------
          | TOTAL ENERGY             -102.510006196936 Eh   |
          | TOTAL ENTHALPY           -102.075483176891 Eh   |
          | TOTAL FREE ENERGY        -102.172377221339 Eh   |
          | GRADIENT NORM               0.000066563022 Eh/α |
           -------------------------------------------------

 * finished run on 2025/07/16 at 13:24:15.858
