   * xtb version 6.7.1 (edcfbbe) compiled by 'albert@albert-system' on 2024-07-22

   ID    Z sym.   atoms
    1    8 O      1, 10, 11
    2    6 C      2-8, 12-19, 21-24, 26-31, 33-38
    3   16 S      9
    4    7 N      20
    5   35 Br     25, 32
    6    1 H      39-57

          program call               : xtb data2507/gas/PCTXO/PCTXO_gas_T1_crest.xyz --gfn 2 --spinpol --tblite --uhf 2 --ohess vtight --parallel 40 --molden --ceasefiles --namespace data2507/gas/PCTXO/PCTXO_gas_T1_finalOpt
 * total energy  :  -102.5099126 Eh     change        0.2784022E-07 Eh
 * total energy  :  -102.5099620 Eh     change       -0.4944856E-04 Eh
 * total energy  :  -102.5099824 Eh     change       -0.2035915E-04 Eh
 * total energy  :  -102.5099851 Eh     change       -0.2709642E-05 Eh
 * total energy  :  -102.5099875 Eh     change       -0.2455842E-05 Eh
 * total energy  :  -102.5099899 Eh     change       -0.2329522E-05 Eh
 * total energy  :  -102.5099926 Eh     change       -0.2767125E-05 Eh
 * total energy  :  -102.5099955 Eh     change       -0.2879166E-05 Eh
 * total energy  :  -102.5099987 Eh     change       -0.3207425E-05 Eh
 * total energy  :  -102.5100020 Eh     change       -0.3331372E-05 Eh
 * total energy  :  -102.5100064 Eh     change       -0.6877524E-06 Eh
 * total energy  :  -102.5100067 Eh     change       -0.2879481E-06 Eh
 * total energy  :  -102.5100069 Eh     change       -0.1925976E-06 Eh
 * total energy  :  -102.5100070 Eh     change       -0.1984719E-06 Eh
 * total energy  :  -102.5100072 Eh     change       -0.1810020E-06 Eh
 * total energy  :  -102.5100074 Eh     change       -0.2088485E-06 Eh
 * total energy  :  -102.5100076 Eh     change       -0.1169948E-06 Eh
 * total energy  :  -102.5100077 Eh     change       -0.1615497E-06 Eh
 * total energy  :  -102.5100077 Eh     change       -0.1153757E-07 Eh
   *** GEOMETRY OPTIMIZATION CONVERGED AFTER 22 ITERATIONS ***

 final structure:
================
57
 xtb: 6.7.1 (edcfbbe)
O            5.30793284529468        2.35538960545365        0.05373016028704
C            5.84746345300574        1.21673733476838        0.00597729814471
C            7.27157605638674        1.08825778324658       -0.24620491655177
C            7.97408523838463        2.26317021493839       -0.59621960814238
C            9.30465654302052        2.21198620951910       -0.92882641849814
C            9.99740141763725        1.00314069287645       -0.92829851725419
C            9.33439877088650       -0.15563507622645       -0.56117525159584
C            7.99869931062344       -0.09919354111899       -0.22033254737826
S            7.25891685915319       -1.59663444939316        0.40912147309315
O            7.67483599059043       -2.72711390587933       -0.37722487402665
O            7.50920977571542       -1.66018019516532        1.82601930393699
C            5.52170567865230       -1.28991808632050        0.16107708087561
C            4.67751335812169       -2.38144558341519        0.14349186776184
C            3.30853593013341       -2.19841889091523        0.11070517546471
C            2.78109849789712       -0.89553622463541        0.11530650081766
C            1.33213741251170       -0.67104486356085        0.09401721697599
C            0.49176165293175       -1.47814684529615       -0.67481930092648
C           -0.86911111570856       -1.26392279967100       -0.70163897787773
C           -1.43423320451671       -0.23178053340487        0.04950230417912
N           -2.81704113887997       -0.01039330697615        0.02408843771517
C           -3.69259119644063       -1.09580947129690       -0.02122487415114
C           -3.39076364141018       -2.27505314013084        0.66505743557142
C           -4.25122751750496       -3.35201500319982        0.61873113258929
C           -5.42490505452031       -3.25817919067629       -0.11387927077868
Br          -6.61454059943915       -4.74116607147576       -0.17677419727423
C           -5.74220397694090       -2.09686661897006       -0.80203640947645
C           -4.87845997775810       -1.02237797243189       -0.75669447386072
C           -3.31125368721059        1.29440930218048        0.03899524476096
C           -2.62593248254896        2.31735489929066       -0.62184932940596
C           -3.11049684203773        3.60862574392770       -0.60616202094603
C           -4.28873406989100        3.88849207163588        0.06943739065986
Br          -4.96268830551598        5.66690802307716        0.08704733376774
C           -4.98270272253406        2.88754949049154        0.73246339979981
C           -4.49411978652725        1.59774771758298        0.71837860433069
C           -0.60093440696534        0.57753723786677        0.82408109967712
C            0.75934679190510        0.36168319525765        0.83950672818459
C            3.63881669632990        0.18699819149640        0.11693032114877
C            5.03905251521352        0.01962243339896        0.10844397752576
H            7.41847277060351        3.18920640296143       -0.60067710878034
H            9.81812499615790        3.12319613717541       -1.19888877655622
H           11.04130313375837        0.96735187657934       -1.19704554807434
H            9.83240309043666       -1.11179593059762       -0.52550676978804
H            5.11710444621706       -3.36603123790973        0.17449678810386
H            2.64931835160185       -3.05158787415622        0.12742877790087
H            0.91602231744890       -2.26324894169501       -1.28153730700345
H           -1.50428566333436       -1.88350411059975       -1.31745409174060
H           -2.48206613881338       -2.33769516495050        1.24406180558097
H           -4.01777275451078       -4.25820197269059        1.15542350015178
H           -6.65362531664189       -2.03824600007958       -1.37615931511206
H           -5.11375238513740       -0.12216727081720       -1.30395554241139
H           -1.71632394140234        2.09190173659885       -1.15715865515664
H           -2.58138061016761        4.39394859736039       -1.12283152731806
H           -5.89311334999195        3.11857521816801        1.26304723467679
H           -5.02258058594869        0.81888864540822        1.24693488426412
H           -1.03246229759851        1.36539739604004        1.42355665992557
H            1.38849554052569        0.98061062175791        1.45998058300488
H            3.26634953685266        1.20022439139716        0.08123336820946

 projected vibrational frequencies (cm⁻¹)
eigval :       -0.00    -0.00    -0.00     0.00     0.00     0.00
eigval :       10.15    11.27    16.96    22.33    25.74    35.79
eigval :       42.80    55.14    57.86    90.53    94.95   101.17
eigval :      113.40   122.04   124.88   138.02   148.37   154.26
eigval :      175.83   188.07   211.28   223.54   231.66   247.59
eigval :      271.35   279.78   284.90   298.75   311.79   321.27
eigval :      344.44   357.47   366.59   375.58   379.56   380.10
eigval :      381.39   387.19   407.85   422.82   426.53   438.86
eigval :      454.28   472.54   486.18   493.16   500.74   506.32
eigval :      524.09   530.42   565.16   590.06   592.13   597.03
eigval :      597.91   606.76   634.48   636.44   647.97   653.44
eigval :      661.86   665.22   673.60   694.24   715.29   733.80
eigval :      766.46   795.19   803.09   808.65   813.39   825.46
eigval :      862.47   862.83   863.27   866.04   870.56   898.95
eigval :      900.60   904.40   907.05   908.28   911.03   913.29
eigval :      919.08   922.25   923.87   929.42   936.98   985.99
eigval :      997.71  1008.23  1017.14  1044.76  1071.86  1073.96
eigval :     1090.90  1092.25  1099.80  1133.11  1136.17  1137.97
eigval :     1140.07  1150.13  1161.50  1172.34  1180.67  1184.07
eigval :     1189.28  1191.61  1214.40  1215.95  1220.56  1228.47
eigval :     1259.87  1262.27  1267.26  1278.61  1307.81  1309.67
eigval :     1311.53  1318.98  1324.82  1329.45  1333.02  1354.54
eigval :     1388.43  1400.65  1411.52  1413.33  1415.29  1421.74
eigval :     1449.74  1450.47  1451.36  1477.64  1499.67  1512.64
eigval :     1535.39  1546.86  1554.58  1557.87  1568.42  1569.67
eigval :     1573.20  1583.75  3078.74  3084.67  3086.67  3088.11
eigval :     3091.09  3092.76  3094.79  3096.12  3096.42  3097.06
eigval :     3097.69  3100.76  3104.14  3106.67  3107.09  3107.56
eigval :     3107.87  3108.37  3108.85

   temp. (K)  partition function   enthalpy   heat capacity  entropy
                                   cal/mol     cal/K/mol   cal/K/mol   J/K/mol
 298.15  VIB  0.203E+16            18887.879    114.383    118.432
         ROT  0.140E+09              888.752      2.981     40.257
         INT  0.284E+24            19776.632    117.364    158.690
         TR   0.159E+29             1481.254      4.968     45.256
         TOT                       21257.8854   122.3318   203.9453   853.3071

       T/K    H(0)-H(T)+PV         H(T)/Eh          T*S/Eh         G(T)/Eh
   ------------------------------------------------------------------------
    298.15    0.338766E-01    0.434515E+00    0.969010E-01    0.337614E+00
   ------------------------------------------------------------------------

         :::::::::::::::::::::::::::::::::::::::::::::::::::::
         ::                  THERMODYNAMIC                  ::
         :::::::::::::::::::::::::::::::::::::::::::::::::::::
         :: total free energy        -102.172393605842 Eh   ::
         ::.................................................::
         :: total energy             -102.510007744837 Eh   ::
         :: zero point energy           0.400638536103 Eh   ::
         :: G(RRHO) w/o ZPVE           -0.063024397108 Eh   ::
         :: G(RRHO) contrib.            0.337614138995 Eh   ::
         :::::::::::::::::::::::::::::::::::::::::::::::::::::

           -------------------------------------------------
          | TOTAL ENERGY             -102.510007744837 Eh   |
          | TOTAL ENTHALPY           -102.075492611959 Eh   |
          | TOTAL FREE ENERGY        -102.172393605842 Eh   |
          | GRADIENT NORM               0.000046224372 Eh/α |
           -------------------------------------------------

 * finished run on 2025/07/16 at 13:29:01.736
