   * xtb version 6.7.1 (edcfbbe) compiled by 'albert@albert-system' on 2024-07-22

   ID    Z sym.   atoms
    1    8 O      1, 10, 11
    2    6 C      2-8, 12-19, 21-24, 26-31, 33-38
    3   16 S      9
    4    7 N      20
    5   35 Br     25, 32
    6    1 H      39-57

          program call               : xtb data2507/gas/PCTXO/PCTXO_gas_S0_crest.xyz --gfn 2 --ohess vtight --parallel 40 --molden --ceasefiles --namespace data2507/gas/PCTXO/PCTXO_gas_S0_finalOpt
          :  Hamiltonian                  GFN2-xTB          :
 * total energy  :  -102.5835813 Eh     change       -0.3020176E-08 Eh
 * total energy  :  -102.5835824 Eh     change       -0.1082902E-05 Eh
 * total energy  :  -102.5835834 Eh     change       -0.1035681E-05 Eh
 * total energy  :  -102.5835847 Eh     change       -0.1320590E-05 Eh
 * total energy  :  -102.5835853 Eh     change       -0.5642823E-06 Eh
 * total energy  :  -102.5835857 Eh     change       -0.4213941E-06 Eh
 * total energy  :  -102.5835862 Eh     change       -0.4598411E-06 Eh
 * total energy  :  -102.5835865 Eh     change       -0.3139278E-06 Eh
 * total energy  :  -102.5835867 Eh     change       -0.2280801E-06 Eh
 * total energy  :  -102.5835869 Eh     change       -0.1976178E-06 Eh
 * total energy  :  -102.5835871 Eh     change       -0.2029062E-06 Eh
 * total energy  :  -102.5835874 Eh     change       -0.2604294E-06 Eh
 * total energy  :  -102.5835876 Eh     change       -0.2621511E-06 Eh
 * total energy  :  -102.5835879 Eh     change       -0.2154988E-06 Eh
 * total energy  :  -102.5835880 Eh     change       -0.1896917E-06 Eh
 * total energy  :  -102.5835882 Eh     change       -0.1913354E-06 Eh
 * total energy  :  -102.5835884 Eh     change       -0.1696893E-06 Eh
 * total energy  :  -102.5835885 Eh     change       -0.1145831E-06 Eh
 * total energy  :  -102.5835886 Eh     change       -0.7220940E-07 Eh
   *** GEOMETRY OPTIMIZATION CONVERGED AFTER 19 ITERATIONS ***

 final structure:
================
57
 xtb: 6.7.1 (edcfbbe)
O            5.45704106391049        2.31438735059359        0.55950265173878
C            5.90839796176324        1.23253183987878        0.24217488380171
C            7.30729195467190        1.10122588050674       -0.23861274316585
C            7.94105603884235        2.25022055513059       -0.71879190458433
C            9.23353844779981        2.19044138973985       -1.20435270296918
C            9.91925117149464        0.98460645377917       -1.21779276617231
C            9.30725989291954       -0.15983917511694       -0.73063713576701
C            8.01455664288690       -0.09512445640700       -0.25146771719366
S            7.29073874427914       -1.56295205865057        0.47203294835820
O            7.68490921043995       -2.71988913884729       -0.28368727537876
O            7.58290778710242       -1.55346092217019        1.88020416672516
C            5.53887487670375       -1.27896582675719        0.26808986210521
C            4.68194725413525       -2.36132919830349        0.23840325632629
C            3.31501711912371       -2.16107023676047        0.17243046773028
C            2.78908475555518       -0.86718382747306        0.15350101105000
C            1.33916426766384       -0.64449058038528        0.10838333863028
C            0.51048976186015       -1.46401614807759       -0.65737248032435
C           -0.85113218878525       -1.25324216532105       -0.70178748101840
C           -1.43028977165225       -0.21989923233773        0.03516528899221
N           -2.81348826829928       -0.00915723161535       -0.00041985277711
C           -3.68392429482555       -1.10150732519179       -0.04882725477584
C           -3.38594619080125       -2.27415329000995        0.64778575278056
C           -4.24066288661525       -3.35646641578781        0.59812893677853
C           -5.40667605965219       -3.27089539032851       -0.14509424194159
Br          -6.59053212995496       -4.76222995067457       -0.21157651685132
C           -5.72295885389027       -2.11557089461003       -0.84108766269906
C           -4.86208581754647       -1.03785951889088       -0.79506957884031
C           -3.32092679228610        1.29326489669122        0.01576827134982
C           -2.65472020232508        2.31956627327809       -0.65639689488365
C           -3.15082435702996        3.60723414635727       -0.63941832559024
C           -4.32418218498046        3.87682344210373        0.04599830292243
Br          -5.01495447093443        5.65216840673049        0.06492358467314
C           -5.00203987400881        2.87257282008861        0.71770364112549
C           -4.49881215888786        1.58753454459358        0.70477961558681
C           -0.60681970004983        0.59959892784468        0.80777705995833
C            0.75558679680728        0.39284639669390        0.83570311559839
C            3.66851283109900        0.21098206972233        0.18499472601935
C            5.04825685556379        0.02132992471077        0.23758167432427
H            7.39356249418155        3.18081719989549       -0.70033617862545
H            9.71013968259097        3.08635728854536       -1.57254455809447
H           10.92777753692817        0.93689632553141       -1.59905479023852
H            9.81185337496795       -1.11315921382546       -0.71709815226690
H            5.10713353671682       -3.35229560708209        0.26806658238364
H            2.64880079787208       -3.01027710093894        0.16417380695646
H            0.94187544061108       -2.25449333180539       -1.25278319708743
H           -1.47688964601262       -1.88474057970993       -1.31491176185539
H           -2.48155650418151       -2.33140039117639        1.23434612317245
H           -4.00769684583883       -4.25910586993273        1.14130482624613
H           -6.63068580658648       -2.06231857694520       -1.42179803061667
H           -5.09876153582084       -0.13974428411566       -1.34533161106436
H           -1.74644743939876        2.10192739300177       -1.19760868279950
H           -2.63401486214929        4.39627869031518       -1.16319992976913
H           -5.91110665204187        3.09539418860094        1.25433034874401
H           -5.01722277410991        0.80424353344413        1.23686668107011
H           -1.04545652570334        1.39453887547178        1.39233871064296
H            1.37369178163491        1.02268706452731        1.45693328072017
H            3.29793117554308        1.22483440297233        0.15049091573993

          :  Hamiltonian                  GFN2-xTB          :
         :: gradient norm              0.000043769423 Eh/a0 ::
         :: HOMO-LUMO gap              1.501827958109 eV    ::
         :: SCC energy              -104.168634625363 Eh    ::
         :: -> dispersion             -0.082982973103 Eh    ::
         :: repulsion energy           1.585046028548 Eh    ::

    * Orbital Energies and Occupations

         #    Occupation            Energy/Eh            Energy/eV
      -------------------------------------------------------------
         1        2.0000           -0.8426313             -22.9292
       ...           ...                  ...                  ...
        81        2.0000           -0.4421338             -12.0311
        82        2.0000           -0.4411998             -12.0057
        83        2.0000           -0.4404043             -11.9840
        84        2.0000           -0.4386001             -11.9349
        85        2.0000           -0.4332884             -11.7904
        86        2.0000           -0.4305632             -11.7162
        87        2.0000           -0.4282580             -11.6535
        88        2.0000           -0.4167736             -11.3410
        89        2.0000           -0.4162984             -11.3281
        90        2.0000           -0.4141719             -11.2702
        91        2.0000           -0.4088725             -11.1260
        92        2.0000           -0.4079712             -11.1015
        93        2.0000           -0.3767986             -10.2532 (HOMO)
        94                         -0.3216074              -8.7514 (LUMO)
        95                         -0.2831239              -7.7042
        96                         -0.2688012              -7.3145
        97                         -0.2661720              -7.2429
        98                         -0.2623769              -7.1396
        99                         -0.2601164              -7.0781
       100                         -0.2556038              -6.9553
       101                         -0.2505401              -6.8175
       102                         -0.2493563              -6.7853
       103                         -0.2271848              -6.1820
       104                         -0.2107415              -5.7346
       ...                                ...                  ...
       186                          1.2079740              32.8706
      -------------------------------------------------------------
                  HL-Gap            0.0551912 Eh            1.5018 eV

     #   Z          covCN         q      C6AA      α(0)
     1   8 O        0.858    -0.347    20.658     6.094
     2   6 C        2.829     0.223    23.310     7.912
     3   6 C        3.005    -0.013    28.321     8.730
     4   6 C        2.927    -0.013    28.346     8.731
     5   6 C        2.917    -0.022    28.549     8.762
     6   6 C        2.921    -0.015    28.391     8.738
     7   6 C        2.962    -0.019    28.471     8.752
     8   6 C        2.971    -0.069    29.725     8.943
     9  16 S        3.824     0.960   107.806    17.475
    10   8 O        0.860    -0.533    24.531     6.641
    11   8 O        0.860    -0.538    24.643     6.656
    12   6 C        2.971    -0.074    29.840     8.960
    13   6 C        2.958    -0.020    28.507     8.757
    14   6 C        2.926    -0.024    28.597     8.770
    15   6 C        2.973     0.021    27.538     8.608
    16   6 C        2.976     0.004    27.928     8.669
    17   6 C        2.924    -0.032    28.799     8.800
    18   6 C        2.920    -0.046    29.155     8.854
    19   6 C        2.925     0.064    26.564     8.452
    20   7 N        2.752    -0.067    22.536     7.051
    21   6 C        2.923     0.064    26.570     8.453
    22   6 C        2.925    -0.046    29.151     8.854
    23   6 C        2.988    -0.034    28.839     8.809
    24   6 C        2.916     0.077    26.284     8.407
    25  35 Br       1.063    -0.168   189.685    22.206
    26   6 C        2.988    -0.034    28.837     8.809
    27   6 C        2.925    -0.047    29.158     8.855
    28   6 C        2.923     0.064    26.572     8.453
    29   6 C        2.925    -0.046    29.147     8.854
    30   6 C        2.988    -0.034    28.834     8.808
    31   6 C        2.917     0.077    26.279     8.406
    32  35 Br       1.063    -0.167   189.672    22.206
    33   6 C        2.988    -0.034    28.835     8.809
    34   6 C        2.925    -0.046    29.154     8.855
    35   6 C        2.920    -0.046    29.134     8.851
    36   6 C        2.924    -0.031    28.778     8.797
    37   6 C        2.933    -0.022    28.545     8.762
    38   6 C        3.004    -0.014    28.357     8.735
    39   1 H        0.926     0.077     2.013     2.219
    40   1 H        0.926     0.060     2.203     2.321
    41   1 H        0.926     0.061     2.183     2.311
    42   1 H        0.926     0.069     2.100     2.266
    43   1 H        0.926     0.067     2.114     2.274
    44   1 H        0.926     0.059     2.209     2.324
    45   1 H        0.926     0.042     2.426     2.436
    46   1 H        0.926     0.039     2.465     2.455
    47   1 H        0.926     0.046     2.375     2.410
    48   1 H        0.926     0.058     2.227     2.334
    49   1 H        0.926     0.058     2.225     2.332
    50   1 H        0.926     0.045     2.387     2.416
    51   1 H        0.926     0.046     2.375     2.410
    52   1 H        0.926     0.058     2.224     2.332
    53   1 H        0.926     0.058     2.223     2.332
    54   1 H        0.926     0.045     2.386     2.416
    55   1 H        0.926     0.040     2.443     2.444
    56   1 H        0.926     0.048     2.346     2.395
    57   1 H        0.926     0.075     2.032     2.229

molecular dipole:
                 x           y           z       tot (Debye)
 q only:       -0.033       0.671      -1.362
   full:        0.510       0.449      -1.344       3.827

 projected vibrational frequencies (cm⁻¹)
eigval :       -0.00    -0.00    -0.00    -0.00     0.00     0.00
eigval :       10.69    11.50    16.64    22.48    25.83    37.30
eigval :       43.49    55.09    58.73    86.96    94.56    98.73
eigval :      114.33   119.05   121.08   127.21   147.00   152.57
eigval :      176.06   186.50   205.89   222.01   228.87   245.27
eigval :      271.02   280.58   292.53   301.27   313.40   324.69
eigval :      342.67   367.58   370.23   378.08   378.73   382.23
eigval :      387.57   388.53   406.90   424.66   431.99   438.51
eigval :      454.51   482.35   489.89   491.51   501.40   510.49
eigval :      543.73   553.82   587.77   597.72   599.10   606.39
eigval :      613.08   634.02   638.55   656.68   659.14   664.53
eigval :      675.22   678.65   696.97   721.86   733.86   736.60
eigval :      788.81   804.28   806.42   811.87   816.62   841.42
eigval :      864.94   866.64   871.30   890.92   893.16   907.24
eigval :      910.27   910.93   912.68   918.65   921.61   923.07
eigval :      923.74   923.94   930.77   932.52   947.28   988.99
eigval :     1009.71  1016.72  1024.50  1065.54  1079.97  1084.32
eigval :     1094.43  1094.88  1115.23  1136.15  1137.77  1142.32
eigval :     1152.60  1162.41  1169.88  1179.11  1184.83  1191.57
eigval :     1196.03  1216.01  1220.64  1227.58  1243.75  1245.65
eigval :     1261.60  1264.58  1270.72  1294.42  1311.40  1319.97
eigval :     1320.56  1324.97  1325.16  1326.67  1329.49  1377.46
eigval :     1401.08  1411.33  1412.79  1417.14  1444.50  1450.24
eigval :     1456.44  1460.88  1493.55  1553.34  1557.92  1561.79
eigval :     1562.41  1565.54  1569.86  1579.62  1582.41  1588.30
eigval :     1595.66  1689.35  3083.80  3087.29  3088.07  3091.24
eigval :     3092.37  3092.75  3093.32  3093.74  3093.95  3094.96
eigval :     3096.25  3100.15  3100.99  3105.40  3105.75  3106.22
eigval :     3106.68  3106.78  3108.12

   temp. (K)  partition function   enthalpy   heat capacity  entropy
                                   cal/mol     cal/K/mol   cal/K/mol   J/K/mol
 298.15  VIB  0.187E+16            18747.715    113.099    117.969
         ROT  0.141E+09              888.752      2.981     40.266
         INT  0.263E+24            19636.468    116.080    158.235
         TR   0.159E+29             1481.254      4.968     45.256
         TOT                       21117.7216   121.0485   203.4909   851.4060

       T/K    H(0)-H(T)+PV         H(T)/Eh          T*S/Eh         G(T)/Eh
   ------------------------------------------------------------------------
    298.15    0.336532E-01    0.437448E+00    0.966851E-01    0.340763E+00
   ------------------------------------------------------------------------

         :::::::::::::::::::::::::::::::::::::::::::::::::::::
         ::                  THERMODYNAMIC                  ::
         :::::::::::::::::::::::::::::::::::::::::::::::::::::
         :: total free energy        -102.242825452042 Eh   ::
         ::.................................................::
         :: total energy             -102.583588596808 Eh   ::
         :: zero point energy           0.403795011917 Eh   ::
         :: G(RRHO) w/o ZPVE           -0.063031867151 Eh   ::
         :: G(RRHO) contrib.            0.340763144766 Eh   ::
         :::::::::::::::::::::::::::::::::::::::::::::::::::::

           -------------------------------------------------
          | TOTAL ENERGY             -102.583588596808 Eh   |
          | TOTAL ENTHALPY           -102.146140353430 Eh   |
          | TOTAL FREE ENERGY        -102.242825452042 Eh   |
          | GRADIENT NORM               0.000043628481 Eh/α |
          | HOMO-LUMO GAP               1.501828352292 eV   |
           -------------------------------------------------

 * finished run on 2025/07/16 at 13:24:08.656
