   * xtb version 6.7.1 (edcfbbe) compiled by 'albert@albert-system' on 2024-07-22

   ID    Z sym.   atoms
    1    8 O      1, 10, 11
    2    6 C      2-8, 12-19, 21-24, 26-31, 33-38
    3   16 S      9
    4    7 N      20
    5   35 Br     25, 32
    6    1 H      39-57

          program call               : xtb data2507/gas/PCTXO/PCTXO.xyz --gfn 2 --ohess vtight --parallel 40 --molden --ceasefiles --namespace data2507/gas/PCTXO/PCTXO_gas_S0_preOpt
          :  Hamiltonian                  GFN2-xTB          :
 * total energy  :  -102.5645006 Eh     change       -0.3395812E-08 Eh
 * total energy  :  -102.5755857 Eh     change       -0.1108514E-01 Eh
 * total energy  :  -102.5801659 Eh     change       -0.4580257E-02 Eh
 * total energy  :  -102.5814328 Eh     change       -0.1266827E-02 Eh
 * total energy  :  -102.5821091 Eh     change       -0.6762827E-03 Eh
 * total energy  :  -102.5823594 Eh     change       -0.2503805E-03 Eh
 * total energy  :  -102.5825076 Eh     change       -0.1481618E-03 Eh
 * total energy  :  -102.5826187 Eh     change       -0.1110979E-03 Eh
 * total energy  :  -102.5826917 Eh     change       -0.7301875E-04 Eh
 * total energy  :  -102.5827343 Eh     change       -0.4253746E-04 Eh
 * total energy  :  -102.5835769 Eh     change       -0.2569441E-05 Eh
 * total energy  :  -102.5835791 Eh     change       -0.2227354E-05 Eh
 * total energy  :  -102.5835809 Eh     change       -0.1728936E-05 Eh
 * total energy  :  -102.5835822 Eh     change       -0.1316905E-05 Eh
 * total energy  :  -102.5835833 Eh     change       -0.1070275E-05 Eh
 * total energy  :  -102.5835842 Eh     change       -0.9715686E-06 Eh
 * total energy  :  -102.5835853 Eh     change       -0.1074036E-05 Eh
 * total energy  :  -102.5835862 Eh     change       -0.8884047E-06 Eh
 * total energy  :  -102.5835862 Eh     change       -0.1592238E-07 Eh
   *** GEOMETRY OPTIMIZATION CONVERGED AFTER 68 ITERATIONS ***

 final structure:
================
57
 xtb: 6.7.1 (edcfbbe)
O            4.44263576490306        2.14354971299530        0.85271908465203
C            4.86823092177384        1.06109972165282        0.50314133262496
C            6.27896941767839        0.90186317202073        0.06725343467878
C            6.97055990029452        2.04901250799136       -0.33073615447014
C            8.27846554078818        1.96616071721891       -0.76929543998552
C            8.92241939174933        0.73836037652781       -0.81717431858701
C            8.25232461016886       -0.40547140467288       -0.41205037833142
C            6.94464224986519       -0.31729672110554        0.02049138938502
S            6.14449209391601       -1.79213209767534        0.64161513887792
O            6.52414886918993       -2.92300229713685       -0.15960044883879
O            6.38740939155403       -1.86472033324344        2.05737955536064
C            4.41178683305871       -1.43426746513692        0.39553414447179
C            3.51949071879697       -2.48233763406393        0.28551151828366
C            2.16300071940994       -2.23018464188033        0.18922693593484
C            1.68278096263374       -0.91889799483496        0.22104892204188
C            0.24318305720595       -0.64270696175386        0.14808240295932
C           -0.59070631262741       -1.39189982846026       -0.68136016548800
C           -1.94266773520524       -1.13139549116423       -0.75049732635174
C           -2.50739553082513       -0.11814170508196        0.02459526385066
N           -3.88133574304511        0.14165780456642       -0.03598417355888
C           -4.78554004034558       -0.91630775860161       -0.16498250426552
C           -4.54651310157384       -2.13283525062256        0.47691878523835
C           -5.43523548804000       -3.18072645761851        0.34834961836477
C           -6.57642725780207       -3.01654864197835       -0.41977860186723
Br          -7.80769155171926       -4.46000496823569       -0.59428287742746
C           -6.83409485093174       -1.81682493906256       -1.06283148306967
C           -5.93928812003091       -0.77355624063620       -0.93793395948689
C           -4.34672877260788        1.45760245855610        0.03924095550583
C           -3.62886124154111        2.49626776690354       -0.55638205847955
C           -4.08312972857566        3.79716938267991       -0.48012294677740
C           -5.26607473503465        4.06821816117145        0.18801056780841
Br          -5.89880794898022        5.86232119506242        0.28898912118081
C           -5.99521254328664        3.05191085252571        0.78354390153309
C           -5.53378046704350        1.75321206856252        0.71181658640239
C           -1.67883672674079        0.63085669134036        0.86074645879950
C           -0.32542866663970        0.37544043415872        0.91337463119811
C            2.59746677436518        0.12414721614341        0.33138443276823
C            3.96771728044256       -0.11711259769236        0.41462987208161
H            6.45532986009135        2.99699240422703       -0.28627665646633
H            8.79989284018075        2.86111571038743       -1.07351885826023
H            9.94319593417452        0.67278323143748       -1.16140888115293
H            8.72261101781021       -1.37616191464567       -0.42732976607745
H            3.90930698120900       -3.48816598159504        0.27786462526615
H            1.46859083451921       -3.05348197585149        0.11803986689384
H           -0.16962933957467       -2.16528690136997       -1.30589177170359
H           -2.57178304167156       -1.70795932750981       -1.41236668932870
H           -3.66133741178175       -2.25154346537888        1.08324617710527
H           -5.24797273962502       -4.11758229233207        0.84966177018818
H           -7.72287033869416       -1.70227356721960       -1.66365991489465
H           -6.13016975987730        0.15929826927541       -1.44663611509576
H           -2.71314336199902        2.27815348865182       -1.08468968304530
H           -3.52623231738660        4.59596694559204       -0.94468244952982
H           -6.91161665425595        3.27540338688759        1.30725498508096
H           -6.09245073882682        0.95985644001676        1.18497502361214
H           -2.10664674847028        1.40911312073508        1.47502175291650
H            0.29581906338852        0.95018970326761        1.58300721204594
H            2.26313898558597        1.15110391600915        0.33679515541173

          :  Hamiltonian                  GFN2-xTB          :
         :: gradient norm              0.000118639909 Eh/a0 ::
         :: HOMO-LUMO gap              1.499318570751 eV    ::
         :: SCC energy              -104.168533737413 Eh    ::
         :: -> dispersion             -0.082982238111 Eh    ::
         :: repulsion energy           1.584947531997 Eh    ::

    * Orbital Energies and Occupations

         #    Occupation            Energy/Eh            Energy/eV
      -------------------------------------------------------------
         1        2.0000           -0.8426522             -22.9297
       ...           ...                  ...                  ...
        81        2.0000           -0.4421073             -12.0304
        82        2.0000           -0.4411928             -12.0055
        83        2.0000           -0.4403863             -11.9835
        84        2.0000           -0.4385769             -11.9343
        85        2.0000           -0.4332466             -11.7892
        86        2.0000           -0.4305656             -11.7163
        87        2.0000           -0.4282699             -11.6538
        88        2.0000           -0.4167960             -11.3416
        89        2.0000           -0.4162587             -11.3270
        90        2.0000           -0.4141565             -11.2698
        91        2.0000           -0.4088634             -11.1257
        92        2.0000           -0.4079712             -11.1015
        93        2.0000           -0.3767796             -10.2527 (HOMO)
        94                         -0.3216807              -8.7534 (LUMO)
        95                         -0.2830727              -7.7028
        96                         -0.2687814              -7.3139
        97                         -0.2661673              -7.2428
        98                         -0.2623918              -7.1400
        99                         -0.2601120              -7.0780
       100                         -0.2555869              -6.9549
       101                         -0.2505455              -6.8177
       102                         -0.2493219              -6.7844
       103                         -0.2271352              -6.1807
       104                         -0.2107651              -5.7352
       ...                                ...                  ...
       186                          1.2077276              32.8639
      -------------------------------------------------------------
                  HL-Gap            0.0550989 Eh            1.4993 eV

     #   Z          covCN         q      C6AA      α(0)
     1   8 O        0.858    -0.348    20.662     6.094
     2   6 C        2.829     0.223    23.312     7.912
     3   6 C        3.005    -0.013    28.321     8.730
     4   6 C        2.927    -0.013    28.346     8.731
     5   6 C        2.917    -0.022    28.549     8.762
     6   6 C        2.921    -0.015    28.390     8.738
     7   6 C        2.962    -0.019    28.471     8.752
     8   6 C        2.971    -0.069    29.724     8.943
     9  16 S        3.824     0.960   107.806    17.475
    10   8 O        0.860    -0.533    24.531     6.641
    11   8 O        0.860    -0.538    24.646     6.656
    12   6 C        2.971    -0.074    29.840     8.960
    13   6 C        2.959    -0.020    28.507     8.758
    14   6 C        2.926    -0.024    28.596     8.770
    15   6 C        2.973     0.021    27.538     8.608
    16   6 C        2.976     0.004    27.929     8.669
    17   6 C        2.924    -0.032    28.799     8.800
    18   6 C        2.920    -0.047    29.155     8.855
    19   6 C        2.925     0.064    26.564     8.452
    20   7 N        2.752    -0.067    22.535     7.051
    21   6 C        2.923     0.064    26.570     8.453
    22   6 C        2.925    -0.046    29.150     8.854
    23   6 C        2.988    -0.034    28.839     8.809
    24   6 C        2.916     0.077    26.283     8.407
    25  35 Br       1.063    -0.168   189.683    22.206
    26   6 C        2.988    -0.034    28.837     8.809
    27   6 C        2.925    -0.047    29.157     8.855
    28   6 C        2.923     0.064    26.572     8.453
    29   6 C        2.925    -0.046    29.147     8.854
    30   6 C        2.988    -0.034    28.834     8.808
    31   6 C        2.917     0.077    26.280     8.406
    32  35 Br       1.063    -0.167   189.673    22.206
    33   6 C        2.988    -0.034    28.835     8.809
    34   6 C        2.925    -0.047    29.155     8.855
    35   6 C        2.920    -0.046    29.135     8.851
    36   6 C        2.924    -0.031    28.778     8.797
    37   6 C        2.933    -0.022    28.544     8.762
    38   6 C        3.004    -0.014    28.357     8.735
    39   1 H        0.926     0.077     2.012     2.218
    40   1 H        0.926     0.060     2.203     2.321
    41   1 H        0.926     0.061     2.183     2.311
    42   1 H        0.926     0.069     2.101     2.267
    43   1 H        0.926     0.067     2.114     2.274
    44   1 H        0.926     0.059     2.209     2.324
    45   1 H        0.926     0.042     2.426     2.436
    46   1 H        0.926     0.039     2.466     2.456
    47   1 H        0.926     0.046     2.375     2.410
    48   1 H        0.926     0.058     2.227     2.334
    49   1 H        0.926     0.058     2.224     2.332
    50   1 H        0.926     0.045     2.386     2.416
    51   1 H        0.926     0.046     2.375     2.410
    52   1 H        0.926     0.058     2.224     2.332
    53   1 H        0.926     0.058     2.223     2.332
    54   1 H        0.926     0.045     2.387     2.416
    55   1 H        0.926     0.040     2.443     2.444
    56   1 H        0.926     0.048     2.347     2.396
    57   1 H        0.926     0.075     2.030     2.228

molecular dipole:
                 x           y           z       tot (Debye)
 q only:        0.040       0.737      -1.323
   full:        0.575       0.495      -1.301       3.829

 projected vibrational frequencies (cm⁻¹)
eigval :       -0.00    -0.00    -0.00    -0.00     0.00     0.00
eigval :       10.56    11.52    16.61    22.46    25.76    37.28
eigval :       43.52    55.03    58.71    86.90    94.56    98.76
eigval :      114.30   119.14   121.13   127.14   147.08   152.61
eigval :      176.11   186.55   206.04   222.10   228.80   245.28
eigval :      271.07   280.59   292.36   301.34   313.50   324.77
eigval :      342.77   367.78   370.36   378.16   378.86   382.26
eigval :      387.60   388.53   406.89   424.60   431.93   438.56
eigval :      454.54   482.48   489.96   491.52   501.53   510.45
eigval :      543.94   553.88   587.54   597.72   599.08   606.39
eigval :      612.98   634.02   638.54   656.62   659.14   664.47
eigval :      675.22   678.66   696.94   721.91   733.90   736.58
eigval :      788.89   804.33   806.45   811.92   816.58   841.45
eigval :      864.97   866.64   871.33   891.00   893.27   907.22
eigval :      910.30   910.94   912.70   918.67   921.63   923.09
eigval :      923.78   923.99   930.80   932.56   947.31   989.00
eigval :     1009.70  1016.71  1024.52  1065.59  1080.05  1084.35
eigval :     1094.45  1094.89  1115.08  1136.15  1137.78  1142.34
eigval :     1152.63  1162.41  1169.86  1178.99  1184.87  1191.59
eigval :     1196.02  1215.99  1220.63  1227.53  1243.73  1245.50
eigval :     1261.60  1264.57  1270.70  1294.39  1311.36  1319.90
eigval :     1320.56  1324.99  1325.13  1326.67  1329.49  1377.32
eigval :     1401.06  1411.26  1412.81  1417.10  1444.57  1450.27
eigval :     1456.45  1460.86  1493.55  1553.32  1557.88  1561.74
eigval :     1562.41  1565.53  1569.85  1579.62  1582.42  1588.30
eigval :     1595.64  1688.79  3083.77  3087.29  3088.04  3091.22
eigval :     3092.29  3092.73  3093.29  3093.68  3093.96  3094.93
eigval :     3096.20  3100.10  3100.95  3105.34  3105.74  3106.20
eigval :     3106.65  3106.68  3108.02

   temp. (K)  partition function   enthalpy   heat capacity  entropy
                                   cal/mol     cal/K/mol   cal/K/mol   J/K/mol
 298.15  VIB  0.190E+16            18746.970    113.094    117.975
         ROT  0.141E+09              888.752      2.981     40.267
         INT  0.267E+24            19635.722    116.075    158.242
         TR   0.159E+29             1481.254      4.968     45.256
         TOT                       21116.9760   121.0433   203.4975   851.4336

       T/K    H(0)-H(T)+PV         H(T)/Eh          T*S/Eh         G(T)/Eh
   ------------------------------------------------------------------------
    298.15    0.336520E-01    0.437446E+00    0.966882E-01    0.340758E+00
   ------------------------------------------------------------------------

         :::::::::::::::::::::::::::::::::::::::::::::::::::::
         ::                  THERMODYNAMIC                  ::
         :::::::::::::::::::::::::::::::::::::::::::::::::::::
         :: total free energy        -102.242827978636 Eh   ::
         ::.................................................::
         :: total energy             -102.583586205411 Eh   ::
         :: zero point energy           0.403794418344 Eh   ::
         :: G(RRHO) w/o ZPVE           -0.063036191569 Eh   ::
         :: G(RRHO) contrib.            0.340758226775 Eh   ::
         :::::::::::::::::::::::::::::::::::::::::::::::::::::

           -------------------------------------------------
          | TOTAL ENERGY             -102.583586205411 Eh   |
          | TOTAL ENTHALPY           -102.146139743842 Eh   |
          | TOTAL FREE ENERGY        -102.242827978636 Eh   |
          | GRADIENT NORM               0.000118679205 Eh/α |
          | HOMO-LUMO GAP               1.499316236385 eV   |
           -------------------------------------------------

 * finished run on 2025/07/16 at 13:20:36.352
