   * xtb version 6.7.1 (edcfbbe) compiled by 'albert@albert-system' on 2024-07-22

   ID    Z sym.   atoms
    1    6 C      1, 2, 4-8, 10-15, 18-23, 25, 26, 28-33, 35-40, 42, 43,
                  45-50, 52
    2    7 N      3, 9, 16, 17, 24, 27, 34, 41, 44, 51
    3    1 H      53-88

          program call               : xtb data2507/toluene/MOF/MOF_toluene_S0_finalOpt.xtbopt.xyz --gfn 2 --uhf 2 --gbsa toluene --ohess vtight --parallel 40 --molden --ceasefiles --namespace data2507/toluene/MOF/MOF_toluene_T1_preOpt
      * Solvation model:               GBSA
        Solvent                        toluene
        Solvent mass                       9.2140E+01 g/mol
          :  Hamiltonian                  GFN2-xTB          :
 * total energy  :  -137.5570229 Eh     change        0.5535128E-09 Eh
 * total energy  :  -137.5587696 Eh     change       -0.1746645E-02 Eh
 * total energy  :  -137.5591013 Eh     change       -0.3317167E-03 Eh
 * total energy  :  -137.5591682 Eh     change       -0.6693311E-04 Eh
 * total energy  :  -137.5592318 Eh     change       -0.6359265E-04 Eh
 * total energy  :  -137.5592596 Eh     change       -0.2773284E-04 Eh
 * total energy  :  -137.5592896 Eh     change       -0.3003452E-04 Eh
 * total energy  :  -137.5593127 Eh     change       -0.2309201E-04 Eh
 * total energy  :  -137.5593400 Eh     change       -0.2729200E-04 Eh
 * total energy  :  -137.5593733 Eh     change       -0.3333476E-04 Eh
 * total energy  :  -137.6053574 Eh     change       -0.2009619E-05 Eh
 * total energy  :  -137.6053587 Eh     change       -0.1262188E-05 Eh
 * total energy  :  -137.6053599 Eh     change       -0.1228376E-05 Eh
 * total energy  :  -137.6053609 Eh     change       -0.1044314E-05 Eh
 * total energy  :  -137.6053616 Eh     change       -0.6690246E-06 Eh
 * total energy  :  -137.6053622 Eh     change       -0.5709360E-06 Eh
 * total energy  :  -137.6053626 Eh     change       -0.4154847E-06 Eh
 * total energy  :  -137.6053628 Eh     change       -0.1974077E-06 Eh
 * total energy  :  -137.6053628 Eh     change       -0.9974173E-08 Eh
   *** GEOMETRY OPTIMIZATION CONVERGED AFTER 122 ITERATIONS ***

 final structure:
================
88
 xtb: 6.7.1 (edcfbbe)
C            4.45688451058968        1.69635690640232        2.82024923035907
C            4.99974937634552        0.43663604353566        3.02773673576552
N            4.27117622128220       -0.66722191281969        3.04284914569316
C            2.97234249709601       -0.56651821437104        2.83040882315758
C            2.32001743859791        0.63737704001888        2.57487423073403
C            0.84285604371681        0.67150016821962        2.29514556529405
C            0.53926397644312        1.25819444805259        0.92051373448676
C           -0.99576144813493        1.47348449586622        0.66201061755108
N           -1.40460805997183        2.71987608665629        1.22183112742984
C           -2.37061798182655        2.46013822247930        2.09742130411604
C           -3.09083986046118        3.34212223925959        2.91941634092925
C           -4.05599121044168        2.81352739463596        3.74455739091784
C           -4.32969209180901        1.43923493358293        3.77832042996803
C           -3.63941206780461        0.54045482625926        2.98106729454964
C           -2.66406776445288        1.05013758364302        2.14307457428996
N           -1.82483143036871        0.45978352889111        1.26488216274585
N            1.06929818892066        0.55823996534140       -0.22935042028832
C            1.22152366126843       -0.88747944032618       -0.13628496543593
C            1.88265490260282       -1.48706884002736       -1.39028779909147
C            2.23832131701951       -2.91617197978991       -1.09868519996925
C            3.40936331005387       -3.25263704362028       -0.42890732192033
C            3.65662029815296       -4.58200755016905       -0.12921383899753
C            2.71322951924579       -5.52728427250804       -0.50442341366365
N            1.59831627971560       -5.22075284489686       -1.14885536589303
C            1.37514944743129       -3.95265666770402       -1.43792224466844
C           -0.00626170577582       -1.67141543554824        0.19206397626824
N           -0.05804432187942       -2.44408816696295        1.24147182689967
C           -1.29426712999505       -3.05258548012002        1.18725526406661
C           -1.89052912837891       -3.97264550410655        2.04054522819041
C           -3.17225825223973       -4.38486637475786        1.73618469684850
C           -3.85408380828809       -3.90133211439104        0.61791126994050
C           -3.27364136417418       -2.99169210036917       -0.24550130763105
C           -1.98590170055126       -2.57624375973459        0.04942817742781
N           -1.11752892624023       -1.71842000350744       -0.59815640396045
C            0.39292201085014        1.12947104732850       -1.36813275216725
C            1.17436759538984        2.34201627287694       -1.91139652572670
C            2.55861936386668        1.91522574057336       -2.30061736000132
C            2.88985596609041        1.60197761652046       -3.61421832108166
C            4.17550215625063        1.17390320788093       -3.90592036543315
C            5.08307390027325        1.06157515983847       -2.86314273018871
N            4.78045283650869        1.35566950376149       -1.60773258779608
C            3.55854315909611        1.77603662504682       -1.34019980742232
C           -1.06317365973871        1.51727858652798       -0.91179407726756
N           -1.98059354415845        0.61398428739769       -1.52274064755717
C           -2.85037172786408        1.34030129749698       -2.22030973946423
C           -3.92727998890369        0.92226113936475       -3.01948952314390
C           -4.71394890996579        1.89022126421885       -3.59854505417912
C           -4.46325347603076        3.25665643244748       -3.41090031971370
C           -3.39943329500476        3.69965935764046       -2.64206520457057
C           -2.59113593051513        2.74430111179941       -2.05646138903534
N           -1.44617389490809        2.86093327107907       -1.31721060108806
C            3.09442449987721        1.79336411579500        2.59108155079458
H            5.07955158486725        2.57595703967992        2.83639167319919
H            6.05789481459502        0.29820096492854        3.19884373003691
H            2.41425266415216       -1.49605924419322        2.86975821395093
H            0.42844291139750       -0.33434105083740        2.38299428676304
H            0.34284966659274        1.31179098655147        3.03161576220996
H            0.95838041031314        2.27285329201234        0.88228601557396
H           -2.87675022192705        4.39832856646186        2.89181446643066
H           -4.62165987171010        3.47057162576438        4.38633538725475
H           -5.09670037856524        1.07213930952332        4.44162829494776
H           -3.84985509713532       -0.51865840680618        3.00765220208651
H           -1.79834504266975       -0.49607437233856        0.98221368902255
H            1.91498909603169       -1.05609541034299        0.69165227112339
H            2.77462716768689       -0.90335973229381       -1.62417732187674
H            1.20079611137415       -1.45169947150406       -2.24397223713066
H            4.11256622119993       -2.48052143839210       -0.15152278758263
H            4.55661101284420       -4.87443203214838        0.38643302050120
H            2.84802831696122       -6.57821455009022       -0.28962032338070
H            0.45285653499994       -3.75068759050583       -1.97264516521662
H           -1.35961576195232       -4.34671826628221        2.90122362153110
H           -3.66327537789311       -5.10119041210370        2.37600512047456
H           -4.85577244855449       -4.25049135384460        0.42127895642058
H           -3.79558357359325       -2.62030791826270       -1.11502102781314
H           -1.43492042413869       -0.90237845090228       -1.13983547764320
H            0.31855384043363        0.39583464767385       -2.17413284080246
H            1.22055632977592        3.11720040230445       -1.14509641215627
H            0.64070842738590        2.74235590843052       -2.77519061323668
H            2.15027772806567        1.69879703121252       -4.39681595934718
H            4.46338759286719        0.93312802747990       -4.91635769908415
H            6.09704669701621        0.72568269801670       -3.02954521007381
H            3.35733220243209        2.00818375875036       -0.30223364941898
H           -4.11944534843374       -0.12937710049627       -3.16291472570589
H           -5.54883784460906        1.59371555039470       -4.21411967663573
H           -5.11198860816299        3.97818110839382       -3.88117026039876
H           -3.20278569023356        4.75114652581486       -2.50266333229986
H           -1.39270387865589        3.49932380347539       -0.53533206021968
H            2.63090777411436        2.75802535770444        2.43437402208943

          :  Hamiltonian                  GFN2-xTB          :
         :: gradient norm              0.000077203789 Eh/a0 ::
         :: HOMO-LUMO gap              2.263330629586 eV    ::
         :: SCC energy              -139.822619719909 Eh    ::
         :: -> dispersion             -0.134902379415 Eh    ::
         :: -> Gsolv                  -0.098913502873 Eh    ::
         :: repulsion energy           2.217256918317 Eh    ::

    * Orbital Energies and Occupations

         #    Occupation            Energy/Eh            Energy/eV
      -------------------------------------------------------------
         1        2.0000           -0.7467673             -20.3206
       ...           ...                  ...                  ...
       116        2.0000           -0.4563290             -12.4173
       117        2.0000           -0.4550305             -12.3820
       118        2.0000           -0.4503298             -12.2541
       119        2.0000           -0.4450957             -12.1117
       120        2.0000           -0.4442872             -12.0897
       121        2.0000           -0.4414475             -12.0124
       122        2.0000           -0.4411584             -12.0045
       123        2.0000           -0.4356691             -11.8552
       124        1.9999           -0.4150348             -11.2937
       125        1.9994           -0.4130472             -11.2396
       126        1.9989           -0.4124052             -11.2221
       127        1.0017           -0.3998815             -10.8813
       128        1.0000           -0.3797036             -10.3323 (HOMO)
       129                         -0.2965277              -8.0689 (LUMO)
       130                         -0.2960242              -8.0552
       131                         -0.2953365              -8.0365
       132                         -0.2919322              -7.9439
       133                         -0.2849695              -7.7544
       134                         -0.2832739              -7.7083
       135                         -0.2803026              -7.6274
       136                         -0.2780985              -7.5674
       137                         -0.2702852              -7.3548
       138                         -0.2689018              -7.3172
       139                         -0.2629216              -7.1545
       ...                                ...                  ...
       244                          0.6400518              17.4167
      -------------------------------------------------------------
                  HL-Gap            0.0831759 Eh            2.2633 eV

     #   Z          covCN         q      C6AA      α(0)
     1   6 C        2.912    -0.038    28.939     8.821
     2   6 C        2.912     0.055    26.758     8.482
     3   7 N        1.835    -0.216    26.532     7.633
     4   6 C        2.916     0.046    26.959     8.514
     5   6 C        2.965    -0.008    28.216     8.713
     6   6 C        3.806    -0.073    21.895     6.661
     7   6 C        3.853     0.079    19.232     6.237
     8   6 C        3.962     0.234    16.920     5.845
     9   7 N        1.866    -0.424    32.059     8.393
    10   6 C        3.071     0.096    25.807     8.330
    11   6 C        2.907    -0.066    29.649     8.928
    12   6 C        2.918    -0.038    28.955     8.824
    13   6 C        2.923    -0.033    28.815     8.803
    14   6 C        2.905    -0.077    29.927     8.970
    15   6 C        3.006     0.069    26.431     8.433
    16   7 N        2.746    -0.273    27.062     7.726
    17   7 N        2.735    -0.250    26.508     7.647
    18   6 C        3.801     0.057    19.616     6.306
    19   6 C        3.812    -0.070    21.826     6.650
    20   6 C        2.969    -0.009    28.241     8.717
    21   6 C        2.933    -0.023    28.577     8.767
    22   6 C        2.913    -0.038    28.945     8.822
    23   6 C        2.914     0.056    26.741     8.480
    24   7 N        1.835    -0.230    26.884     7.684
    25   6 C        2.918     0.054    26.781     8.486
    26   6 C        3.202     0.223    22.838     7.786
    27   7 N        1.884    -0.405    31.503     8.320
    28   6 C        3.190     0.071    25.950     8.310
    29   6 C        2.910    -0.060    29.503     8.907
    30   6 C        2.924    -0.045    29.128     8.851
    31   6 C        2.926    -0.044    29.098     8.846
    32   6 C        2.908    -0.074    29.836     8.957
    33   6 C        3.108     0.049    26.768     8.477
    34   7 N        2.757    -0.275    27.093     7.731
    35   6 C        3.849     0.073    19.330     6.254
    36   6 C        3.808    -0.080    22.025     6.681
    37   6 C        2.967    -0.004    28.115     8.697
    38   6 C        2.932    -0.026    28.645     8.777
    39   6 C        2.912    -0.041    29.019     8.833
    40   6 C        2.912     0.052    26.822     8.492
    41   7 N        1.835    -0.224    26.746     7.664
    42   6 C        2.916     0.052    26.838     8.495
    43   6 C        3.961     0.224    17.057     5.868
    44   7 N        1.877    -0.409    31.604     8.334
    45   6 C        3.056     0.092    25.916     8.349
    46   6 C        2.907    -0.065    29.623     8.925
    47   6 C        2.918    -0.034    28.855     8.809
    48   6 C        2.923    -0.030    28.753     8.793
    49   6 C        2.906    -0.067    29.668     8.931
    50   6 C        3.009     0.071    26.406     8.429
    51   7 N        2.731    -0.275    27.109     7.733
    52   6 C        2.933    -0.023    28.570     8.766
    53   1 H        0.926     0.075     2.031     2.228
    54   1 H        0.926     0.073     2.052     2.240
    55   1 H        0.925     0.030     2.583     2.513
    56   1 H        0.924     0.039     2.460     2.453
    57   1 H        0.924     0.031     2.566     2.505
    58   1 H        0.923     0.028     2.611     2.527
    59   1 H        0.926     0.052     2.298     2.371
    60   1 H        0.926     0.070     2.083     2.257
    61   1 H        0.926     0.067     2.116     2.275
    62   1 H        0.926     0.022     2.698     2.568
    63   1 H        0.861     0.262     0.839     1.435
    64   1 H        0.924     0.062     2.173     2.305
    65   1 H        0.924     0.050     2.322     2.383
    66   1 H        0.924     0.020     2.740     2.589
    67   1 H        0.926     0.053     2.284     2.363
    68   1 H        0.926     0.079     1.989     2.205
    69   1 H        0.926     0.068     2.108     2.271
    70   1 H        0.925     0.013     2.839     2.635
    71   1 H        0.926     0.049     2.337     2.391
    72   1 H        0.926     0.063     2.169     2.303
    73   1 H        0.926     0.057     2.229     2.335
    74   1 H        0.926     0.022     2.708     2.573
    75   1 H        0.871     0.287     0.753     1.359
    76   1 H        0.924     0.022     2.697     2.568
    77   1 H        0.924     0.036     2.503     2.474
    78   1 H        0.924     0.047     2.355     2.400
    79   1 H        0.926     0.046     2.368     2.406
    80   1 H        0.926     0.073     2.048     2.238
    81   1 H        0.926     0.068     2.106     2.269
    82   1 H        0.925     0.025     2.658     2.549
    83   1 H        0.926     0.038     2.472     2.458
    84   1 H        0.926     0.071     2.074     2.252
    85   1 H        0.926     0.077     2.012     2.218
    86   1 H        0.926     0.051     2.310     2.377
    87   1 H        0.860     0.234     0.950     1.527
    88   1 H        0.925     0.035     2.516     2.480

molecular dipole:
                 x           y           z       tot (Debye)
 q only:        0.293       1.433      -0.924
   full:       -0.810       2.179      -1.239       6.696

 projected vibrational frequencies (cm⁻¹)
eigval :       -0.00    -0.00    -0.00     0.00     0.00     0.00
eigval :       15.60    18.14    20.69    24.17    27.84    30.68
eigval :       32.77    37.85    44.79    47.70    50.92    53.36
eigval :       68.17    70.88    76.02    84.24    96.58   103.93
eigval :      111.51   120.39   144.01   146.66   158.04   176.81
eigval :      177.60   190.76   196.77   204.60   212.27   248.54
eigval :      258.99   270.53   276.39   292.69   305.50   314.39
eigval :      317.71   330.18   341.06   352.60   355.33   364.30
eigval :      366.26   372.45   374.00   389.33   410.37   413.29
eigval :      422.51   432.35   443.75   452.87   464.33   472.88
eigval :      494.40   498.99   512.90   517.68   536.23   545.02
eigval :      546.60   549.84   556.79   563.17   563.94   579.99
eigval :      592.69   600.30   601.63   604.30   605.19   608.03
eigval :      619.21   621.69   670.90   686.32   688.54   691.96
eigval :      695.67   700.46   708.19   712.48   715.71   732.19
eigval :      752.30   755.04   769.47   780.13   782.36   786.63
eigval :      801.72   816.86   837.89   844.45   845.16   852.17
eigval :      853.24   854.11   857.21   861.40   864.11   867.49
eigval :      870.84   880.25   882.17   884.82   886.64   893.94
eigval :      898.64   901.91   902.70   905.69   906.57   907.08
eigval :      910.75   915.98   917.60   919.17   924.99   927.08
eigval :      931.72   934.52   945.13   955.94   963.72   980.29
eigval :     1005.59  1006.91  1007.07  1026.25  1040.36  1044.30
eigval :     1049.77  1052.64  1056.10  1071.27  1075.94  1081.75
eigval :     1092.02  1092.58  1093.89  1097.80  1112.58  1123.19
eigval :     1128.56  1130.07  1134.90  1137.50  1141.02  1142.97
eigval :     1153.94  1161.82  1164.43  1164.92  1167.80  1175.39
eigval :     1184.37  1187.94  1192.22  1192.26  1193.14  1198.39
eigval :     1210.28  1215.31  1227.38  1230.99  1232.11  1234.70
eigval :     1237.83  1252.35  1262.22  1265.93  1267.00  1267.92
eigval :     1272.27  1277.54  1283.63  1286.13  1289.63  1292.96
eigval :     1293.79  1295.99  1299.34  1305.75  1311.67  1321.85
eigval :     1330.43  1333.31  1340.77  1357.95  1360.33  1362.45
eigval :     1363.67  1393.62  1409.06  1410.85  1412.32  1414.63
eigval :     1430.92  1443.88  1447.16  1448.67  1450.28  1473.58
eigval :     1473.80  1475.50  1478.30  1480.24  1487.57  1532.30
eigval :     1543.48  1543.92  1566.42  1567.57  1570.12  1576.96
eigval :     1577.41  1578.16  1581.66  1588.39  1590.57  1621.10
eigval :     2875.19  2928.21  2944.35  2951.68  2956.70  2970.77
eigval :     2981.51  2988.47  2990.50  2994.20  3019.48  3027.84
eigval :     3052.44  3060.06  3067.17  3074.47  3075.27  3077.43
eigval :     3078.45  3078.57  3078.97  3093.62  3096.33  3096.94
eigval :     3098.63  3103.00  3103.55  3106.05  3109.84  3110.04
eigval :     3111.70  3112.28  3113.31  3114.44  3324.28  3572.53

   temp. (K)  partition function   enthalpy   heat capacity  entropy
                                   cal/mol     cal/K/mol   cal/K/mol   J/K/mol
 298.15  VIB  0.294E+20            24702.274    154.679    154.078
         ROT  0.626E+08              888.752      2.981     38.656
         INT  0.184E+28            25591.027    157.659    192.734
         TR   0.172E+29             1481.254      4.968     45.415
         TOT                       27072.2807   162.6276   238.1484   996.4129

       T/K    H(0)-H(T)+PV         H(T)/Eh          T*S/Eh         G(T)/Eh
   ------------------------------------------------------------------------
    298.15    0.431424E-01    0.728664E+00    0.113152E+00    0.615512E+00
   ------------------------------------------------------------------------

         :::::::::::::::::::::::::::::::::::::::::::::::::::::
         ::                  THERMODYNAMIC                  ::
         :::::::::::::::::::::::::::::::::::::::::::::::::::::
         :: total free energy        -136.989851043490 Eh   ::
         ::.................................................::
         :: total energy             -137.605362802105 Eh   ::
         :: zero point energy           0.685521322298 Eh   ::
         :: G(RRHO) w/o ZPVE           -0.070009563683 Eh   ::
         :: G(RRHO) contrib.            0.615511758615 Eh   ::
         :::::::::::::::::::::::::::::::::::::::::::::::::::::

           -------------------------------------------------
          | TOTAL ENERGY             -137.605362802105 Eh   |
          | TOTAL ENTHALPY           -136.876699054341 Eh   |
          | TOTAL FREE ENERGY        -136.989851043490 Eh   |
          | GRADIENT NORM               0.000077200851 Eh/α |
          | HOMO-LUMO GAP               2.263331538554 eV   |
           -------------------------------------------------

 * finished run on 2025/08/29 at 19:10:23.656
