   * xtb version 6.7.1 (edcfbbe) compiled by 'albert@albert-system' on 2024-07-22

   ID    Z sym.   atoms
    1    6 C      1, 2, 4-8, 10-15, 18-23, 25, 26, 28-33, 35-40, 42, 43,
                  45-50, 52
    2    7 N      3, 9, 16, 17, 24, 27, 34, 41, 44, 51
    3    1 H      53-88

          program call               : xtb data2507/toluene/MOF/MOF_toluene_T1_crest.xyz --gfn 2 --uhf 2 --gbsa toluene --ohess vtight --parallel 40 --molden --ceasefiles --namespace data2507/toluene/MOF/MOF_toluene_T1_finalOpt
      * Solvation model:               GBSA
        Solvent                        toluene
        Solvent mass                       9.2140E+01 g/mol
          :  Hamiltonian                  GFN2-xTB          :
 * total energy  :  -137.5992532 Eh     change       -0.2839613E-08 Eh
 * total energy  :  -137.6002829 Eh     change       -0.1029683E-02 Eh
 * total energy  :  -137.6009577 Eh     change       -0.6747841E-03 Eh
 * total energy  :  -137.6011712 Eh     change       -0.2135182E-03 Eh
 * total energy  :  -137.6013919 Eh     change       -0.2207294E-03 Eh
 * total energy  :  -137.6015233 Eh     change       -0.1313211E-03 Eh
 * total energy  :  -137.6016644 Eh     change       -0.1411231E-03 Eh
 * total energy  :  -137.6017817 Eh     change       -0.1172915E-03 Eh
 * total energy  :  -137.6018593 Eh     change       -0.7760179E-04 Eh
 * total energy  :  -137.6019140 Eh     change       -0.5472943E-04 Eh
 * total energy  :  -137.6031746 Eh     change       -0.2649658E-06 Eh
 * total energy  :  -137.6031748 Eh     change       -0.1996432E-06 Eh
 * total energy  :  -137.6031750 Eh     change       -0.1759960E-06 Eh
 * total energy  :  -137.6031752 Eh     change       -0.2313556E-06 Eh
 * total energy  :  -137.6031755 Eh     change       -0.2684391E-06 Eh
 * total energy  :  -137.6031757 Eh     change       -0.2311640E-06 Eh
 * total energy  :  -137.6031759 Eh     change       -0.2283082E-06 Eh
 * total energy  :  -137.6031761 Eh     change       -0.1991222E-06 Eh
 * total energy  :  -137.6031761 Eh     change       -0.3416773E-08 Eh
   *** GEOMETRY OPTIMIZATION CONVERGED AFTER 94 ITERATIONS ***

 final structure:
================
88
 xtb: 6.7.1 (edcfbbe)
C            4.82473884858027       -0.40462556005989        2.76711432985417
C            4.43251064828595       -1.15625733404041        3.86356548710670
N            3.21186737069776       -1.10642177651133        4.37179880714936
C            2.32595589057190       -0.31477034666417        3.79909190641386
C            2.59403299881357        0.46990279848785        2.68000896879918
C            1.53988478567902        1.34190369871241        2.05762967620090
C            0.36191395156083        0.51794011464137        1.54249708653480
C            0.74816219494044       -0.58542089074543        0.49651727435415
N            1.14752411931121       -1.78105710738810        1.16701997961800
C            2.35643214242837       -2.09764836184592        0.72191353516877
C            3.17894473089267       -3.18192773137510        1.06842847182232
C            4.39951773128993       -3.29172026344884        0.44498398434400
C            4.82774103245238       -2.36375448610151       -0.51372395218928
C            4.04327865992531       -1.28108189209140       -0.87826618188865
C            2.81419710284758       -1.14830901993015       -0.25973533097008
N            1.84491093221848       -0.21209681610877       -0.36524897636426
N           -0.74121622212076        1.27783831251512        0.98228201845337
C           -0.41944294714491        2.54008787541507        0.32059696641105
C           -1.67734251357359        3.31395376338628       -0.12112917006902
C           -2.67035987129094        3.47102514564900        0.99429671412527
C           -2.35546416208236        4.16248865954179        2.16037777698516
C           -3.30606468383271        4.27372706426732        3.16085735442053
C           -4.54682141054435        3.68482257058527        2.96037145036266
N           -4.86444040891754        3.03804976026754        1.85166031786518
C           -3.95346573108433        2.94241165409263        0.90014912112203
C            0.53563792335506        2.46840934950072       -0.82871436313184
N            1.64031907893982        3.16393441468479       -0.83757938146272
C            2.23183259112500        2.90057036483323       -2.05393626428027
C            3.42590611337762        3.35599699250064       -2.60033268006157
C            3.77442044394729        2.88371827772653       -3.84943549359919
C            2.96674292599891        1.98276825597789       -4.54699483471626
C            1.77403887640368        1.52380921274118       -4.02168143061029
C            1.41503000511142        1.99417775544849       -2.76910347394306
N            0.30721753137504        1.76504463982669       -1.97605472131738
C           -1.56456443472993        0.31055227150316        0.29244691955303
C           -2.64778539613947       -0.23354899896968        1.23865275412250
C           -3.59486816255944       -1.18822139143000        0.57178119424719
C           -4.28654630417325       -0.86239743476543       -0.59013663178623
C           -5.14109487841592       -1.79107821965809       -1.16113555100493
C           -5.27857994272526       -3.02495511485985       -0.54420518614515
N           -4.63969604257512       -3.34539798984763        0.56918792188895
C           -3.83286962670608       -2.45254653465203        1.10766696445167
C           -0.61964792010044       -0.81929721399962       -0.26155748269034
N           -0.58463455214974       -0.70528405831755       -1.68400231005507
C           -1.00348040397290       -1.86403971253450       -2.18655818981134
C           -1.19519644184943       -2.24130522662419       -3.52521391593077
C           -1.60133614647782       -3.53039170361934       -3.77886117838488
C           -1.82276933444350       -4.45329202741143       -2.74688180266846
C           -1.65409555653078       -4.10792818940139       -1.41704159736345
C           -1.25759904459259       -2.81343533821155       -1.13789516390798
N           -1.08892073076537       -2.15813476774929        0.04359551760630
C            3.88589785269485        0.42066077768307        2.16969820453521
H            5.83309577081994       -0.45911709697176        2.39001529963747
H            5.11955239406718       -1.82160718444163        4.36739778860761
H            1.34710887949404       -0.30034805952392        4.26291224022126
H            1.15682536265193        2.03616821569366        2.81222665576557
H            1.98366290443069        1.91960060682499        1.24489258986295
H           -0.05359436881988       -0.04919715294035        2.38564505056160
H            2.84707803875528       -3.89209343563485        1.80836143533484
H            5.05016719791646       -4.11457890099777        0.69649192548698
H            5.79204386465581       -2.49510398739200       -0.97884104110237
H            4.37577394092534       -0.56420597381823       -1.61529282160262
H            1.75731346020717        0.48901935784648       -1.06996500716250
H            0.07726121401537        3.14969141807750        1.08168643253393
H           -2.14881974406750        2.82602717525594       -0.97794579006598
H           -1.33947233704275        4.30015156396199       -0.45344873580340
H           -1.38147632594744        4.61581075539128        2.27485119040336
H           -3.09101007114496        4.80836222752649        4.07182077558221
H           -5.32520266810207        3.73464451179446        3.70889076432675
H           -4.27216327661833        2.42099013893989        0.00486077925535
H            4.04591850706121        4.05405428735172       -2.06093413109223
H            4.69412187302798        3.21793077035157       -4.30364381569428
H            3.28129640402613        1.64011565840282       -5.52050412604807
H            1.14511568096800        0.82962077594272       -4.55894225064570
H           -0.20230618483225        0.86729795703306       -1.98409844032085
H           -2.05932518623186        0.78071000360538       -0.55805627304172
H           -3.20533420499416        0.63071684306131        1.61131700439236
H           -2.17752483519613       -0.72384105204779        2.09256960166736
H           -4.16334861606610        0.11015023017180       -1.04637118960759
H           -5.68894910450850       -1.55875358229880       -2.06023256274297
H           -5.92625424412595       -3.79042314618465       -0.94783860372816
H           -3.33869427464728       -2.76078550404045        2.02140113002436
H           -1.02448847225761       -1.53177732418965       -4.31973758688420
H           -1.75438423026836       -3.84475719461168       -4.79960364678303
H           -2.13645447437396       -5.45409499662185       -2.99705529664942
H           -1.83687117156102       -4.81285932476774       -0.62158058802681
H           -0.59814392610297       -2.56381018386099        0.82598274902837
H            4.15159957195929        1.02864477680057        1.31432330674406

          :  Hamiltonian                  GFN2-xTB          :
         :: gradient norm              0.000039302973 Eh/a0 ::
         :: HOMO-LUMO gap              2.092569008849 eV    ::
         :: SCC energy              -139.820641751376 Eh    ::
         :: -> dispersion             -0.140558002513 Eh    ::
         :: -> Gsolv                  -0.087870710581 Eh    ::
         :: repulsion energy           2.217465631962 Eh    ::

    * Orbital Energies and Occupations

         #    Occupation            Energy/Eh            Energy/eV
      -------------------------------------------------------------
         1        2.0000           -0.7460971             -20.3023
       ...           ...                  ...                  ...
       116        2.0000           -0.4566005             -12.4247
       117        2.0000           -0.4495555             -12.2330
       118        2.0000           -0.4451774             -12.1139
       119        2.0000           -0.4445090             -12.0957
       120        2.0000           -0.4420788             -12.0296
       121        2.0000           -0.4419164             -12.0252
       122        2.0000           -0.4408885             -11.9972
       123        2.0000           -0.4347213             -11.8294
       124        2.0000           -0.4162815             -11.3276
       125        2.0000           -0.4151656             -11.2972
       126        1.9999           -0.4129737             -11.2376
       127        1.0001           -0.3952581             -10.7555
       128        1.0000           -0.3757669             -10.2251 (HOMO)
       129                         -0.2988663              -8.1326 (LUMO)
       130                         -0.2965164              -8.0686
       131                         -0.2964176              -8.0659
       132                         -0.2938376              -7.9957
       133                         -0.2854760              -7.7682
       134                         -0.2844884              -7.7413
       135                         -0.2816758              -7.6648
       136                         -0.2727701              -7.4225
       137                         -0.2666569              -7.2561
       138                         -0.2647447              -7.2041
       139                         -0.2627186              -7.1489
       ...                                ...                  ...
       244                          0.6438752              17.5207
      -------------------------------------------------------------
                  HL-Gap            0.0769005 Eh            2.0926 eV

     #   Z          covCN         q      C6AA      α(0)
     1   6 C        2.912    -0.042    29.053     8.839
     2   6 C        2.913     0.054    26.782     8.486
     3   7 N        1.835    -0.220    26.629     7.647
     4   6 C        2.917     0.053    26.814     8.491
     5   6 C        2.965    -0.001    28.057     8.688
     6   6 C        3.807    -0.080    22.027     6.681
     7   6 C        3.847     0.071    19.359     6.258
     8   6 C        3.960     0.229    16.989     5.857
     9   7 N        1.866    -0.414    31.747     8.352
    10   6 C        3.070     0.102    25.668     8.307
    11   6 C        2.907    -0.067    29.656     8.929
    12   6 C        2.918    -0.040    28.993     8.830
    13   6 C        2.923    -0.034    28.846     8.808
    14   6 C        2.905    -0.078    29.948     8.973
    15   6 C        3.007     0.073    26.356     8.421
    16   7 N        2.744    -0.263    26.803     7.689
    17   7 N        2.734    -0.252    26.542     7.652
    18   6 C        3.796     0.051    19.731     6.325
    19   6 C        3.811    -0.069    21.820     6.649
    20   6 C        2.964    -0.001    28.059     8.689
    21   6 C        2.933    -0.022    28.561     8.765
    22   6 C        2.912    -0.039    28.968     8.826
    23   6 C        2.913     0.054    26.782     8.486
    24   7 N        1.835    -0.223    26.709     7.659
    25   6 C        2.918     0.048    26.917     8.508
    26   6 C        3.197     0.198    23.343     7.875
    27   7 N        1.884    -0.388    30.999     8.254
    28   6 C        3.186     0.067    26.056     8.329
    29   6 C        2.909    -0.059    29.469     8.901
    30   6 C        2.923    -0.045    29.121     8.850
    31   6 C        2.926    -0.044    29.081     8.844
    32   6 C        2.908    -0.071    29.777     8.948
    33   6 C        3.107     0.046    26.820     8.485
    34   7 N        2.756    -0.264    26.838     7.694
    35   6 C        3.842     0.071    19.361     6.259
    36   6 C        3.808    -0.082    22.054     6.685
    37   6 C        2.963     0.001    28.008     8.681
    38   6 C        2.934    -0.024    28.605     8.771
    39   6 C        2.912    -0.042    29.043     8.837
    40   6 C        2.913     0.053    26.817     8.492
    41   7 N        1.835    -0.219    26.609     7.644
    42   6 C        2.919     0.051    26.849     8.497
    43   6 C        3.958     0.220    17.109     5.877
    44   7 N        1.881    -0.407    31.567     8.329
    45   6 C        3.058     0.092    25.908     8.347
    46   6 C        2.907    -0.067    29.677     8.933
    47   6 C        2.918    -0.035    28.883     8.813
    48   6 C        2.923    -0.032    28.787     8.799
    49   6 C        2.906    -0.068    29.685     8.934
    50   6 C        3.010     0.075    26.315     8.415
    51   7 N        2.735    -0.253    26.573     7.656
    52   6 C        2.934    -0.023    28.574     8.767
    53   1 H        0.926     0.062     2.174     2.306
    54   1 H        0.926     0.066     2.126     2.280
    55   1 H        0.925     0.034     2.533     2.489
    56   1 H        0.924     0.050     2.314     2.379
    57   1 H        0.924     0.047     2.363     2.404
    58   1 H        0.924     0.031     2.576     2.510
    59   1 H        0.926     0.049     2.336     2.390
    60   1 H        0.926     0.068     2.110     2.271
    61   1 H        0.926     0.066     2.135     2.285
    62   1 H        0.926     0.022     2.700     2.570
    63   1 H        0.861     0.251     0.879     1.468
    64   1 H        0.924     0.055     2.256     2.349
    65   1 H        0.924     0.025     2.658     2.550
    66   1 H        0.924     0.056     2.250     2.346
    67   1 H        0.926     0.046     2.370     2.407
    68   1 H        0.926     0.072     2.066     2.248
    69   1 H        0.926     0.066     2.127     2.281
    70   1 H        0.925     0.026     2.647     2.544
    71   1 H        0.926     0.050     2.325     2.384
    72   1 H        0.926     0.061     2.192     2.315
    73   1 H        0.926     0.055     2.254     2.348
    74   1 H        0.926     0.022     2.702     2.571
    75   1 H        0.874     0.280     0.776     1.379
    76   1 H        0.924     0.033     2.547     2.496
    77   1 H        0.924     0.063     2.167     2.302
    78   1 H        0.924     0.034     2.527     2.486
    79   1 H        0.925     0.023     2.691     2.565
    80   1 H        0.926     0.064     2.151     2.294
    81   1 H        0.926     0.066     2.126     2.280
    82   1 H        0.925     0.034     2.525     2.485
    83   1 H        0.926     0.037     2.484     2.465
    84   1 H        0.926     0.069     2.100     2.266
    85   1 H        0.926     0.074     2.043     2.235
    86   1 H        0.926     0.048     2.347     2.396
    87   1 H        0.860     0.232     0.955     1.531
    88   1 H        0.925     0.023     2.692     2.566

molecular dipole:
                 x           y           z       tot (Debye)
 q only:       -0.186      -0.477      -0.306
   full:        0.455       0.016      -1.257       3.398

 projected vibrational frequencies (cm⁻¹)
eigval :       -0.00    -0.00    -0.00     0.00     0.00     0.00
eigval :       11.05    20.69    22.81    26.50    31.19    33.19
eigval :       36.38    36.99    43.65    47.00    55.43    64.04
eigval :       70.62    76.25    86.01    87.60    99.45   105.81
eigval :      130.35   139.38   142.91   145.45   160.98   176.37
eigval :      177.76   193.45   197.75   204.04   210.83   246.32
eigval :      258.81   271.03   276.96   300.54   306.71   310.13
eigval :      323.82   331.11   337.57   353.86   359.99   362.94
eigval :      368.74   369.49   382.20   393.54   410.62   413.31
eigval :      417.12   430.18   437.94   450.97   462.96   472.30
eigval :      479.75   497.09   513.71   517.92   532.09   535.97
eigval :      547.33   551.98   557.41   564.55   568.98   579.01
eigval :      584.13   593.52   601.15   603.00   605.05   606.96
eigval :      616.23   623.44   652.88   680.61   686.60   689.78
eigval :      693.05   694.75   696.76   699.33   713.58   741.13
eigval :      754.78   755.51   769.04   772.11   779.15   782.78
eigval :      797.57   825.91   834.96   843.09   847.92   848.21
eigval :      851.08   856.11   857.83   860.91   861.97   869.66
eigval :      871.54   880.74   883.14   886.46   889.35   893.84
eigval :      900.02   901.14   902.07   906.16   908.90   909.90
eigval :      911.07   913.56   914.48   917.00   919.26   923.60
eigval :      928.81   931.97   933.58   961.02   969.95   977.66
eigval :     1005.76  1006.58  1007.91  1028.79  1046.76  1050.58
eigval :     1054.72  1057.92  1063.89  1070.61  1072.46  1087.48
eigval :     1092.83  1095.13  1096.11  1102.14  1104.30  1125.87
eigval :     1129.12  1132.56  1135.47  1140.03  1141.76  1147.25
eigval :     1153.21  1164.74  1166.34  1167.18  1168.79  1173.19
eigval :     1189.04  1191.88  1193.37  1194.47  1195.69  1198.25
eigval :     1203.91  1213.12  1230.39  1232.42  1232.55  1234.83
eigval :     1236.27  1250.18  1262.48  1264.32  1265.36  1266.89
eigval :     1271.55  1276.13  1279.86  1283.17  1286.87  1291.23
eigval :     1293.98  1301.84  1305.58  1311.97  1312.90  1325.27
eigval :     1333.22  1337.92  1342.64  1358.11  1360.47  1361.86
eigval :     1365.37  1389.55  1410.09  1411.49  1413.83  1415.24
eigval :     1436.07  1445.99  1449.04  1450.64  1450.92  1462.32
eigval :     1475.58  1479.97  1481.51  1483.13  1489.32  1524.45
eigval :     1545.57  1545.87  1567.51  1567.75  1570.62  1579.19
eigval :     1579.44  1579.60  1581.81  1587.68  1590.05  1619.56
eigval :     2887.72  2908.66  2944.26  2945.21  2953.12  2957.10
eigval :     2963.96  2971.41  2989.12  2991.73  3032.85  3038.83
eigval :     3043.04  3051.19  3058.91  3072.53  3074.03  3074.93
eigval :     3075.01  3076.02  3077.60  3091.10  3095.10  3097.84
eigval :     3098.80  3102.15  3102.54  3104.75  3104.79  3107.11
eigval :     3108.29  3110.35  3112.92  3114.31  3358.49  3570.12

   temp. (K)  partition function   enthalpy   heat capacity  entropy
                                   cal/mol     cal/K/mol   cal/K/mol   J/K/mol
 298.15  VIB  0.120E+20            24615.713    155.316    152.998
         ROT  0.616E+08              888.752      2.981     38.624
         INT  0.741E+27            25504.466    158.297    191.622
         TR   0.172E+29             1481.254      4.968     45.415
         TOT                       26985.7197   163.2651   237.0370   991.7628

       T/K    H(0)-H(T)+PV         H(T)/Eh          T*S/Eh         G(T)/Eh
   ------------------------------------------------------------------------
    298.15    0.430045E-01    0.728526E+00    0.112624E+00    0.615902E+00
   ------------------------------------------------------------------------

         :::::::::::::::::::::::::::::::::::::::::::::::::::::
         ::                  THERMODYNAMIC                  ::
         :::::::::::::::::::::::::::::::::::::::::::::::::::::
         :: total free energy        -136.987274107282 Eh   ::
         ::.................................................::
         :: total energy             -137.603176122032 Eh   ::
         :: zero point energy           0.685521461681 Eh   ::
         :: G(RRHO) w/o ZPVE           -0.069619446931 Eh   ::
         :: G(RRHO) contrib.            0.615902014750 Eh   ::
         :::::::::::::::::::::::::::::::::::::::::::::::::::::

           -------------------------------------------------
          | TOTAL ENERGY             -137.603176122032 Eh   |
          | TOTAL ENTHALPY           -136.874650178711 Eh   |
          | TOTAL FREE ENERGY        -136.987274107282 Eh   |
          | GRADIENT NORM               0.000039299792 Eh/α |
          | HOMO-LUMO GAP               2.092569588816 eV   |
           -------------------------------------------------

 * finished run on 2025/08/29 at 19:23:09.344
