   * xtb version 6.7.1 (edcfbbe) compiled by 'albert@albert-system' on 2024-07-22

   ID    Z sym.   atoms
    1    6 C      1, 2, 4-8, 10-15, 18-23, 25, 26, 28-33, 35-40, 42, 43,
                  45-50, 52
    2    7 N      3, 9, 16, 17, 24, 27, 34, 41, 44, 51
    3    1 H      53-88

          program call               : xtb data2507/toluene/MOF/MOF.xyz --gfn 2 --gbsa toluene --ohess vtight --parallel 40 --molden --ceasefiles --namespace data2507/toluene/MOF/MOF_toluene_S0_preOpt
      * Solvation model:               GBSA
        Solvent                        toluene
        Solvent mass                       9.2140E+01 g/mol
          :  Hamiltonian                  GFN2-xTB          :
 * total energy  :  -137.6142362 Eh     change       -0.3014350E-08 Eh
 * total energy  :  -137.6355909 Eh     change       -0.2135470E-01 Eh
 * total energy  :  -137.6433539 Eh     change       -0.7762999E-02 Eh
 * total energy  :  -137.6466761 Eh     change       -0.3322214E-02 Eh
 * total energy  :  -137.6487539 Eh     change       -0.2077734E-02 Eh
 * total energy  :  -137.6498410 Eh     change       -0.1087140E-02 Eh
 * total energy  :  -137.6505538 Eh     change       -0.7127757E-03 Eh
 * total energy  :  -137.6510939 Eh     change       -0.5401606E-03 Eh
 * total energy  :  -137.6514736 Eh     change       -0.3796412E-03 Eh
 * total energy  :  -137.6517641 Eh     change       -0.2905133E-03 Eh
 * total energy  :  -137.6551533 Eh     change       -0.1385552E-05 Eh
 * total energy  :  -137.6551544 Eh     change       -0.1138182E-05 Eh
 * total energy  :  -137.6551555 Eh     change       -0.1070222E-05 Eh
 * total energy  :  -137.6551565 Eh     change       -0.9941416E-06 Eh
 * total energy  :  -137.6551573 Eh     change       -0.7653315E-06 Eh
 * total energy  :  -137.6551578 Eh     change       -0.5041879E-06 Eh
 * total energy  :  -137.6551582 Eh     change       -0.3816785E-06 Eh
 * total energy  :  -137.6551585 Eh     change       -0.3307403E-06 Eh
 * total energy  :  -137.6551585 Eh     change       -0.9614467E-08 Eh
   *** GEOMETRY OPTIMIZATION CONVERGED AFTER 68 ITERATIONS ***

 final structure:
================
88
 xtb: 6.7.1 (edcfbbe)
C            3.28677911137736        2.33715520681633       -2.55043326769768
C            2.90390465611824        3.66379170283138       -2.41174724830245
N            1.67234880547394        4.02820917227975       -2.09990507060157
C            0.77707014868671        3.07926299111291       -1.89414873500799
C            1.04319344356614        1.71844771928160       -1.98038199773393
C           -0.04001999575750        0.70052642821859       -1.76632577302550
C            0.29020986732539       -0.29427418952962       -0.63379227177590
C           -0.65311496129207       -1.45621930802775       -0.68811535085153
N           -0.24324606796783       -2.70158839748744       -0.72350769105056
C           -1.37582264545237       -3.46033792681956       -0.91230687158429
C           -1.53743935294349       -4.83474029517613       -1.03511900459006
C           -2.81495272204407       -5.30716248609891       -1.25051137469964
C           -3.91093886235985       -4.44677323794326       -1.34382742069960
C           -3.77019916996754       -3.07928797680609       -1.21756899345967
C           -2.49136634691062       -2.59635548919991       -0.99492961684757
N           -1.98959568831692       -1.32631653450967       -0.85471635730810
N            0.50464878522822        0.30584740596945        0.67310133331162
C           -0.57258867838340        0.90439651710097        1.45408960512330
C           -1.27358605422560        0.07262676501655        2.58195776920242
C           -2.10681174100133       -1.12415665994316        2.23617255067365
C           -3.48514513882264       -1.01962234694498        2.06234482019801
C           -4.23992282151487       -2.16616189700638        1.88593651888673
C           -3.59162249014683       -3.39174228906674        1.90461141322502
N           -2.28373830659031       -3.50959042269523        2.06116960015061
C           -1.57164031442872       -2.40936037024622        2.21786793250805
C           -1.61630075292968        1.60374823129268        0.64567804349108
N           -2.67477312318397        1.08518885418472        0.07984215845609
C           -3.39002906800301        2.13765374950254       -0.44678088069442
C           -4.58783015540593        2.14932437591808       -1.15356038388085
C           -5.07205625618483        3.37694435409880       -1.55430210911066
C           -4.39351991475257        4.56530055985869       -1.27000862039667
C           -3.20377098064470        4.57290724515664       -0.56990680585034
C           -2.71366518392221        3.34245510487432       -0.16131020574846
N           -1.59641567963088        2.96298921320376        0.54615091412152
C            1.50066830362343       -0.37331056604276        1.51387127992838
C            2.18700923274044        0.60609551867400        2.50026426875919
C            2.42583925737625        1.99188512081888        1.97305268815957
C            1.89994012933731        3.10749488961839        2.61671699903853
C            2.17093837590086        4.37355348858653        2.11999516991608
C            2.97551060428895        4.47733319631747        0.99708970591070
N            3.49600579194873        3.42543678145488        0.38497687910405
C            3.22653906129380        2.22287073516316        0.85715201385308
C            2.53016655086131       -1.13942606343886        0.73735175982879
N            3.77596826154171       -0.78933564283334        0.58647716222725
C            4.37609963445986       -1.82249976882986       -0.09385004694805
C            5.68608022037344       -1.97433421706751       -0.53409324792969
C            5.99628224033280       -3.13363252279843       -1.21419953330214
C            5.03952549733420       -4.12270968816296       -1.45755620920786
C            3.73456005295049       -3.99065459673521       -1.02604949501614
C            3.41442431789695       -2.82934245685168       -0.34067455906472
N            2.25146999272391       -2.38064709903861        0.23270208695682
C            2.34082099170781        1.35313491042528       -2.32905599825770
H            4.29821865130970        2.08107820594755       -2.82019061942506
H            3.60518190927550        4.47047648453882       -2.56834334018266
H           -0.22321803005999        3.42816480129518       -1.66550617291767
H           -0.98842186041111        1.20736970184804       -1.60906550057677
H           -0.14075661025213        0.09919338106001       -2.67783221675458
H            1.26783679188454       -0.69078411987223       -0.90248325944665
H           -0.69073977564299       -5.49936046862318       -0.96602875332983
H           -2.97532253839638       -6.36947277313018       -1.35214001668485
H           -4.89097453754842       -4.86336087318890       -1.51886215487683
H           -4.61539925486363       -2.41212999787364       -1.28803968883227
H           -2.47705482631752       -0.45609126562126       -0.61394155729491
H           -0.07301874362149        1.71167832315103        2.01130270077646
H           -1.91870773339226        0.79080018927804        3.09585155734075
H           -0.50524062453505       -0.23852597374091        3.29167159573572
H           -3.95945903925804       -0.04951346040146        2.08556292714380
H           -5.30964175390022       -2.11287155374769        1.76227167532528
H           -4.13096650397469       -4.32223788401852        1.79876580802936
H           -0.50977142068804       -2.57566557761684        2.36530582820837
H           -5.10969261438402        1.23140022409027       -1.37236518555894
H           -5.99945678513719        3.42455163071253       -2.10342270203638
H           -4.81204186971621        5.50027616919635       -1.60755532048630
H           -2.67687146502492        5.48803320507855       -0.35135668624367
H           -0.86461071692799        3.57073476811216        0.87826494412426
H            1.00251400677266       -1.14939818216482        2.12478056846168
H            3.15242497113958        0.16581489987908        2.75841260333748
H            1.59493035605515        0.67462316463626        3.41552657236660
H            1.30102430319973        2.99168159557207        3.51131916288151
H            1.78010480894431        5.25537712563358        2.60330319608155
H            3.22484877511726        5.43743276594331        0.56712398814842
H            3.68212408729972        1.38807431513988        0.34436299465606
H            6.42070502706816       -1.20802085503777       -0.34493370943981
H            7.00353519104184       -3.28492321772438       -1.57114552845531
H            5.32973715252152       -5.01168450401239       -1.99653667953365
H            2.99127738856190       -4.75094287241701       -1.21266810048315
H            1.30797224365144       -2.71576415318491        0.00780032904904
H            2.60303917848986        0.30898699272494       -2.43909979151651

          :  Hamiltonian                  GFN2-xTB          :
         :: gradient norm              0.000068594458 Eh/a0 ::
         :: HOMO-LUMO gap              2.728340494276 eV    ::
         :: SCC energy              -139.920432119693 Eh    ::
         :: -> dispersion             -0.143013226017 Eh    ::
         :: -> Gsolv                  -0.065403597936 Eh    ::
         :: repulsion energy           2.265273616043 Eh    ::

    * Orbital Energies and Occupations

         #    Occupation            Energy/Eh            Energy/eV
      -------------------------------------------------------------
         1        2.0000           -0.7373320             -20.0638
       ...           ...                  ...                  ...
       115        2.0000           -0.4292162             -11.6796
       116        2.0000           -0.4272693             -11.6266
       117        2.0000           -0.4243478             -11.5471
       118        2.0000           -0.4212417             -11.4626
       119        2.0000           -0.4131375             -11.2420
       120        2.0000           -0.4115724             -11.1995
       121        2.0000           -0.4062114             -11.0536
       122        2.0000           -0.4051517             -11.0247
       123        2.0000           -0.4044171             -11.0047
       124        2.0000           -0.4005837             -10.9004
       125        2.0000           -0.3933254             -10.7029
       126        2.0000           -0.3902957             -10.6205
       127        2.0000           -0.3844598             -10.4617 (HOMO)
       128                         -0.2841952              -7.7333 (LUMO)
       129                         -0.2800091              -7.6194
       130                         -0.2721634              -7.4059
       131                         -0.2681870              -7.2977
       132                         -0.2674631              -7.2780
       133                         -0.2668209              -7.2606
       134                         -0.2611600              -7.1065
       135                         -0.2575492              -7.0083
       136                         -0.2551895              -6.9441
       137                         -0.2420514              -6.5866
       138                         -0.2294332              -6.2432
       ...                                ...                  ...
       244                          0.6821267              18.5616
      -------------------------------------------------------------
                  HL-Gap            0.1002647 Eh            2.7283 eV

     #   Z          covCN         q      C6AA      α(0)
     1   6 C        2.912    -0.034    28.851     8.808
     2   6 C        2.916     0.063    26.591     8.456
     3   7 N        1.835    -0.223    26.713     7.659
     4   6 C        2.921     0.046    26.973     8.517
     5   6 C        2.964    -0.006    28.175     8.706
     6   6 C        3.809    -0.077    21.967     6.672
     7   6 C        3.796     0.049    19.762     6.330
     8   6 C        3.185     0.174    23.859     7.971
     9   7 N        1.894    -0.368    30.455     8.181
    10   6 C        3.187     0.074    25.901     8.304
    11   6 C        2.910    -0.054    29.336     8.881
    12   6 C        2.924    -0.042    29.034     8.836
    13   6 C        2.926    -0.040    29.006     8.832
    14   6 C        2.908    -0.065    29.614     8.923
    15   6 C        3.106     0.051    26.726     8.471
    16   7 N        2.772    -0.204    25.422     7.489
    17   7 N        2.726    -0.229    25.998     7.573
    18   6 C        3.792     0.047    19.790     6.335
    19   6 C        3.806    -0.081    22.045     6.684
    20   6 C        2.961    -0.002    28.067     8.690
    21   6 C        2.935    -0.022    28.558     8.764
    22   6 C        2.912    -0.042    29.054     8.839
    23   6 C        2.914     0.058    26.697     8.473
    24   7 N        1.835    -0.246    27.260     7.737
    25   6 C        2.919     0.059    26.672     8.469
    26   6 C        3.143     0.159    24.341     8.073
    27   7 N        1.897    -0.325    29.291     8.024
    28   6 C        3.182     0.059    26.258     8.364
    29   6 C        2.910    -0.049    29.214     8.863
    30   6 C        2.924    -0.035    28.878     8.813
    31   6 C        2.927    -0.031    28.776     8.797
    32   6 C        2.908    -0.052    29.291     8.874
    33   6 C        3.077     0.039    27.039     8.525
    34   7 N        2.786    -0.136    23.941     7.267
    35   6 C        3.798     0.055    19.658     6.313
    36   6 C        3.808    -0.082    22.053     6.685
    37   6 C        2.962     0.002    27.979     8.676
    38   6 C        2.934    -0.033    28.821     8.804
    39   6 C        2.911    -0.049    29.205     8.862
    40   6 C        2.911     0.053    26.808     8.490
    41   7 N        1.836    -0.234    26.962     7.695
    42   6 C        2.914     0.049    26.910     8.507
    43   6 C        3.185     0.167    24.008     7.996
    44   7 N        1.886    -0.340    29.691     8.078
    45   6 C        3.196     0.063    26.090     8.327
    46   6 C        2.909    -0.052    29.286     8.874
    47   6 C        2.924    -0.043    29.063     8.841
    48   6 C        2.926    -0.040    28.988     8.829
    49   6 C        2.908    -0.063    29.557     8.915
    50   6 C        3.097     0.045    26.882     8.497
    51   7 N        2.771    -0.221    25.813     7.546
    52   6 C        2.935    -0.019    28.477     8.752
    53   1 H        0.926     0.063     2.163     2.300
    54   1 H        0.926     0.064     2.149     2.292
    55   1 H        0.925     0.023     2.686     2.563
    56   1 H        0.925     0.038     2.479     2.462
    57   1 H        0.924     0.034     2.532     2.488
    58   1 H        0.925     0.082     1.963     2.191
    59   1 H        0.926     0.040     2.444     2.445
    60   1 H        0.926     0.053     2.278     2.360
    61   1 H        0.926     0.054     2.270     2.356
    62   1 H        0.926     0.035     2.522     2.484
    63   1 H        0.864     0.239     0.926     1.507
    64   1 H        0.923     0.040     2.443     2.444
    65   1 H        0.924     0.055     2.265     2.353
    66   1 H        0.924     0.049     2.335     2.390
    67   1 H        0.926     0.049     2.335     2.390
    68   1 H        0.926     0.061     2.190     2.314
    69   1 H        0.926     0.051     2.303     2.373
    70   1 H        0.925     0.014     2.828     2.630
    71   1 H        0.926     0.046     2.369     2.407
    72   1 H        0.926     0.060     2.195     2.317
    73   1 H        0.926     0.065     2.142     2.289
    74   1 H        0.926     0.056     2.250     2.346
    75   1 H        0.860     0.175     1.242     1.745
    76   1 H        0.922     0.008     2.919     2.672
    77   1 H        0.924     0.069     2.095     2.264
    78   1 H        0.924     0.047     2.356     2.400
    79   1 H        0.925     0.043     2.409     2.427
    80   1 H        0.926     0.057     2.234     2.338
    81   1 H        0.926     0.053     2.278     2.360
    82   1 H        0.926     0.056     2.243     2.342
    83   1 H        0.926     0.049     2.328     2.386
    84   1 H        0.926     0.051     2.306     2.374
    85   1 H        0.926     0.049     2.330     2.387
    86   1 H        0.926     0.030     2.584     2.514
    87   1 H        0.863     0.243     0.910     1.494
    88   1 H        0.925     0.023     2.689     2.564

molecular dipole:
                 x           y           z       tot (Debye)
 q only:       -1.871       1.903       0.303
   full:       -2.576       1.809       0.764       8.233

 projected vibrational frequencies (cm⁻¹)
eigval :       -0.00    -0.00     0.00     0.00     0.00     0.00
eigval :       15.79    20.76    28.29    34.23    34.94    39.49
eigval :       42.84    49.33    56.28    58.90    64.37    69.44
eigval :       75.66    76.88    83.27    89.78    90.18   100.85
eigval :      117.66   140.48   150.71   153.39   159.69   166.78
eigval :      170.29   170.79   186.31   202.56   214.75   232.84
eigval :      241.51   250.61   255.70   261.11   278.11   294.81
eigval :      322.06   336.11   338.61   364.97   367.59   370.41
eigval :      373.95   377.50   382.06   412.03   416.74   421.87
eigval :      427.14   437.32   443.04   451.62   458.35   484.35
eigval :      508.87   521.75   525.44   534.57   538.31   545.36
eigval :      547.71   548.26   569.24   573.74   579.28   602.21
eigval :      603.82   604.07   607.43   608.82   613.01   616.14
eigval :      649.39   659.98   678.16   682.75   689.07   693.78
eigval :      698.94   712.27   713.94   716.07   734.70   739.05
eigval :      755.76   769.59   770.53   770.84   772.57   779.29
eigval :      782.14   784.53   788.02   810.57   838.04   847.44
eigval :      855.89   863.40   865.32   866.03   868.38   871.17
eigval :      874.77   877.76   885.61   892.82   894.92   897.16
eigval :      898.70   899.93   904.69   907.24   910.64   912.50
eigval :      915.38   915.58   917.01   917.64   920.58   924.53
eigval :      928.39   934.57   946.66   957.65   981.53   988.22
eigval :     1008.20  1008.99  1011.72  1034.97  1049.90  1052.20
eigval :     1057.86  1061.90  1067.65  1088.42  1095.14  1096.36
eigval :     1097.16  1103.04  1116.34  1129.33  1132.72  1133.83
eigval :     1138.79  1141.83  1143.43  1153.05  1162.49  1167.44
eigval :     1167.84  1172.29  1174.57  1184.21  1191.99  1197.13
eigval :     1198.22  1201.40  1207.66  1214.93  1216.48  1218.44
eigval :     1232.30  1236.54  1241.27  1248.91  1256.88  1262.64
eigval :     1270.30  1272.17  1274.01  1280.83  1282.77  1284.73
eigval :     1287.57  1291.63  1292.51  1295.96  1302.32  1303.87
eigval :     1308.21  1310.36  1331.37  1337.26  1345.87  1358.83
eigval :     1361.27  1365.37  1367.59  1384.54  1400.11  1407.27
eigval :     1409.87  1412.87  1412.94  1414.37  1416.42  1427.52
eigval :     1447.64  1452.52  1454.28  1458.92  1474.60  1476.61
eigval :     1487.27  1487.30  1488.15  1516.11  1538.99  1543.16
eigval :     1568.23  1569.74  1570.77  1579.47  1581.15  1585.26
eigval :     1589.12  1590.95  1592.38  1619.20  1622.41  1624.77
eigval :     2781.20  2874.04  2925.51  2961.46  2966.13  2982.58
eigval :     2987.73  3006.42  3020.92  3023.74  3037.94  3042.49
eigval :     3046.03  3051.57  3054.32  3071.10  3075.80  3080.59
eigval :     3081.56  3081.81  3082.99  3085.07  3088.29  3089.98
eigval :     3095.04  3095.91  3097.31  3097.83  3098.19  3104.16
eigval :     3104.80  3106.43  3107.10  3109.84  3112.28  3452.39

   temp. (K)  partition function   enthalpy   heat capacity  entropy
                                   cal/mol     cal/K/mol   cal/K/mol   J/K/mol
 298.15  VIB  0.202E+19            24454.972    155.272    152.475
         ROT  0.610E+08              888.752      2.981     38.605
         INT  0.123E+27            25343.724    158.253    191.080
         TR   0.172E+29             1481.254      4.968     45.415
         TOT                       26824.9783   163.2214   236.4950   989.4953

       T/K    H(0)-H(T)+PV         H(T)/Eh          T*S/Eh         G(T)/Eh
   ------------------------------------------------------------------------
    298.15    0.427483E-01    0.731739E+00    0.112366E+00    0.619373E+00
   ------------------------------------------------------------------------

         :::::::::::::::::::::::::::::::::::::::::::::::::::::
         ::                  THERMODYNAMIC                  ::
         :::::::::::::::::::::::::::::::::::::::::::::::::::::
         :: total free energy        -137.035785972749 Eh   ::
         ::.................................................::
         :: total energy             -137.655158504497 Eh   ::
         :: zero point energy           0.688990633962 Eh   ::
         :: G(RRHO) w/o ZPVE           -0.069618102215 Eh   ::
         :: G(RRHO) contrib.            0.619372531747 Eh   ::
         :::::::::::::::::::::::::::::::::::::::::::::::::::::

           -------------------------------------------------
          | TOTAL ENERGY             -137.655158504497 Eh   |
          | TOTAL ENTHALPY           -136.923419546492 Eh   |
          | TOTAL FREE ENERGY        -137.035785972749 Eh   |
          | GRADIENT NORM               0.000068579268 Eh/α |
          | HOMO-LUMO GAP               2.728340568336 eV   |
           -------------------------------------------------

 * finished run on 2025/08/29 at 18:56:09.753
