   * xtb version 6.7.1 (edcfbbe) compiled by 'albert@albert-system' on 2024-07-22

   ID    Z sym.   atoms
    1    6 C      1, 2, 4-8, 10-15, 18-23, 25, 26, 28-33, 35-40, 42, 43,
                  45-50, 52
    2    7 N      3, 9, 16, 17, 24, 27, 34, 41, 44, 51
    3    1 H      53-88

          program call               : xtb data2507/toluene/MOF/MOF_toluene_S0_crest.xyz --gfn 2 --gbsa toluene --ohess vtight --parallel 40 --molden --ceasefiles --namespace data2507/toluene/MOF/MOF_toluene_S0_finalOpt
      * Solvation model:               GBSA
        Solvent                        toluene
        Solvent mass                       9.2140E+01 g/mol
          :  Hamiltonian                  GFN2-xTB          :
 * total energy  :  -137.6717786 Eh     change       -0.1731593E-08 Eh
 * total energy  :  -137.6729878 Eh     change       -0.1209179E-02 Eh
 * total energy  :  -137.6738940 Eh     change       -0.9062071E-03 Eh
 * total energy  :  -137.6742665 Eh     change       -0.3725565E-03 Eh
 * total energy  :  -137.6744456 Eh     change       -0.1790268E-03 Eh
 * total energy  :  -137.6745380 Eh     change       -0.9239322E-04 Eh
 * total energy  :  -137.6746230 Eh     change       -0.8500061E-04 Eh
 * total energy  :  -137.6747101 Eh     change       -0.8711983E-04 Eh
 * total energy  :  -137.6748073 Eh     change       -0.9719427E-04 Eh
 * total energy  :  -137.6748854 Eh     change       -0.7810539E-04 Eh
 * total energy  :  -137.6757698 Eh     change       -0.3891696E-06 Eh
 * total energy  :  -137.6757702 Eh     change       -0.4182448E-06 Eh
 * total energy  :  -137.6757706 Eh     change       -0.3861677E-06 Eh
 * total energy  :  -137.6757709 Eh     change       -0.3275360E-06 Eh
 * total energy  :  -137.6757712 Eh     change       -0.2994587E-06 Eh
 * total energy  :  -137.6757716 Eh     change       -0.4038610E-06 Eh
 * total energy  :  -137.6757722 Eh     change       -0.5717500E-06 Eh
 * total energy  :  -137.6757728 Eh     change       -0.6069592E-06 Eh
 * total energy  :  -137.6757728 Eh     change       -0.5900262E-08 Eh
   *** GEOMETRY OPTIMIZATION CONVERGED AFTER 122 ITERATIONS ***

 final structure:
================
88
 xtb: 6.7.1 (edcfbbe)
C            5.31607755352976        1.22922249835255        1.88344774340413
C            5.75846131963671       -0.08512269958735        1.91304455975697
N            4.94358623544128       -1.11418605657249        2.07835283847259
C            3.65017149764375       -0.87754320900526        2.19780759929441
C            3.08355985333083        0.39235091830309        2.12807940465805
C            1.59773083357336        0.59401702765487        2.23294347056249
C            0.97857452583137        1.23267728293502        0.97179047404348
C           -0.45074485146234        1.54765800610436        1.28649242068621
N           -0.93547290993269        2.76562834905381        1.26684799488515
C           -2.25412787046236        2.64181510565965        1.66424601752243
C           -3.24891906532722        3.60083209824329        1.81555541776282
C           -4.49739015297292        3.16320661203732        2.20816859195522
C           -4.76555016488929        1.81238674431579        2.44198214268777
C           -3.79032799879006        0.84521786706346        2.29769587373464
C           -2.53348122661397        1.27927013114187        1.91048118709253
N           -1.35468728469636        0.61743428004580        1.67089057802086
N            1.19870527410206        0.48071190608708       -0.26184555746110
C            1.13866218532856       -0.97582940003841       -0.17923147240290
C            1.66847650170289       -1.69022845419936       -1.43610154663553
C            1.76160245633070       -3.15880319363122       -1.12842087721599
C            2.80562162037153       -3.67870101319047       -0.36988666878367
C            2.80730595137668       -5.02821288775083       -0.05919529841538
C            1.75592426393583       -5.81028321359986       -0.51486973079919
N            0.76413451122043       -5.33068586799053       -1.24808456057111
C            0.77537472253529       -4.04521506199187       -1.54808280858771
C           -0.18387135362115       -1.56866773447011        0.19105501618984
N           -0.41820640400126       -2.08814604513058        1.37327897697849
C           -1.71912045877805       -2.55148160339155        1.31485570064201
C           -2.50050492644778       -3.18216794171386        2.27600838060042
C           -3.79641848470726       -3.50456137043924        1.92835256774408
C           -4.31597964256234       -3.20960179470611        0.66555198147609
C           -3.55434828255445       -2.58563693276703       -0.30273673131656
C           -2.25087115323477       -2.26379192055868        0.03726895889043
N           -1.23359589929890       -1.65593451437383       -0.65443191929539
C            0.73667443204931        1.10818134641471       -1.49619174931809
C            1.25494869094003        2.54951730084171       -1.66952114445362
C            2.74807220435454        2.65468039070759       -1.52982206620287
C            3.61743739643309        1.89207330825898       -2.30325838034886
C            4.98374329453623        2.04499752284866       -2.14037383048783
C            5.43631749209863        2.96763864423512       -1.20854327262970
N            4.62214130597104        3.70954875383832       -0.47761321307054
C            3.32093371933351        3.55603616026623       -0.63792353854379
C           -0.74118061488072        1.09465403073139       -1.75733102312799
N           -1.30570663840625        0.22303772563957       -2.55894309902701
C           -2.64064943157447        0.57293838536067       -2.60914022680434
C           -3.70492233826734       -0.01053145139700       -3.28671924400584
C           -4.95000132458926        0.56089418049121       -3.12217656786424
C           -5.14500195975961        1.67876570109020       -2.30732618691863
C           -4.09858613588599        2.27424918792727       -1.63124510986245
C           -2.84596886328670        1.70620687077970       -1.79370925967957
N           -1.60573305942034        2.02790365273865       -1.29563135758650
C            3.95615130980934        1.46665487229653        1.98841707215296
H            6.00869251610097        2.04794765200060        1.78081491335037
H            6.80622265136164       -0.33309354843726        1.81605026928653
H            3.03114752883937       -1.75188067487630        2.37127783055033
H            1.10367984848061       -0.35332639426350        2.46071255019249
H            1.39161761810134        1.28497292788267        3.05751909398499
H            1.47658223759003        2.19637148472296        0.82304747550782
H           -3.04109547635667        4.64374725162553        1.63492010749864
H           -5.29169571068475        3.88133978917603        2.33814625155408
H           -5.75825226602739        1.51835397104518        2.74357413388561
H           -3.98793116711920       -0.20156052219913        2.47504481044203
H           -1.16771929937772       -0.37115358097831        1.70483282285921
H            1.81899844977341       -1.24692757527807        0.63010060417994
H            2.65458549084745       -1.28799893960895       -1.67635501089847
H            0.99644896521244       -1.54340380989592       -2.28439609336232
H            3.60382374142442       -3.03424714703916       -0.03064492766510
H            3.60472175251760       -5.45929770178947        0.52386672940456
H            1.69864912887974       -6.86711857051752       -0.29423946273462
H           -0.05178076504082       -3.70283280336815       -2.16052405106861
H           -2.09770968944729       -3.40930475875045        3.25041059026020
H           -4.42893647910992       -3.99750851149643        2.64995728380321
H           -5.33615597339890       -3.47875596823249        0.44190538075248
H           -3.94961938159912       -2.35421854891242       -1.28017403083240
H           -1.27515933535117       -1.16630487270541       -1.54346644624290
H            1.17496420521502        0.51291813985019       -2.30201703909165
H            0.77056785020419        3.22201407373555       -0.95844685180019
H            0.96667805328162        2.87030818674890       -2.67618726009692
H            3.22915034509363        1.19688792969026       -3.03333544244074
H            5.67887990008123        1.46816898234973       -2.72854500256648
H            6.49210325154703        3.13029591389202       -1.04269673906715
H            2.69571214029438        4.19929072137945       -0.02794153400207
H           -3.55102789682340       -0.87113483630039       -3.91896719207934
H           -5.79801406220684        0.13518370975480       -3.63515698506611
H           -6.13744021008719        2.08840185757119       -2.20727961437230
H           -4.24244233861746        3.13668103353620       -0.99906345599753
H           -1.40148978092328        2.63423202529104       -0.51600942622121
H            3.57742262470451        2.47750716094912        1.97098230758564

          :  Hamiltonian                  GFN2-xTB          :
         :: gradient norm              0.000055727679 Eh/a0 ::
         :: HOMO-LUMO gap              2.854340882659 eV    ::
         :: SCC energy              -139.947474829015 Eh    ::
         :: -> dispersion             -0.139596100013 Eh    ::
         :: -> Gsolv                  -0.084914909887 Eh    ::
         :: repulsion energy           2.271702012614 Eh    ::

    * Orbital Energies and Occupations

         #    Occupation            Energy/Eh            Energy/eV
      -------------------------------------------------------------
         1        2.0000           -0.7474545             -20.3393
       ...           ...                  ...                  ...
       115        2.0000           -0.4487688             -12.2116
       116        2.0000           -0.4466602             -12.1542
       117        2.0000           -0.4440295             -12.0827
       118        2.0000           -0.4425415             -12.0422
       119        2.0000           -0.4406811             -11.9915
       120        2.0000           -0.4390211             -11.9464
       121        2.0000           -0.4376444             -11.9089
       122        2.0000           -0.4363979             -11.8750
       123        2.0000           -0.4353228             -11.8457
       124        2.0000           -0.4165865             -11.3359
       125        2.0000           -0.4056528             -11.0384
       126        2.0000           -0.4045522             -11.0084
       127        2.0000           -0.4040200             -10.9939 (HOMO)
       128                         -0.2991249              -8.1396 (LUMO)
       129                         -0.2935654              -7.9883
       130                         -0.2909717              -7.9177
       131                         -0.2861452              -7.7864
       132                         -0.2854214              -7.7667
       133                         -0.2849610              -7.7542
       134                         -0.2745422              -7.4707
       135                         -0.2742197              -7.4619
       136                         -0.2727610              -7.4222
       137                         -0.2575233              -7.0076
       138                         -0.2567857              -6.9875
       ...                                ...                  ...
       244                          0.6499851              17.6870
      -------------------------------------------------------------
                  HL-Gap            0.1048951 Eh            2.8543 eV

     #   Z          covCN         q      C6AA      α(0)
     1   6 C        2.912    -0.039    28.981     8.828
     2   6 C        2.912     0.053    26.810     8.491
     3   7 N        1.835    -0.218    26.603     7.643
     4   6 C        2.916     0.045    26.991     8.519
     5   6 C        2.963    -0.005    28.143     8.702
     6   6 C        3.812    -0.079    22.006     6.677
     7   6 C        3.795     0.053    19.701     6.320
     8   6 C        3.180     0.202    23.354     7.889
     9   7 N        1.887    -0.395    31.215     8.283
    10   6 C        3.189     0.068    26.018     8.321
    11   6 C        2.910    -0.061    29.528     8.910
    12   6 C        2.924    -0.043    29.059     8.840
    13   6 C        2.927    -0.040    28.989     8.830
    14   6 C        2.908    -0.069    29.715     8.938
    15   6 C        3.096     0.049    26.791     8.483
    16   7 N        2.778    -0.236    26.157     7.596
    17   7 N        2.726    -0.244    26.356     7.625
    18   6 C        3.801     0.047    19.780     6.332
    19   6 C        3.812    -0.082    22.061     6.686
    20   6 C        2.969    -0.010    28.274     8.722
    21   6 C        2.933    -0.025    28.625     8.774
    22   6 C        2.912    -0.039    28.966     8.825
    23   6 C        2.913     0.055    26.758     8.482
    24   7 N        1.835    -0.231    26.903     7.686
    25   6 C        2.917     0.050    26.887     8.503
    26   6 C        3.186     0.213    23.123     7.847
    27   7 N        1.886    -0.410    31.645     8.339
    28   6 C        3.190     0.068    26.018     8.320
    29   6 C        2.909    -0.063    29.555     8.914
    30   6 C        2.924    -0.044    29.096     8.846
    31   6 C        2.927    -0.041    29.025     8.835
    32   6 C        2.908    -0.070    29.733     8.941
    33   6 C        3.102     0.049    26.769     8.478
    34   7 N        2.775    -0.232    26.066     7.583
    35   6 C        3.796     0.049    19.764     6.330
    36   6 C        3.811    -0.080    22.010     6.678
    37   6 C        2.964    -0.003    28.105     8.696
    38   6 C        2.934    -0.024    28.598     8.770
    39   6 C        2.912    -0.040    29.001     8.831
    40   6 C        2.913     0.052    26.831     8.494
    41   7 N        1.835    -0.213    26.483     7.626
    42   6 C        2.918     0.045    26.981     8.518
    43   6 C        3.170     0.195    23.528     7.924
    44   7 N        1.893    -0.388    31.001     8.254
    45   6 C        3.184     0.066    26.091     8.336
    46   6 C        2.910    -0.060    29.500     8.906
    47   6 C        2.924    -0.042    29.041     8.837
    48   6 C        2.927    -0.039    28.971     8.827
    49   6 C        2.908    -0.067    29.656     8.930
    50   6 C        3.096     0.047    26.826     8.488
    51   7 N        2.777    -0.223    25.863     7.553
    52   6 C        2.934    -0.023    28.568     8.766
    53   1 H        0.926     0.074     2.045     2.236
    54   1 H        0.926     0.067     2.114     2.274
    55   1 H        0.925     0.029     2.594     2.518
    56   1 H        0.924     0.039     2.456     2.451
    57   1 H        0.924     0.047     2.361     2.403
    58   1 H        0.924     0.053     2.285     2.364
    59   1 H        0.926     0.052     2.299     2.371
    60   1 H        0.926     0.067     2.119     2.277
    61   1 H        0.926     0.064     2.153     2.294
    62   1 H        0.926     0.025     2.665     2.553
    63   1 H        0.860     0.261     0.840     1.436
    64   1 H        0.924     0.062     2.173     2.305
    65   1 H        0.924     0.061     2.189     2.314
    66   1 H        0.924     0.035     2.522     2.483
    67   1 H        0.926     0.057     2.238     2.339
    68   1 H        0.926     0.075     2.036     2.231
    69   1 H        0.926     0.064     2.157     2.297
    70   1 H        0.925     0.018     2.760     2.598
    71   1 H        0.926     0.047     2.359     2.402
    72   1 H        0.926     0.063     2.168     2.303
    73   1 H        0.926     0.062     2.175     2.306
    74   1 H        0.926     0.030     2.591     2.517
    75   1 H        0.863     0.261     0.841     1.437
    76   1 H        0.924     0.051     2.308     2.376
    77   1 H        0.924     0.035     2.516     2.481
    78   1 H        0.924     0.051     2.302     2.373
    79   1 H        0.926     0.042     2.418     2.432
    80   1 H        0.926     0.070     2.085     2.258
    81   1 H        0.926     0.067     2.122     2.278
    82   1 H        0.925     0.031     2.565     2.505
    83   1 H        0.926     0.047     2.353     2.399
    84   1 H        0.926     0.067     2.123     2.279
    85   1 H        0.926     0.067     2.121     2.278
    86   1 H        0.926     0.035     2.514     2.479
    87   1 H        0.860     0.251     0.881     1.470
    88   1 H        0.926     0.046     2.373     2.409

molecular dipole:
                 x           y           z       tot (Debye)
 q only:        0.769       0.497      -0.309
   full:       -0.029       0.874      -0.478       2.535

 projected vibrational frequencies (cm⁻¹)
eigval :       -0.00    -0.00     0.00     0.00     0.00     0.00
eigval :       -6.69    14.25    16.04    21.99    24.18    29.34
eigval :       37.77    40.44    42.01    43.44    51.44    55.34
eigval :       58.59    68.40    78.67    86.85    93.48    95.30
eigval :      124.15   130.49   133.28   140.66   151.22   160.60
eigval :      173.70   176.79   180.86   192.11   205.56   213.71
eigval :      247.70   258.53   265.98   281.24   300.81   309.94
eigval :      336.78   344.82   362.38   364.34   365.61   371.64
eigval :      374.97   379.32   389.92   398.97   415.19   420.20
eigval :      435.70   438.39   444.82   458.28   466.33   475.57
eigval :      510.04   517.38   525.85   546.70   548.15   548.44
eigval :      554.20   565.96   569.59   571.39   590.03   596.15
eigval :      602.14   605.09   608.00   608.45   609.59   620.78
eigval :      643.09   654.27   674.87   680.37   690.22   692.18
eigval :      694.66   705.87   714.58   714.76   720.97   734.71
eigval :      744.77   752.37   770.48   773.67   776.12   778.55
eigval :      779.67   782.78   788.55   807.22   851.03   853.10
eigval :      855.35   865.11   865.96   867.72   868.32   868.96
eigval :      869.55   870.61   874.16   885.48   898.76   900.90
eigval :      902.95   908.16   909.75   911.03   915.64   917.61
eigval :      919.84   921.34   921.38   923.95   925.02   929.11
eigval :      933.48   935.79   958.95   973.54  1006.18  1007.18
eigval :     1007.63  1016.89  1020.32  1037.89  1056.98  1059.18
eigval :     1060.06  1065.43  1068.62  1081.59  1085.53  1092.76
eigval :     1095.03  1095.50  1109.54  1118.28  1127.25  1132.02
eigval :     1133.18  1133.92  1134.83  1143.22  1145.35  1148.20
eigval :     1154.12  1167.41  1167.60  1168.47  1186.57  1191.11
eigval :     1192.46  1195.35  1205.17  1216.78  1218.89  1219.30
eigval :     1233.10  1235.91  1237.91  1242.45  1251.49  1266.42
eigval :     1267.39  1269.39  1270.47  1271.88  1274.29  1277.35
eigval :     1280.92  1287.11  1289.98  1295.41  1296.61  1298.16
eigval :     1301.23  1311.35  1321.65  1326.43  1347.63  1356.48
eigval :     1361.26  1362.26  1363.65  1404.22  1405.90  1409.03
eigval :     1410.68  1411.34  1412.03  1419.45  1421.01  1426.33
eigval :     1450.27  1450.66  1450.93  1479.63  1480.86  1483.50
eigval :     1483.96  1484.13  1485.27  1504.96  1512.52  1514.53
eigval :     1567.97  1569.47  1569.70  1579.59  1580.30  1581.40
eigval :     1589.14  1589.42  1589.65  1620.27  1622.47  1623.04
eigval :     2940.13  2941.50  2945.86  2959.65  2971.94  2979.18
eigval :     2979.80  2981.77  2996.91  3021.48  3026.17  3026.20
eigval :     3072.95  3073.94  3074.82  3075.07  3078.37  3078.75
eigval :     3084.61  3087.49  3091.80  3094.15  3096.39  3096.79
eigval :     3103.47  3103.77  3104.08  3108.04  3109.44  3111.97
eigval :     3113.31  3113.79  3117.64  3196.75  3347.93  3403.02

   temp. (K)  partition function   enthalpy   heat capacity  entropy
                                   cal/mol     cal/K/mol   cal/K/mol   J/K/mol
 298.15  VIB  0.177E+21            24646.906    153.054    155.622
         ROT  0.597E+08              888.752      2.981     38.563
         INT  0.106E+29            25535.658    156.035    194.185
         TR   0.172E+29             1481.254      4.968     45.415
         TOT                       27016.9123   161.0027   239.6001  1002.4868

       T/K    H(0)-H(T)+PV         H(T)/Eh          T*S/Eh         G(T)/Eh
   ------------------------------------------------------------------------
    298.15    0.430542E-01    0.732853E+00    0.113842E+00    0.619011E+00
   ------------------------------------------------------------------------

         :::::::::::::::::::::::::::::::::::::::::::::::::::::
         ::                  THERMODYNAMIC                  ::
         :::::::::::::::::::::::::::::::::::::::::::::::::::::
         :: total free energy        -137.056761972453 Eh   ::
         ::.................................................::
         :: total energy             -137.675772813915 Eh   ::
         :: zero point energy           0.689798385950 Eh   ::
         :: G(RRHO) w/o ZPVE           -0.070787544488 Eh   ::
         :: G(RRHO) contrib.            0.619010841462 Eh   ::
         :::::::::::::::::::::::::::::::::::::::::::::::::::::

           -------------------------------------------------
          | TOTAL ENERGY             -137.675772813915 Eh   |
          | TOTAL ENTHALPY           -136.942920237772 Eh   |
          | TOTAL FREE ENERGY        -137.056761972453 Eh   |
          | GRADIENT NORM               0.000055731991 Eh/α |
          | HOMO-LUMO GAP               2.854341955236 eV   |
           -------------------------------------------------

 * finished run on 2025/08/29 at 19:10:03.076
