   * xtb version 6.7.1 (edcfbbe) compiled by 'albert@albert-system' on 2024-07-22

   ID    Z sym.   atoms
    1    6 C      1-10, 12-36, 38-43, 45-50
    2    7 N      11, 44
    3    5 B      37
    4    1 H      51-85

          program call               : xtb data2507/toluene/B-dpa-SpiroAC/B-dpa-SpiroAC_toluene_S0_finalOpt.xtbopt.xyz --gfn 2 --uhf 2 --gbsa toluene --ohess vtight --parallel 40 --molden --ceasefiles --namespace data2507/toluene/B-dpa-SpiroAC/B-dpa-SpiroAC_toluene_T1_preOpt
      * Solvation model:               GBSA
        Solvent                        toluene
        Solvent mass                       9.2140E+01 g/mol
          :  Hamiltonian                  GFN2-xTB          :
 * total energy  :  -125.6329955 Eh     change       -0.5861168E-08 Eh
 * total energy  :  -125.6341183 Eh     change       -0.1122752E-02 Eh
 * total energy  :  -125.6344412 Eh     change       -0.3229348E-03 Eh
 * total energy  :  -125.6344897 Eh     change       -0.4848840E-04 Eh
 * total energy  :  -125.6345340 Eh     change       -0.4427882E-04 Eh
 * total energy  :  -125.6345601 Eh     change       -0.2608550E-04 Eh
 * total energy  :  -125.6345887 Eh     change       -0.2863125E-04 Eh
 * total energy  :  -125.6346120 Eh     change       -0.2330722E-04 Eh
 * total energy  :  -125.6346336 Eh     change       -0.2165431E-04 Eh
 * total energy  :  -125.6346514 Eh     change       -0.1777450E-04 Eh
 * total energy  :  -125.6348436 Eh     change       -0.1489937E-05 Eh
 * total energy  :  -125.6348449 Eh     change       -0.1333265E-05 Eh
 * total energy  :  -125.6348461 Eh     change       -0.1230647E-05 Eh
 * total energy  :  -125.6348473 Eh     change       -0.1210302E-05 Eh
 * total energy  :  -125.6348487 Eh     change       -0.1324791E-05 Eh
 * total energy  :  -125.6348502 Eh     change       -0.1508541E-05 Eh
 * total energy  :  -125.6348518 Eh     change       -0.1632115E-05 Eh
 * total energy  :  -125.6348534 Eh     change       -0.1584081E-05 Eh
 * total energy  :  -125.6348534 Eh     change       -0.6019860E-08 Eh
   *** GEOMETRY OPTIMIZATION CONVERGED AFTER 44 ITERATIONS ***

 final structure:
================
85
 xtb: 6.7.1 (edcfbbe)
C            3.74909227941780        4.30297827990323       -0.21667645043561
C            2.28586929216080        3.91860265799211        0.02319212993784
C            1.82158996406903        4.58690164442420        1.32655796611843
C            1.45204999977212        4.44726368076352       -1.15420493366628
C            2.08700541589987        2.41560638214325        0.13902198026335
C            3.13971522356774        1.50369109867910        0.03590139546337
C            2.91969957867870        0.12382049988050        0.10247138562884
C            1.62135080189960       -0.39316000990593        0.26408188767233
C            0.58460450714881        0.53553271792166        0.45269054034974
C            0.80835429463000        1.91059429250333        0.35326480279675
N           -0.70890906333886        0.05559206293177        0.66881319739766
C           -1.59898361759139        0.78162335565255        1.43889249849825
C           -1.14491164131161        1.60351355342802        2.48232462199662
C           -2.03659340831446        2.33635853603797        3.23175063867055
C           -3.39949642295192        2.26108312252285        2.96849991180592
C           -3.86012106708021        1.41587964581475        1.97092427959255
C           -2.98085068846987        0.66170635353065        1.21422956768992
C           -3.45535915032107       -0.23809714332454        0.10396471488845
C           -4.87010523759303       -0.72070636180681        0.33091827707725
C           -5.34905148081802       -1.50200774871740        1.35999843324558
C           -6.70106772075421       -1.82315165112514        1.37760260940988
C           -7.55199029059404       -1.36336201831184        0.38203349094345
C           -7.07616379056958       -0.57549897568459       -0.65307805738814
C           -5.72668357543048       -0.25370875441061       -0.67822130887836
C           -4.94867299942178        0.53431839960540       -1.61684576667517
C           -5.31942517356796        1.19739833909303       -2.77744685285326
C           -4.34918464315974        1.87939514045208       -3.49315337412305
C           -3.03025568156575        1.89713449959473       -3.06430794754545
C           -2.65078517317126        1.23160570212809       -1.90416152502718
C           -3.61322768305512        0.55852444936711       -1.18577093183849
C           -2.47364519951803       -1.36717373336795       -0.10944852538345
C           -2.90483523063838       -2.57315360077109       -0.64872607354032
C           -1.98199708950962       -3.57087151155719       -0.93641603866089
C           -0.64155157073282       -3.37428731364948       -0.68729297835358
C           -0.14820855792241       -2.18743388316618       -0.12118616166161
C           -1.11272438824604       -1.16854045310486        0.13819604046550
B            1.33351317390438       -1.87544776590090        0.14121490587576
C            2.58376343077813       -2.76549942414052        0.13976874862116
C            2.58117278566274       -4.16495932752227        0.26080371058670
C            3.73857423760808       -4.91584429804215        0.27626462244366
C            4.97259665355702       -4.28540344366251        0.17848895339746
C            5.02945664268377       -2.90525556438396        0.08448056488952
C            3.86162923785810       -2.13771314925816        0.06670751747382
N            3.97915561769479       -0.75606503427923       -0.01192549394634
C            5.28222695697660       -0.19910886091383       -0.17423747560078
C            5.84309300623109       -0.12337334087490       -1.44368570802519
C            7.09970111513238        0.43256738175337       -1.60779655681296
C            7.79733990931036        0.91389173286334       -0.51166710383300
C            7.23689278888746        0.83902142578100        0.75346801497235
C            5.98082660116847        0.28454407759447        0.92605410259313
H            4.12020144200176        3.87603314839001       -1.14590168022996
H            4.38180762379244        3.97409111930138        0.60479217813803
H            3.83032162293727        5.38573452926381       -0.28915134005366
H            1.96919236268955        5.66333111185882        1.26875012636133
H            0.76792549634840        4.39873583711555        1.51458210308053
H            2.39435055971015        4.20555781621547        2.16979783579318
H            1.74836150608405        3.95322406537626       -2.07766381031423
H            1.60620158811485        5.51798639598253       -1.27097909636363
H            0.39029086316090        4.27400430267733       -0.99971793102741
H            4.13964838699177        1.86355886289063       -0.13071672101707
H           -0.03656698680207        2.58040898513553        0.40588975689439
H           -0.08936520327309        1.63352366817262        2.70661787619931
H           -1.67382483981940        2.96411522204657        4.03201788143729
H           -4.09946171061295        2.84444024881902        3.54656137844833
H           -4.91994249380642        1.34327544010268        1.77635362975701
H           -4.68689790300350       -1.85964898735079        2.13577107497780
H           -7.09345089301233       -2.43721636246297        2.17519210413054
H           -8.60013499900888       -1.62477787722300        0.41608345654964
H           -7.74252341891096       -0.22017247219267       -1.42532993180995
H           -6.34451365420073        1.18106769317676       -3.11750138853250
H           -4.62152772878192        2.40216078007347       -4.39902164473426
H           -2.28712021357720        2.43126955999981       -3.63841307870305
H           -1.61861635784015        1.24233017358130       -1.58654958628585
H           -3.95282390400661       -2.72394911616349       -0.85822190532931
H           -2.32496068943996       -4.50309590600701       -1.36401143517267
H            0.06041764838805       -4.15060359696533       -0.94913374651751
H            1.63155558222935       -4.66611992861249        0.37081534092536
H            3.68836222399751       -5.99208464033398        0.37070610693194
H            5.88684257184086       -4.86059994506255        0.18656216769727
H            5.99586815733860       -2.42714022951216        0.02717373174063
H            5.28939429089545       -0.50177495103693       -2.29037955789954
H            7.53325184317580        0.49148266724498       -2.59502250279669
H            8.77727629443297        1.34733128355479       -0.64343352132879
H            7.77909817760525        1.21262227395018        1.60931974215489
H            5.53370317984389        0.22057067165515        1.90728935716149

          :  Hamiltonian                  GFN2-xTB          :
         :: gradient norm              0.000063265167 Eh/a0 ::
         :: HOMO-LUMO gap              0.151450292456 eV    ::
         :: SCC energy              -127.943251949961 Eh    ::
         :: -> dispersion             -0.130046250372 Eh    ::
         :: -> Gsolv                  -0.047773196656 Eh    ::
         :: repulsion energy           2.308398559198 Eh    ::

    * Orbital Energies and Occupations

         #    Occupation            Energy/Eh            Energy/eV
      -------------------------------------------------------------
         1        2.0000           -0.6727438             -18.3063
       ...           ...                  ...                  ...
       107        2.0000           -0.4053943             -11.0313
       108        2.0000           -0.3986453             -10.8477
       109        2.0000           -0.3977089             -10.8222
       110        2.0000           -0.3943373             -10.7305
       111        2.0000           -0.3941507             -10.7254
       112        2.0000           -0.3866673             -10.5218
       113        2.0000           -0.3842598             -10.4562
       114        2.0000           -0.3771648             -10.2632
       115        2.0000           -0.3761582             -10.2358
       116        2.0000           -0.3716620             -10.1134
       117        1.9988           -0.3600738              -9.7981
       118        1.0012           -0.3472172              -9.4483
       119        0.9493           -0.2560398              -6.9672 (HOMO)
       120        0.0507           -0.2504738              -6.8157 (LUMO)
       121                         -0.2368443              -6.4449
       122                         -0.2354165              -6.4060
       123                         -0.2304100              -6.2698
       124                         -0.2283426              -6.2135
       125                         -0.2224756              -6.0539
       126                         -0.2211189              -6.0170
       127                         -0.2158418              -5.8734
       128                         -0.2149201              -5.8483
       129                         -0.2078110              -5.6548
       130                         -0.1975472              -5.3755
       ...                                ...                  ...
       235                          0.7303441              19.8737
      -------------------------------------------------------------
                  HL-Gap            0.0055660 Eh            0.1515 eV

     #   Z          covCN         q      C6AA      α(0)
     1   6 C        3.761    -0.107    22.597     6.777
     2   6 C        3.902     0.026    20.081     6.370
     3   6 C        3.761    -0.106    22.563     6.771
     4   6 C        3.761    -0.105    22.551     6.770
     5   6 C        2.969    -0.004    28.118     8.698
     6   6 C        2.922    -0.058    29.450     8.899
     7   6 C        2.924     0.057    26.711     8.476
     8   6 C        2.898    -0.104    30.614     9.072
     9   6 C        2.928     0.043    27.041     8.528
    10   6 C        2.922    -0.042    29.045     8.838
    11   7 N        2.757    -0.009    21.439     6.877
    12   6 C        2.935     0.052    26.841     8.497
    13   6 C        2.920    -0.047    29.160     8.855
    14   6 C        2.917    -0.034    28.837     8.806
    15   6 C        2.918    -0.039    28.962     8.825
    16   6 C        2.920    -0.036    28.891     8.814
    17   6 C        2.983    -0.001    28.042     8.686
    18   6 C        3.949     0.014    20.275     6.398
    19   6 C        3.054     0.001    27.951     8.670
    20   6 C        2.913    -0.033    28.832     8.805
    21   6 C        2.922    -0.036    28.897     8.815
    22   6 C        2.920    -0.035    28.860     8.810
    23   6 C        2.914    -0.037    28.926     8.819
    24   6 C        3.033    -0.003    28.055     8.688
    25   6 C        3.034    -0.003    28.056     8.688
    26   6 C        2.914    -0.037    28.915     8.818
    27   6 C        2.920    -0.035    28.864     8.810
    28   6 C        2.922    -0.036    28.908     8.817
    29   6 C        2.914    -0.037    28.920     8.818
    30   6 C        3.056     0.001    27.950     8.670
    31   6 C        2.979    -0.007    28.186     8.709
    32   6 C        2.920    -0.052    29.303     8.877
    33   6 C        2.912    -0.035    28.862     8.809
    34   6 C        2.920    -0.049    29.211     8.863
    35   6 C        2.884    -0.074    29.854     8.958
    36   6 C        2.936     0.046    26.974     8.518
    37   5 B        2.724     0.142    19.240     7.350
    38   6 C        2.884    -0.073    29.809     8.951
    39   6 C        2.920    -0.047    29.179     8.858
    40   6 C        2.912    -0.036    28.884     8.813
    41   6 C        2.916    -0.044    29.093     8.845
    42   6 C        2.919    -0.058    29.448     8.899
    43   6 C        2.922     0.057    26.728     8.478
    44   7 N        2.755    -0.032    21.869     6.946
    45   6 C        2.933     0.066    26.513     8.445
    46   6 C        2.921    -0.036    28.904     8.816
    47   6 C        2.920    -0.027    28.664     8.780
    48   6 C        2.919    -0.030    28.739     8.791
    49   6 C        2.920    -0.027    28.671     8.781
    50   6 C        2.921    -0.036    28.908     8.817
    51   1 H        0.925     0.035     2.512     2.478
    52   1 H        0.925     0.036     2.498     2.472
    53   1 H        0.925     0.039     2.463     2.454
    54   1 H        0.925     0.039     2.462     2.454
    55   1 H        0.925     0.036     2.498     2.471
    56   1 H        0.925     0.034     2.534     2.489
    57   1 H        0.925     0.033     2.548     2.496
    58   1 H        0.925     0.039     2.460     2.453
    59   1 H        0.925     0.035     2.514     2.480
    60   1 H        0.926     0.042     2.419     2.432
    61   1 H        0.926     0.037     2.484     2.465
    62   1 H        0.926     0.044     2.391     2.418
    63   1 H        0.926     0.039     2.462     2.454
    64   1 H        0.926     0.035     2.513     2.479
    65   1 H        0.926     0.033     2.546     2.495
    66   1 H        0.926     0.025     2.657     2.549
    67   1 H        0.926     0.029     2.603     2.523
    68   1 H        0.926     0.029     2.601     2.522
    69   1 H        0.926     0.029     2.598     2.520
    70   1 H        0.926     0.030     2.581     2.513
    71   1 H        0.926     0.030     2.587     2.515
    72   1 H        0.926     0.030     2.587     2.515
    73   1 H        0.926     0.025     2.652     2.546
    74   1 H        0.926     0.016     2.792     2.613
    75   1 H        0.925     0.019     2.755     2.596
    76   1 H        0.926     0.027     2.633     2.538
    77   1 H        0.926     0.023     2.687     2.563
    78   1 H        0.925     0.016     2.798     2.616
    79   1 H        0.926     0.016     2.798     2.616
    80   1 H        0.926     0.018     2.758     2.597
    81   1 H        0.926     0.043     2.409     2.427
    82   1 H        0.926     0.045     2.389     2.417
    83   1 H        0.926     0.044     2.399     2.422
    84   1 H        0.926     0.045     2.386     2.415
    85   1 H        0.926     0.044     2.398     2.421

molecular dipole:
                 x           y           z       tot (Debye)
 q only:        1.565       1.770       0.290
   full:        1.497       1.784       0.218       5.945

 projected vibrational frequencies (cm⁻¹)
eigval :       -0.00    -0.00    -0.00     0.00     0.00     0.00
eigval :       13.52    20.61    22.03    32.75    38.72    42.50
eigval :       48.91    54.10    58.92    73.85    78.02    82.33
eigval :       93.84   105.52   120.54   132.87   137.23   143.99
eigval :      153.32   180.45   188.49   191.73   203.86   214.30
eigval :      219.76   230.53   232.74   240.67   244.89   259.51
eigval :      265.73   282.72   284.41   292.66   307.69   328.76
eigval :      338.93   339.75   361.64   371.14   373.34   386.26
eigval :      388.26   399.60   411.89   417.15   418.35   431.23
eigval :      436.47   439.09   446.31   459.35   471.55   477.08
eigval :      480.29   492.60   498.23   501.88   506.93   516.41
eigval :      535.15   545.30   549.53   568.40   578.09   586.27
eigval :      588.44   590.88   597.73   603.15   611.12   615.34
eigval :      634.63   638.16   654.62   662.22   672.26   674.78
eigval :      688.67   695.49   698.56   706.49   723.36   743.17
eigval :      749.16   754.29   763.71   766.76   772.67   775.79
eigval :      780.32   781.61   805.36   845.36   858.05   863.46
eigval :      865.25   872.21   873.24   874.02   880.40   881.31
eigval :      883.21   889.49   896.04   898.25   902.24   905.68
eigval :      906.07   908.33   909.06   914.00   915.83   919.46
eigval :      922.85   923.20   926.72   927.92   931.75   958.09
eigval :      961.00   963.94   973.92   984.91  1000.39  1014.48
eigval :     1034.34  1035.49  1065.20  1073.27  1076.44  1080.51
eigval :     1092.15  1095.02  1099.48  1111.85  1116.64  1123.03
eigval :     1138.42  1142.74  1145.47  1170.86  1172.86  1175.66
eigval :     1177.33  1178.14  1178.92  1183.07  1184.23  1193.64
eigval :     1196.28  1204.60  1209.22  1223.63  1227.08  1228.36
eigval :     1233.63  1244.63  1246.28  1252.64  1257.96  1261.46
eigval :     1262.82  1270.69  1271.21  1275.02  1280.37  1283.07
eigval :     1294.34  1306.55  1316.82  1323.13  1326.18  1333.08
eigval :     1334.26  1349.87  1363.16  1364.99  1393.24  1397.62
eigval :     1402.56  1403.67  1408.21  1413.06  1421.45  1423.48
eigval :     1425.26  1427.67  1429.30  1451.35  1452.05  1460.03
eigval :     1460.99  1465.19  1480.17  1490.22  1492.49  1494.08
eigval :     1502.17  1503.61  1505.03  1512.76  1515.34  1517.74
eigval :     1519.64  1528.58  1539.34  1551.16  1569.68  1573.78
eigval :     1575.77  1584.15  1586.21  1596.55  3020.27  3020.96
eigval :     3023.63  3025.50  3028.16  3030.02  3036.00  3041.90
eigval :     3045.56  3055.38  3058.51  3066.89  3067.51  3070.14
eigval :     3072.12  3074.90  3078.34  3078.62  3078.72  3079.94
eigval :     3082.18  3083.86  3084.76  3086.44  3086.81  3087.25
eigval :     3088.62  3089.64  3090.58  3090.65  3090.79  3096.76
eigval :     3098.13  3098.66  3138.25

   temp. (K)  partition function   enthalpy   heat capacity  entropy
                                   cal/mol     cal/K/mol   cal/K/mol   J/K/mol
 298.15  VIB  0.341E+17            23352.720    152.953    141.799
         ROT  0.673E+08              888.752      2.981     38.801
         INT  0.229E+25            24241.472    155.933    180.600
         TR   0.156E+29             1481.254      4.968     45.224
         TOT                       25722.7259   160.9016   225.8245   944.8495

       T/K    H(0)-H(T)+PV         H(T)/Eh          T*S/Eh         G(T)/Eh
   ------------------------------------------------------------------------
    298.15    0.409918E-01    0.706112E+00    0.107296E+00    0.598815E+00
   ------------------------------------------------------------------------

         :::::::::::::::::::::::::::::::::::::::::::::::::::::
         ::                  THERMODYNAMIC                  ::
         :::::::::::::::::::::::::::::::::::::::::::::::::::::
         :: total free energy        -125.036038145205 Eh   ::
         ::.................................................::
         :: total energy             -125.634853388761 Eh   ::
         :: zero point energy           0.665119956033 Eh   ::
         :: G(RRHO) w/o ZPVE           -0.066304712477 Eh   ::
         :: G(RRHO) contrib.            0.598815243556 Eh   ::
         :::::::::::::::::::::::::::::::::::::::::::::::::::::

           -------------------------------------------------
          | TOTAL ENERGY             -125.634853388761 Eh   |
          | TOTAL ENTHALPY           -124.928741659783 Eh   |
          | TOTAL FREE ENERGY        -125.036038145205 Eh   |
          | GRADIENT NORM               0.000063235520 Eh/α |
          | HOMO-LUMO GAP               0.151458875591 eV   |
           -------------------------------------------------

 * finished run on 2025/09/08 at 23:37:02.036
