   * xtb version 6.7.1 (edcfbbe) compiled by 'albert@albert-system' on 2024-07-22

   ID    Z sym.   atoms
    1    6 C      1-10, 12-36, 38-43, 45-50
    2    7 N      11, 44
    3    5 B      37
    4    1 H      51-85

          program call               : xtb data2507/toluene/B-dpa-SpiroAC/B-dpa-SpiroAC_toluene_S0_crest.xyz --gfn 2 --gbsa toluene --ohess vtight --parallel 40 --molden --ceasefiles --namespace data2507/toluene/B-dpa-SpiroAC/B-dpa-SpiroAC_toluene_S0_finalOpt
      * Solvation model:               GBSA
        Solvent                        toluene
        Solvent mass                       9.2140E+01 g/mol
          :  Hamiltonian                  GFN2-xTB          :
 * total energy  :  -125.7216218 Eh     change       -0.5720779E-08 Eh
 * total energy  :  -125.7216630 Eh     change       -0.4117197E-04 Eh
 * total energy  :  -125.7216793 Eh     change       -0.1630485E-04 Eh
 * total energy  :  -125.7216862 Eh     change       -0.6945829E-05 Eh
 * total energy  :  -125.7216941 Eh     change       -0.7894351E-05 Eh
 * total energy  :  -125.7216977 Eh     change       -0.3630231E-05 Eh
 * total energy  :  -125.7217005 Eh     change       -0.2785727E-05 Eh
 * total energy  :  -125.7217027 Eh     change       -0.2145288E-05 Eh
 * total energy  :  -125.7217045 Eh     change       -0.1858664E-05 Eh
 * total energy  :  -125.7217065 Eh     change       -0.2010376E-05 Eh
 * total energy  :  -125.7217141 Eh     change       -0.1609200E-05 Eh
 * total energy  :  -125.7217156 Eh     change       -0.1524625E-05 Eh
 * total energy  :  -125.7217171 Eh     change       -0.1475299E-05 Eh
 * total energy  :  -125.7217186 Eh     change       -0.1457940E-05 Eh
 * total energy  :  -125.7217198 Eh     change       -0.1208518E-05 Eh
 * total energy  :  -125.7217206 Eh     change       -0.8628836E-06 Eh
 * total energy  :  -125.7217214 Eh     change       -0.7285036E-06 Eh
 * total energy  :  -125.7217220 Eh     change       -0.6792872E-06 Eh
 * total energy  :  -125.7217220 Eh     change       -0.6363663E-08 Eh
   *** GEOMETRY OPTIMIZATION CONVERGED AFTER 22 ITERATIONS ***

 final structure:
================
85
 xtb: 6.7.1 (edcfbbe)
C            3.76211984471259        4.31721533365119       -0.16341793155797
C            2.30088098686330        3.92917170501647        0.08394543031048
C            1.84940886796024        4.58086699056838        1.39950747082068
C            1.45955587952507        4.47307575795837       -1.08056805186505
C            2.09698134703804        2.42379753422990        0.17936501463783
C            3.14449505591745        1.52476828718992        0.05757505080836
C            2.91994824210054        0.14673712328552        0.10669388597127
C            1.61696317014343       -0.35366025820388        0.27810027082769
C            0.57257151217169        0.56876214999956        0.46663254422288
C            0.81116692089196        1.93445790422410        0.39361876819220
N           -0.71554221487878        0.08537961226726        0.67668749265212
C           -1.63331225098440        0.80082468292628        1.45389978482269
C           -1.20153419185763        1.58475869241775        2.52399002624256
C           -2.11081233209221        2.28187829202279        3.29361164706867
C           -3.46612974870661        2.19405094544292        3.01960565075259
C           -3.90401754119114        1.37662958206912        1.99336620778915
C           -3.00178092764885        0.66583552545359        1.21617757701675
C           -3.45601403002676       -0.23725446817749        0.09460326321730
C           -4.87654218522440       -0.71437933767163        0.28388787508118
C           -5.38934573397108       -1.49046480392395        1.30243083218099
C           -6.74072390717519       -1.80878967830329        1.28003990935547
C           -7.55990617475295       -1.35477760412472        0.25648743049019
C           -7.04998946521712       -0.57378807271655       -0.76872359206709
C           -5.70157758650577       -0.25450414247822       -0.75222118110163
C           -4.89195659621079        0.52868591245522       -1.67304009090161
C           -5.23089379617449        1.18887626166564       -2.84272460618449
C           -4.23943270006226        1.86634418900436       -3.53475939110593
C           -2.93384876340514        1.88147255078895       -3.06858772667409
C           -2.58759906124192        1.22075598518124       -1.89672551985944
C           -3.57086301647513        0.54920034913737       -1.20260034174327
C           -2.46888590138801       -1.37449504930378       -0.06889844652134
C           -2.88165928109243       -2.59419332663094       -0.57215097085670
C           -1.96121975539258       -3.60028389137008       -0.82671148422736
C           -0.62487364652610       -3.38417447113722       -0.57087401146913
C           -0.15824712396728       -2.17747722869798       -0.04105341836013
C           -1.10888495370750       -1.16051905429587        0.19307800347464
B            1.33257076189257       -1.83962372237590        0.20119079957264
C            2.58387684253804       -2.73299832647235        0.26433294874538
C            2.56665473567294       -4.11657416484772        0.48280950117524
C            3.71366776647092       -4.87714431010068        0.50672773095585
C            4.94223695252455       -4.25808504072692        0.30542471693640
C            5.00997775382305       -2.89684994560158        0.11939686829190
C            3.84722089124153       -2.11137261855086        0.11713847113022
N            3.96906513630989       -0.74085883152097       -0.02833902850169
C            5.26282032560419       -0.19791806908299       -0.29793012825011
C            5.69128893794175       -0.06156564529178       -1.61183570871918
C            6.93990927189889        0.47492397555648       -1.87618220604474
C            7.75952847109498        0.87684980548788       -0.83436312139285
C            7.33075555515243        0.74248156664282        0.47646589484755
C            6.08439542363797        0.20587186426129        0.74793601195506
H            4.12747514990552        3.89621290457468       -1.09763809169496
H            4.40107307834722        3.98331624658613        0.65119510215698
H            3.84144717228862        5.40069823664388       -0.22916077254139
H            2.00380691127023        5.65714305381416        1.35626012432053
H            0.79597033175944        4.39665982359505        1.59228262471424
H            2.42548711688655        4.18311447370066        2.23294793559968
H            1.75135246004012        3.99119262669329       -2.01194951568619
H            1.61225379062056        5.54551243726794       -1.18370431391569
H            0.39918349286017        4.29566017929268       -0.92212437913457
H            4.14864275943625        1.88244001325034       -0.08502777649725
H           -0.01991268986423        2.61644621717388        0.48525499511503
H           -0.14740456789483        1.63784903464797        2.75059543740513
H           -1.75943639692035        2.89116868699139        4.11328989344042
H           -4.17993896953729        2.74888160716537        3.60958327435753
H           -4.96093568715841        1.28983476522763        1.78896681999872
H           -4.75150620523407       -1.84346906968442        2.10034363447600
H           -7.15887431859700       -2.41664339928141        2.06934958080241
H           -8.60893175820004       -1.61420300728627        0.25956676296492
H           -7.69161849322876       -0.22305311540348       -1.56356782854616
H           -6.24677814458006        1.17627379204310       -3.20939049922478
H           -4.48576592180090        2.38746696329765       -4.44884029965411
H           -2.17368507546365        2.41251487431869       -3.62319802299408
H           -1.56594515507785        1.23514466835499       -1.54824783064527
H           -3.92676402358801       -2.75328345808106       -0.79500013193121
H           -2.29676132940733       -4.54099907343972       -1.23917075319970
H            0.09027770338856       -4.15705953945444       -0.80786381386548
H            1.61412186541280       -4.59429732221083        0.65764418956228
H            3.66453572536925       -5.94293813891002        0.67818564077648
H            5.85191102345593       -4.84197936797545        0.30901294646020
H            5.97556649860756       -2.43128172018134       -0.01072357323664
H            5.04335013982028       -0.37750645852743       -2.41630692285299
H            7.27218169015666        0.57934354364412       -2.89842381331321
H            8.73264812624331        1.29546355085739       -1.04345875155038
H            7.96805008862731        1.05564589522888        1.29016299909046
H            5.73913560630514        0.09589105336791        1.76569475910111

          :  Hamiltonian                  GFN2-xTB          :
         :: gradient norm              0.000057180547 Eh/a0 ::
         :: HOMO-LUMO gap              2.222860830989 eV    ::
         :: SCC energy              -128.045001772551 Eh    ::
         :: -> dispersion             -0.130110850025 Eh    ::
         :: -> Gsolv                  -0.046846776321 Eh    ::
         :: repulsion energy           2.323279735265 Eh    ::

    * Orbital Energies and Occupations

         #    Occupation            Energy/Eh            Energy/eV
      -------------------------------------------------------------
         1        2.0000           -0.6661919             -18.1280
       ...           ...                  ...                  ...
       106        2.0000           -0.4070472             -11.0763
       107        2.0000           -0.4039938             -10.9932
       108        2.0000           -0.4005639             -10.8999
       109        2.0000           -0.3966638             -10.7938
       110        2.0000           -0.3957368             -10.7685
       111        2.0000           -0.3948442             -10.7443
       112        2.0000           -0.3903223             -10.6212
       113        2.0000           -0.3868551             -10.5269
       114        2.0000           -0.3809122             -10.3651
       115        2.0000           -0.3788262             -10.3084
       116        2.0000           -0.3761864             -10.2366
       117        2.0000           -0.3604256              -9.8077
       118        2.0000           -0.3412749              -9.2866 (HOMO)
       119                         -0.2595863              -7.0637 (LUMO)
       120                         -0.2514617              -6.8426
       121                         -0.2343142              -6.3760
       122                         -0.2333801              -6.3506
       123                         -0.2277245              -6.1967
       124                         -0.2252838              -6.1303
       125                         -0.2237426              -6.0883
       126                         -0.2189911              -5.9591
       127                         -0.2162418              -5.8842
       128                         -0.2145247              -5.8375
       129                         -0.2109158              -5.7393
       ...                                ...                  ...
       235                          0.7289552              19.8359
      -------------------------------------------------------------
                  HL-Gap            0.0816886 Eh            2.2229 eV

     #   Z          covCN         q      C6AA      α(0)
     1   6 C        3.761    -0.106    22.567     6.772
     2   6 C        3.903     0.025    20.100     6.373
     3   6 C        3.761    -0.104    22.525     6.766
     4   6 C        3.761    -0.103    22.520     6.765
     5   6 C        2.972     0.009    27.807     8.650
     6   6 C        2.923    -0.079    29.964     8.977
     7   6 C        2.925     0.059    26.668     8.469
     8   6 C        2.901    -0.108    30.730     9.089
     9   6 C        2.923     0.058    26.701     8.474
    10   6 C        2.924    -0.070    29.748     8.944
    11   7 N        2.756    -0.054    22.275     7.010
    12   6 C        2.934     0.059    26.682     8.471
    13   6 C        2.923    -0.050    29.233     8.867
    14   6 C        2.919    -0.035    28.860     8.810
    15   6 C        2.918    -0.040    28.999     8.831
    16   6 C        2.923    -0.037    28.931     8.821
    17   6 C        2.986    -0.004    28.121     8.699
    18   6 C        3.950     0.013    20.286     6.400
    19   6 C        3.054     0.001    27.942     8.669
    20   6 C        2.914    -0.032    28.809     8.801
    21   6 C        2.922    -0.033    28.833     8.806
    22   6 C        2.921    -0.034    28.844     8.807
    23   6 C        2.914    -0.036    28.885     8.813
    24   6 C        3.034    -0.000    28.002     8.680
    25   6 C        3.035    -0.001    28.019     8.682
    26   6 C        2.915    -0.035    28.879     8.812
    27   6 C        2.921    -0.034    28.852     8.808
    28   6 C        2.922    -0.034    28.840     8.807
    29   6 C        2.914    -0.036    28.897     8.815
    30   6 C        3.055     0.002    27.927     8.667
    31   6 C        2.980    -0.009    28.242     8.717
    32   6 C        2.924    -0.038    28.946     8.823
    33   6 C        2.913    -0.044    29.094     8.845
    34   6 C        2.922    -0.038    28.939     8.822
    35   6 C        2.887    -0.084    30.111     8.996
    36   6 C        2.938     0.054    26.794     8.489
    37   5 B        2.725     0.194    18.471     7.201
    38   6 C        2.888    -0.085    30.119     8.998
    39   6 C        2.922    -0.034    28.847     8.808
    40   6 C        2.913    -0.045    29.118     8.849
    41   6 C        2.919    -0.031    28.768     8.796
    42   6 C        2.920    -0.057    29.419     8.894
    43   6 C        2.925     0.060    26.649     8.466
    44   7 N        2.754    -0.055    22.310     7.015
    45   6 C        2.932     0.069    26.459     8.436
    46   6 C        2.921    -0.037    28.927     8.820
    47   6 C        2.920    -0.027    28.682     8.782
    48   6 C        2.919    -0.030    28.749     8.793
    49   6 C        2.920    -0.028    28.692     8.784
    50   6 C        2.921    -0.037    28.918     8.819
    51   1 H        0.925     0.035     2.523     2.484
    52   1 H        0.925     0.035     2.517     2.481
    53   1 H        0.925     0.037     2.486     2.466
    54   1 H        0.925     0.038     2.480     2.463
    55   1 H        0.925     0.036     2.498     2.471
    56   1 H        0.925     0.032     2.553     2.499
    57   1 H        0.925     0.032     2.558     2.501
    58   1 H        0.925     0.038     2.478     2.462
    59   1 H        0.925     0.036     2.509     2.477
    60   1 H        0.926     0.031     2.570     2.507
    61   1 H        0.926     0.025     2.659     2.550
    62   1 H        0.926     0.040     2.454     2.450
    63   1 H        0.926     0.035     2.514     2.480
    64   1 H        0.926     0.032     2.554     2.499
    65   1 H        0.926     0.031     2.577     2.511
    66   1 H        0.926     0.027     2.631     2.536
    67   1 H        0.926     0.031     2.569     2.507
    68   1 H        0.926     0.031     2.569     2.506
    69   1 H        0.926     0.032     2.563     2.503
    70   1 H        0.926     0.033     2.551     2.498
    71   1 H        0.926     0.032     2.562     2.503
    72   1 H        0.926     0.032     2.562     2.503
    73   1 H        0.926     0.030     2.589     2.516
    74   1 H        0.926     0.023     2.692     2.566
    75   1 H        0.926     0.022     2.702     2.570
    76   1 H        0.926     0.032     2.556     2.500
    77   1 H        0.926     0.030     2.590     2.517
    78   1 H        0.926     0.020     2.738     2.588
    79   1 H        0.926     0.023     2.689     2.564
    80   1 H        0.926     0.022     2.707     2.573
    81   1 H        0.926     0.041     2.435     2.440
    82   1 H        0.926     0.043     2.415     2.430
    83   1 H        0.926     0.042     2.419     2.432
    84   1 H        0.926     0.043     2.413     2.429
    85   1 H        0.926     0.042     2.419     2.432

molecular dipole:
                 x           y           z       tot (Debye)
 q only:        1.113       0.898      -0.021
   full:        1.073       0.912      -0.057       3.583

 projected vibrational frequencies (cm⁻¹)
eigval :       -0.00    -0.00    -0.00     0.00     0.00     0.00
eigval :        5.48    15.58    22.89    29.66    36.46    43.09
eigval :       47.98    51.19    58.07    73.03    75.30    84.29
eigval :       94.73   103.64   122.26   133.06   138.08   146.30
eigval :      154.46   178.96   189.06   196.30   204.90   216.58
eigval :      219.91   226.46   233.59   241.52   244.62   261.85
eigval :      266.46   283.90   285.77   297.96   308.61   326.03
eigval :      338.58   340.07   362.65   371.29   373.43   389.86
eigval :      392.69   404.90   412.73   417.45   419.16   436.12
eigval :      439.60   445.52   447.71   463.99   479.79   483.10
eigval :      488.43   500.26   502.79   506.02   512.24   521.12
eigval :      540.56   551.58   564.19   575.49   585.89   589.37
eigval :      592.72   596.11   604.01   614.85   618.09   633.19
eigval :      639.47   643.75   658.37   675.79   680.70   684.18
eigval :      694.41   703.23   709.08   716.32   729.26   747.14
eigval :      755.89   768.53   769.67   771.27   783.35   784.67
eigval :      786.07   797.78   825.89   866.46   868.16   872.52
eigval :      878.32   878.44   879.06   886.97   891.25   895.13
eigval :      900.35   902.94   903.61   908.70   910.21   911.33
eigval :      914.71   916.07   921.41   924.40   927.43   927.76
eigval :      929.08   930.63   932.36   935.47   937.45   959.43
eigval :      961.57   963.00   978.83   988.36  1004.60  1018.52
eigval :     1034.77  1035.36  1072.20  1075.27  1077.79  1083.25
eigval :     1100.51  1101.72  1106.92  1112.43  1123.09  1129.35
eigval :     1143.71  1147.67  1153.23  1175.63  1178.42  1179.49
eigval :     1181.12  1182.28  1184.55  1186.69  1187.22  1199.22
eigval :     1203.39  1213.31  1219.08  1225.33  1232.85  1235.74
eigval :     1240.11  1249.10  1252.88  1260.55  1265.04  1266.90
eigval :     1273.25  1277.76  1285.12  1288.88  1300.16  1300.93
eigval :     1306.80  1310.64  1324.04  1324.34  1330.00  1334.29
eigval :     1345.45  1364.71  1369.87  1399.39  1401.40  1402.58
eigval :     1418.20  1425.51  1427.35  1427.69  1430.84  1430.94
eigval :     1437.58  1448.75  1450.75  1460.84  1462.81  1470.76
eigval :     1473.26  1478.01  1489.47  1492.67  1499.90  1502.78
eigval :     1512.25  1518.72  1535.79  1548.32  1554.47  1574.31
eigval :     1580.90  1581.61  1583.11  1585.09  1592.07  1592.95
eigval :     1593.81  1595.31  1600.79  1603.28  3018.24  3019.43
eigval :     3022.40  3024.16  3026.62  3029.02  3034.48  3042.53
eigval :     3046.02  3062.19  3067.11  3068.11  3068.90  3071.11
eigval :     3071.84  3076.00  3076.13  3077.11  3078.31  3079.75
eigval :     3081.24  3081.97  3084.97  3085.01  3085.64  3088.34
eigval :     3089.04  3089.27  3089.80  3091.16  3093.23  3095.73
eigval :     3096.88  3096.97  3141.34

   temp. (K)  partition function   enthalpy   heat capacity  entropy
                                   cal/mol     cal/K/mol   cal/K/mol   J/K/mol
 298.15  VIB  0.109E+18            23188.649    151.241    141.963
         ROT  0.672E+08              888.752      2.981     38.798
         INT  0.731E+25            24077.401    154.221    180.761
         TR   0.156E+29             1481.254      4.968     45.224
         TOT                       25558.6552   159.1895   225.9850   945.5214

       T/K    H(0)-H(T)+PV         H(T)/Eh          T*S/Eh         G(T)/Eh
   ------------------------------------------------------------------------
    298.15    0.407303E-01    0.709759E+00    0.107373E+00    0.602386E+00
   ------------------------------------------------------------------------

         :::::::::::::::::::::::::::::::::::::::::::::::::::::
         ::                  THERMODYNAMIC                  ::
         :::::::::::::::::::::::::::::::::::::::::::::::::::::
         :: total free energy        -125.119335883054 Eh   ::
         ::.................................................::
         :: total energy             -125.721722036147 Eh   ::
         :: zero point energy           0.669028626554 Eh   ::
         :: G(RRHO) w/o ZPVE           -0.066642473461 Eh   ::
         :: G(RRHO) contrib.            0.602386153094 Eh   ::
         :::::::::::::::::::::::::::::::::::::::::::::::::::::

           -------------------------------------------------
          | TOTAL ENERGY             -125.721722036147 Eh   |
          | TOTAL ENTHALPY           -125.011963099937 Eh   |
          | TOTAL FREE ENERGY        -125.119335883054 Eh   |
          | GRADIENT NORM               0.000057181145 Eh/α |
          | HOMO-LUMO GAP               2.222861143399 eV   |
           -------------------------------------------------

 * finished run on 2025/09/08 at 23:36:52.835
