   * xtb version 6.7.1 (edcfbbe) compiled by 'albert@albert-system' on 2024-07-22

   ID    Z sym.   atoms
    1    6 C      1-10, 12-36, 38-43, 45-50
    2    7 N      11, 44
    3    5 B      37
    4    1 H      51-85

          program call               : xtb data2507/toluene/B-dpa-SpiroAC/B-dpa-SpiroAC_toluene_T1_crest.xyz --gfn 2 --uhf 2 --gbsa toluene --ohess vtight --parallel 40 --molden --ceasefiles --namespace data2507/toluene/B-dpa-SpiroAC/B-dpa-SpiroAC_toluene_T1_finalOpt
      * Solvation model:               GBSA
        Solvent                        toluene
        Solvent mass                       9.2140E+01 g/mol
          :  Hamiltonian                  GFN2-xTB          :
 * total energy  :  -125.6347038 Eh     change       -0.5605983E-08 Eh
 * total energy  :  -125.6347543 Eh     change       -0.5049413E-04 Eh
 * total energy  :  -125.6347739 Eh     change       -0.1963054E-04 Eh
 * total energy  :  -125.6347831 Eh     change       -0.9241873E-05 Eh
 * total energy  :  -125.6347950 Eh     change       -0.1187308E-04 Eh
 * total energy  :  -125.6348056 Eh     change       -0.1063489E-04 Eh
 * total energy  :  -125.6348126 Eh     change       -0.6980620E-05 Eh
 * total energy  :  -125.6348185 Eh     change       -0.5879894E-05 Eh
 * total energy  :  -125.6348240 Eh     change       -0.5511010E-05 Eh
 * total energy  :  -125.6348285 Eh     change       -0.4468785E-05 Eh
 * total energy  :  -125.6348525 Eh     change       -0.1911598E-06 Eh
 * total energy  :  -125.6348527 Eh     change       -0.1928866E-06 Eh
 * total energy  :  -125.6348529 Eh     change       -0.1864293E-06 Eh
 * total energy  :  -125.6348531 Eh     change       -0.2042880E-06 Eh
 * total energy  :  -125.6348533 Eh     change       -0.2208491E-06 Eh
 * total energy  :  -125.6348535 Eh     change       -0.2316138E-06 Eh
 * total energy  :  -125.6348537 Eh     change       -0.1795277E-06 Eh
 * total energy  :  -125.6348538 Eh     change       -0.1062247E-06 Eh
 * total energy  :  -125.6348539 Eh     change       -0.7914872E-07 Eh
   *** GEOMETRY OPTIMIZATION CONVERGED AFTER 40 ITERATIONS ***

 final structure:
================
85
 xtb: 6.7.1 (edcfbbe)
C            1.79265109862919        4.62930213739717        1.17944730163001
C            2.26812090551859        3.93259170744365       -0.10489146715441
C            1.43790955978020        4.42835605673110       -1.29905034780229
C            3.73043691998459        4.32023100058741       -0.34515793128604
C            2.07734909745044        2.43144838071566        0.04443106504007
C            3.13436332927164        1.52280491988677       -0.04325896647013
C            2.92187482359632        0.14344743304508        0.05188023613019
C            1.62571521075285       -0.37698568178733        0.22016985064875
C            0.58590215460038        0.55030022268923        0.39877763159247
C            0.80219284815885        1.92433728816617        0.27468522559916
N           -0.70283113810120        0.06751811871974        0.63616790034282
C           -1.58411138642599        0.79642914829205        1.41339205224016
C           -1.11713516989281        1.63534816453408        2.43740539282302
C           -2.00043712271973        2.36871119873151        3.19613041360679
C           -3.36756375953206        2.27738869330998        2.96161563869557
C           -3.83996155801692        1.41653672616756        1.98315203678563
C           -2.96896458399096        0.66169771430768        1.21754566719219
C           -3.45788992778226       -0.25457390423053        0.12704682098357
C           -4.86176583911180       -0.74995204979765        0.39156459607716
C           -5.30752300448832       -1.52798783866975        1.43786076845628
C           -6.65537825866768       -1.86220244366905        1.49098464988219
C           -7.53493613967066       -1.41844155863308        0.51323624469138
C           -7.09242657045597       -0.63407510870496       -0.53921484069538
C           -5.74726041089704       -0.29931594807761       -0.59985106113421
C           -5.00007952715550        0.48915977770796       -1.56302509385680
C           -5.40542355607192        1.14073853546872       -2.71852652044576
C           -4.45947573245700        1.82712893503527       -3.46210061820812
C           -3.13063937109147        1.86009293131219       -3.06602094234275
C           -2.71659698063579        1.20609503665553       -1.91119442207045
C           -3.65481854005701        0.52911595640600       -1.16500101846471
C           -2.46978767641874       -1.37588009571373       -0.09709736688393
C           -2.90064231056026       -2.58880239222831       -0.62085109294293
C           -1.97532813737965       -3.58176025141036       -0.91662841508372
C           -0.63285209529620       -3.37495207386034       -0.68723158380590
C           -0.13950851036011       -2.18131421573721       -0.13574019937860
C           -1.10650901353438       -1.16547976176354        0.12663448341741
B            1.34306346294626       -1.86127835455515        0.11394961185528
C            2.59672841305633       -2.74653725935190        0.11991721645225
C            2.59836626217370       -4.14517024281931        0.25050928719578
C            3.75815724049884       -4.89178258130455        0.28150345718164
C            4.99071153567141       -4.25731192853286        0.19199392940819
C            5.04323880269933       -2.87772284053205        0.08833061935552
C            3.87295659992388       -2.11461585889203        0.05100417814524
N            3.98645608322784       -0.73317798128353       -0.03991545346123
C            5.29028060804901       -0.17072093832981       -0.17092355671252
C            5.89896314165154       -0.12364995862797       -1.41968977497861
C            7.15607209072751        0.43978381630815       -1.55063002505820
C            7.80715763646206        0.95694820963414       -0.44216150723661
C            7.19983523338765        0.90925705484184        0.80250775327771
C            5.94287613206311        0.34781321663011        0.94185159672947
H            2.36004001332001        4.26880249586345        2.03542045972184
H            0.73802346183938        4.44352644393580        1.36425717372226
H            1.93846139994117        5.70443809514471        1.09798816774933
H            1.74669904934286        3.91945977028102       -2.21024704629740
H            0.37699311073791        4.24619550963156       -1.14892638624811
H            1.58137100910231        5.49817122375799       -1.43615623182782
H            4.36060299857353        4.01113692420206        0.48590564384790
H            3.80601860015307        5.40176906463959       -0.43888900564936
H            4.10890342803948        3.87730476736606       -1.26384018578797
H            4.13184528031284        1.88412832218373       -0.22121316150359
H           -0.04601778013724        2.59059115397666        0.32036827007538
H           -0.05769488769725        1.67812579061766        2.63997839619294
H           -1.62754462776318        3.00916083891723        3.98154351157780
H           -4.06138842570416        2.86046770212277        3.54731918707689
H           -4.90275292104481        1.33175101066024        1.81102617270159
H           -4.62306867130843       -1.87304471752508        2.19982715021196
H           -7.02198982452589       -2.47400917537210        2.30241206409741
H           -8.57927848684439       -1.68974710584032        0.57513759968308
H           -7.78105599792824       -0.29137438032307       -1.29749727402358
H           -6.43832558696240        1.11257442613593       -3.03326909469025
H           -4.75890444282089        2.34147338443703       -4.36422078951006
H           -2.40707025164075        2.39744619461058       -3.66170740778943
H           -1.67725190992165        1.22844574511966       -1.61846483671725
H           -3.95081466716182       -2.74832048937089       -0.81223847357321
H           -2.31810019504600       -4.51897372969247       -1.33330184221609
H            0.07027571600061       -4.14883201028329       -0.95317140626483
H            1.64976396728728       -4.64905355948103        0.35638472876605
H            3.71095366578145       -5.96751810095575        0.38296679690273
H            5.90705985148919       -4.82877777492887        0.21429288631678
H            6.00851348978060       -2.39658347272946        0.03835336252196
H            5.38171942330493       -0.53024045670125       -2.27627686048689
H            7.62671886761986        0.47678071856949       -2.52179113005160
H            8.78754071830862        1.39633716368630       -0.54832923334056
H            7.70576737053097        1.30994888008540        1.66827250928187
H            5.45918571963118        0.30518158374465        1.90674785716452

          :  Hamiltonian                  GFN2-xTB          :
         :: gradient norm              0.000037912228 Eh/a0 ::
         :: HOMO-LUMO gap              0.152550848283 eV    ::
         :: SCC energy              -127.943276279074 Eh    ::
         :: -> dispersion             -0.130025476596 Eh    ::
         :: -> Gsolv                  -0.047723203536 Eh    ::
         :: repulsion energy           2.308422378987 Eh    ::

    * Orbital Energies and Occupations

         #    Occupation            Energy/Eh            Energy/eV
      -------------------------------------------------------------
         1        2.0000           -0.6727416             -18.3062
       ...           ...                  ...                  ...
       107        2.0000           -0.4054514             -11.0329
       108        2.0000           -0.3986533             -10.8479
       109        2.0000           -0.3977182             -10.8225
       110        2.0000           -0.3943994             -10.7322
       111        2.0000           -0.3941734             -10.7260
       112        2.0000           -0.3866207             -10.5205
       113        2.0000           -0.3842891             -10.4570
       114        2.0000           -0.3772608             -10.2658
       115        2.0000           -0.3761977             -10.2369
       116        2.0000           -0.3716666             -10.1136
       117        1.9989           -0.3600708              -9.7980
       118        1.0011           -0.3471274              -9.4458
       119        0.9503           -0.2561539              -6.9703 (HOMO)
       120        0.0497           -0.2505474              -6.8177 (LUMO)
       121                         -0.2367664              -6.4427
       122                         -0.2352479              -6.4014
       123                         -0.2303316              -6.2676
       124                         -0.2283717              -6.2143
       125                         -0.2224846              -6.0541
       126                         -0.2211856              -6.0188
       127                         -0.2158546              -5.8737
       128                         -0.2149659              -5.8495
       129                         -0.2078732              -5.6565
       130                         -0.1975219              -5.3748
       ...                                ...                  ...
       235                          0.7302687              19.8716
      -------------------------------------------------------------
                  HL-Gap            0.0056065 Eh            0.1526 eV

     #   Z          covCN         q      C6AA      α(0)
     1   6 C        3.761    -0.106    22.563     6.771
     2   6 C        3.902     0.026    20.081     6.370
     3   6 C        3.761    -0.105    22.550     6.769
     4   6 C        3.761    -0.107    22.597     6.777
     5   6 C        2.968    -0.004    28.120     8.698
     6   6 C        2.922    -0.058    29.448     8.899
     7   6 C        2.925     0.057    26.712     8.476
     8   6 C        2.898    -0.104    30.612     9.072
     9   6 C        2.928     0.043    27.043     8.528
    10   6 C        2.922    -0.042    29.043     8.838
    11   7 N        2.757    -0.010    21.441     6.877
    12   6 C        2.935     0.052    26.839     8.496
    13   6 C        2.920    -0.047    29.162     8.856
    14   6 C        2.917    -0.034    28.836     8.806
    15   6 C        2.918    -0.039    28.962     8.825
    16   6 C        2.920    -0.036    28.891     8.814
    17   6 C        2.983    -0.001    28.043     8.687
    18   6 C        3.949     0.014    20.275     6.398
    19   6 C        3.054     0.001    27.949     8.670
    20   6 C        2.913    -0.033    28.831     8.805
    21   6 C        2.922    -0.036    28.895     8.815
    22   6 C        2.920    -0.035    28.860     8.810
    23   6 C        2.914    -0.037    28.925     8.819
    24   6 C        3.033    -0.002    28.054     8.688
    25   6 C        3.034    -0.002    28.054     8.688
    26   6 C        2.914    -0.037    28.914     8.817
    27   6 C        2.920    -0.035    28.863     8.810
    28   6 C        2.922    -0.036    28.905     8.817
    29   6 C        2.914    -0.037    28.918     8.818
    30   6 C        3.056     0.001    27.949     8.670
    31   6 C        2.979    -0.007    28.187     8.709
    32   6 C        2.921    -0.052    29.300     8.877
    33   6 C        2.912    -0.035    28.863     8.810
    34   6 C        2.920    -0.049    29.209     8.863
    35   6 C        2.884    -0.074    29.851     8.957
    36   6 C        2.936     0.046    26.973     8.518
    37   5 B        2.724     0.142    19.240     7.350
    38   6 C        2.884    -0.073    29.809     8.951
    39   6 C        2.920    -0.047    29.179     8.858
    40   6 C        2.912    -0.036    28.885     8.813
    41   6 C        2.916    -0.044    29.093     8.845
    42   6 C        2.919    -0.058    29.448     8.899
    43   6 C        2.922     0.057    26.729     8.478
    44   7 N        2.755    -0.032    21.866     6.945
    45   6 C        2.933     0.066    26.517     8.445
    46   6 C        2.921    -0.036    28.907     8.817
    47   6 C        2.920    -0.027    28.667     8.780
    48   6 C        2.919    -0.030    28.743     8.792
    49   6 C        2.920    -0.027    28.672     8.781
    50   6 C        2.921    -0.037    28.909     8.817
    51   1 H        0.925     0.034     2.534     2.489
    52   1 H        0.925     0.036     2.498     2.471
    53   1 H        0.925     0.039     2.462     2.454
    54   1 H        0.925     0.033     2.548     2.496
    55   1 H        0.925     0.035     2.515     2.480
    56   1 H        0.925     0.039     2.460     2.453
    57   1 H        0.925     0.036     2.498     2.472
    58   1 H        0.925     0.039     2.463     2.454
    59   1 H        0.925     0.035     2.512     2.479
    60   1 H        0.926     0.042     2.419     2.432
    61   1 H        0.926     0.037     2.486     2.466
    62   1 H        0.926     0.044     2.391     2.418
    63   1 H        0.926     0.039     2.462     2.454
    64   1 H        0.926     0.035     2.513     2.479
    65   1 H        0.926     0.033     2.546     2.495
    66   1 H        0.926     0.025     2.656     2.549
    67   1 H        0.926     0.029     2.602     2.522
    68   1 H        0.926     0.029     2.599     2.521
    69   1 H        0.926     0.029     2.596     2.520
    70   1 H        0.926     0.030     2.580     2.512
    71   1 H        0.926     0.030     2.586     2.515
    72   1 H        0.926     0.030     2.586     2.515
    73   1 H        0.926     0.025     2.652     2.547
    74   1 H        0.926     0.016     2.792     2.613
    75   1 H        0.925     0.019     2.755     2.596
    76   1 H        0.926     0.027     2.633     2.538
    77   1 H        0.926     0.023     2.685     2.563
    78   1 H        0.925     0.016     2.798     2.616
    79   1 H        0.926     0.016     2.797     2.615
    80   1 H        0.926     0.018     2.756     2.596
    81   1 H        0.926     0.043     2.408     2.427
    82   1 H        0.926     0.044     2.391     2.418
    83   1 H        0.926     0.044     2.401     2.423
    84   1 H        0.926     0.045     2.388     2.417
    85   1 H        0.926     0.044     2.402     2.423

molecular dipole:
                 x           y           z       tot (Debye)
 q only:        1.535       1.776       0.272
   full:        1.467       1.788       0.206       5.901

 projected vibrational frequencies (cm⁻¹)
eigval :       -0.00    -0.00    -0.00     0.00     0.00     0.00
eigval :       10.72    18.13    21.14    31.03    34.89    37.95
eigval :       47.49    51.84    58.81    71.45    75.69    81.21
eigval :       92.98   103.05   117.92   132.46   136.05   143.40
eigval :      151.99   179.61   188.02   192.71   203.63   213.32
eigval :      219.12   230.89   232.22   240.82   244.66   259.30
eigval :      265.59   281.97   284.04   292.01   307.14   328.28
eigval :      337.94   339.59   361.49   369.38   373.59   385.38
eigval :      387.29   397.39   411.76   416.60   417.85   430.69
eigval :      436.45   439.14   445.93   459.24   471.27   476.33
eigval :      479.13   492.36   498.32   501.68   506.84   515.86
eigval :      535.03   544.95   549.38   568.31   577.80   586.11
eigval :      588.08   590.57   597.25   602.87   611.09   615.27
eigval :      634.59   638.49   654.29   661.72   671.42   675.01
eigval :      687.28   695.17   697.88   706.07   723.20   742.49
eigval :      749.39   753.80   763.74   766.82   771.24   774.43
eigval :      780.18   781.16   807.67   844.97   856.96   862.99
eigval :      864.21   871.55   872.95   874.30   879.96   881.29
eigval :      882.13   889.40   895.90   897.51   901.73   904.65
eigval :      905.92   908.35   909.29   913.70   915.65   917.44
eigval :      922.22   923.60   927.85   927.89   931.51   957.88
eigval :      960.82   963.47   973.63   984.78  1000.43  1014.22
eigval :     1034.16  1034.71  1065.50  1073.41  1076.15  1080.16
eigval :     1092.52  1095.09  1099.38  1111.52  1116.36  1121.55
eigval :     1138.88  1142.68  1145.49  1170.90  1172.89  1176.65
eigval :     1176.79  1177.57  1178.97  1183.09  1183.98  1192.91
eigval :     1196.32  1204.82  1208.76  1223.42  1226.86  1228.41
eigval :     1233.08  1244.32  1246.36  1252.86  1257.97  1261.26
eigval :     1262.57  1270.55  1271.02  1274.41  1280.46  1282.81
eigval :     1294.18  1306.81  1316.38  1323.21  1326.05  1332.77
eigval :     1334.30  1349.54  1363.72  1364.81  1393.30  1397.03
eigval :     1402.96  1404.10  1407.33  1412.39  1421.47  1423.20
eigval :     1425.25  1427.34  1429.11  1451.25  1452.09  1459.98
eigval :     1460.62  1465.08  1480.21  1489.85  1492.68  1492.90
eigval :     1502.04  1504.19  1505.26  1512.42  1515.31  1518.22
eigval :     1519.28  1528.15  1540.02  1551.50  1569.90  1573.55
eigval :     1574.50  1584.28  1585.12  1596.58  3019.97  3020.89
eigval :     3023.60  3025.35  3027.87  3030.11  3035.84  3041.85
eigval :     3045.60  3055.24  3058.62  3066.65  3068.03  3070.15
eigval :     3072.13  3075.05  3078.13  3078.64  3078.74  3079.99
eigval :     3082.28  3083.59  3084.36  3086.23  3086.41  3087.14
eigval :     3088.27  3089.67  3090.69  3090.82  3091.06  3096.63
eigval :     3098.25  3098.64  3138.31

   temp. (K)  partition function   enthalpy   heat capacity  entropy
                                   cal/mol     cal/K/mol   cal/K/mol   J/K/mol
 298.15  VIB  0.794E+17            23414.449    152.707    142.564
         ROT  0.674E+08              888.752      2.981     38.804
         INT  0.535E+25            24303.202    155.687    181.367
         TR   0.156E+29             1481.254      4.968     45.224
         TOT                       25784.4554   160.6556   226.5917   948.0595

       T/K    H(0)-H(T)+PV         H(T)/Eh          T*S/Eh         G(T)/Eh
   ------------------------------------------------------------------------
    298.15    0.410901E-01    0.706013E+00    0.107661E+00    0.598352E+00
   ------------------------------------------------------------------------

         :::::::::::::::::::::::::::::::::::::::::::::::::::::
         ::                  THERMODYNAMIC                  ::
         :::::::::::::::::::::::::::::::::::::::::::::::::::::
         :: total free energy        -125.036501631316 Eh   ::
         ::.................................................::
         :: total energy             -125.634853896059 Eh   ::
         :: zero point energy           0.664923129946 Eh   ::
         :: G(RRHO) w/o ZPVE           -0.066570865204 Eh   ::
         :: G(RRHO) contrib.            0.598352264742 Eh   ::
         :::::::::::::::::::::::::::::::::::::::::::::::::::::

           -------------------------------------------------
          | TOTAL ENERGY             -125.634853896059 Eh   |
          | TOTAL ENTHALPY           -124.928840620893 Eh   |
          | TOTAL FREE ENERGY        -125.036501631316 Eh   |
          | GRADIENT NORM               0.000038043505 Eh/α |
          | HOMO-LUMO GAP               0.152559802873 eV   |
           -------------------------------------------------

 * finished run on 2025/09/08 at 23:42:51.926
