   * xtb version 6.7.1 (edcfbbe) compiled by 'albert@albert-system' on 2024-07-22

   ID    Z sym.   atoms
    1    6 C      1-10, 12-36, 38-43, 45-50
    2    7 N      11, 44
    3    5 B      37
    4    1 H      51-85

          program call               : xtb data2507/toluene/B-dpa-SpiroAC/B-dpa-SpiroAC.xyz --gfn 2 --gbsa toluene --ohess vtight --parallel 40 --molden --ceasefiles --namespace data2507/toluene/B-dpa-SpiroAC/B-dpa-SpiroAC_toluene_S0_preOpt
      * Solvation model:               GBSA
        Solvent                        toluene
        Solvent mass                       9.2140E+01 g/mol
          :  Hamiltonian                  GFN2-xTB          :
 * total energy  :  -125.6022755 Eh     change       -0.2285873E-08 Eh
 * total energy  :  -125.6523873 Eh     change       -0.5011180E-01 Eh
 * total energy  :  -125.6731313 Eh     change       -0.2074398E-01 Eh
 * total energy  :  -125.6828980 Eh     change       -0.9766668E-02 Eh
 * total energy  :  -125.6893966 Eh     change       -0.6498585E-02 Eh
 * total energy  :  -125.6944472 Eh     change       -0.5050605E-02 Eh
 * total energy  :  -125.6986818 Eh     change       -0.4234643E-02 Eh
 * total energy  :  -125.7021522 Eh     change       -0.3470356E-02 Eh
 * total energy  :  -125.7048743 Eh     change       -0.2722073E-02 Eh
 * total energy  :  -125.7070355 Eh     change       -0.2161193E-02 Eh
 * total energy  :  -125.7217662 Eh     change       -0.5434217E-06 Eh
 * total energy  :  -125.7217666 Eh     change       -0.3737145E-06 Eh
 * total energy  :  -125.7217668 Eh     change       -0.2659254E-06 Eh
 * total energy  :  -125.7217670 Eh     change       -0.2165643E-06 Eh
 * total energy  :  -125.7217672 Eh     change       -0.1807952E-06 Eh
 * total energy  :  -125.7217674 Eh     change       -0.1420031E-06 Eh
 * total energy  :  -125.7217675 Eh     change       -0.1012917E-06 Eh
 * total energy  :  -125.7217676 Eh     change       -0.1028652E-06 Eh
 * total energy  :  -125.7217677 Eh     change       -0.8718584E-07 Eh
   *** GEOMETRY OPTIMIZATION CONVERGED AFTER 119 ITERATIONS ***

 final structure:
================
85
 xtb: 6.7.1 (edcfbbe)
C            1.66232833858928        3.67623104680511       -1.97150512216772
C            2.47422109757830        3.31666197993134       -0.71799671637486
C            3.96006798991254        3.48888944426111       -1.04908059407546
C            2.12322505282575        4.28301469929335        0.42305265884287
C            2.12388923213115        1.89732121864302       -0.29424295343571
C            3.07263063672226        0.88959291508177       -0.22575501622381
C            2.71241185293506       -0.41602873649995        0.11698233923120
C            1.37216121445439       -0.72955365539622        0.40472590755758
C            0.43160710986286        0.31579482995168        0.40094741396116
C            0.80259482753125        1.60142918273870        0.03064858319141
N           -0.89049620878859        0.02627190810059        0.72590813278353
C           -1.70445593395632        0.98276042504681        1.34320163190751
C           -1.15849666026036        1.92865780502231        2.21125251242793
C           -1.96579379398164        2.86461365529223        2.82552189365783
C           -3.33250226922617        2.86109343543928        2.59802228073589
C           -3.88623979777585        1.89285384253962        1.78016231614766
C           -3.08766094244520        0.94204437372319        1.16238399603262
C           -3.67172759439392       -0.12896020209092        0.27301260833788
C           -5.12090552606015       -0.41187550191154        0.59170042083861
C           -5.65899734716967       -0.89862677710451        1.76482014664211
C           -7.03300454839806       -1.08452839998855        1.83932026531571
C           -7.84907344755361       -0.78633995375196        0.75770921382906
C           -7.31353638624301       -0.29651336443476       -0.42314275802993
C           -5.94278661406795       -0.10939231250922       -0.50316785512562
C           -5.10429493192275        0.37574541385514       -1.58878032284062
C           -5.42934968418286        0.79770558210037       -2.86754245748925
C           -4.40952421142585        1.21035826756716       -3.71051285605566
C           -3.08998021341380        1.19854881334272       -3.28538689697911
C           -2.75758566717322        0.77600691603812       -2.00451730348305
C           -3.76856777071815        0.36846562811539       -1.16117568953854
C           -2.80486823543354       -1.36940160164110        0.33902118252579
C           -3.35305012256852       -2.61850503087724        0.11400879790657
C           -2.54587890464767       -3.74557116036338        0.06820939171097
C           -1.18686716164874       -3.61996537087102        0.25596646769092
C           -0.58541577076510       -2.38338315897599        0.50817137368345
C           -1.42195596655989       -1.24642400708670        0.52922392462720
B            0.93900936366616       -2.15953648911462        0.65410175747056
C            2.09630134964750       -3.14639781949347        0.88823765033540
C            1.94885867139526       -4.44497760517627        1.39255567387073
C            3.01254799750633       -5.30449999109437        1.54880221311257
C            4.28676965558994       -4.87846926347136        1.19080899737792
C            4.48395026104449       -3.59982485815177        0.72356517441355
C            3.40868938415298       -2.70817207285444        0.58869611650296
N            3.66279740718890       -1.41670799280333        0.16282153742443
C            4.99741718001651       -1.07365314902782       -0.21460944339694
C            5.39561109398878       -1.21067377239567       -1.53784486468341
C            6.68372612677058       -0.86399571594853       -1.90830583157494
C            7.57314807696080       -0.37994536996238       -0.96307722049694
C            7.17509235274845       -0.24306384285982        0.35713987051776
C            5.88909258478608       -0.58791669964218        0.73445901109251
H            0.59375058898221        3.63961690358516       -1.77728167301568
H            1.88735244992238        2.97992655426770       -2.77731954695566
H            1.91270049419778        4.68166883408818       -2.30397238620523
H            4.14486607622377        4.51719313361604       -1.35403208136218
H            4.58313698014424        3.27874031609827       -0.18249501723147
H            4.25797212032402        2.83708844791791       -1.86754503354167
H            2.67358156481814        4.01701763821671        1.32371013837285
H            1.06102813386177        4.25849358125657        0.65088612286260
H            2.38778157996095        5.30142453874493        0.14571435715723
H            4.10328005071171        1.10286875146309       -0.44680585334636
H            0.04673719049744        2.36968117837548       -0.02124265090549
H           -0.09644660373399        1.91980478641382        2.40453810408841
H           -1.52621946781471        3.59488984476306        3.48885663291060
H           -3.96593320825494        3.60050230563290        3.06441823713844
H           -4.95356966791197        1.87368989887948        1.61602127745343
H           -5.02310697307530       -1.13227069034385        2.60695789059073
H           -7.47125913775021       -1.46632481376847        2.75006728770468
H           -8.91585434885759       -0.93926282828750        0.83782884679995
H           -7.95293578393889       -0.06663755576224       -1.26268508074398
H           -6.45618371338414        0.80497965051007       -3.20249181087185
H           -4.64456469424858        1.54254891525130       -4.71164380709199
H           -2.30805167028810        1.52089642201920       -3.95776914939665
H           -1.72557855584312        0.76500149077679       -1.68772238163407
H           -4.41600013953783       -2.71131050666046       -0.05535202310175
H           -2.98646086274633       -4.71225182847962       -0.12932059036957
H           -0.56013630429475       -4.49552553827221        0.18232795406484
H            0.96160704078618       -4.76995913314724        1.68548304872642
H            2.86327623098908       -6.29985904387908        1.94209690311788
H            5.13096561647636       -5.54607539741103        1.29136048573103
H            5.48426063651921       -3.28022818763435        0.47200960774469
H            4.69231672039062       -1.58660045028400       -2.26645551417781
H            6.99201968046612       -0.97134705814245       -2.93769453242004
H            8.57692431628177       -0.10936111357367       -1.25485420469355
H            7.86683806910461        0.13453374843725        1.09549197188440
H            5.56677644383643       -0.48471330190809        1.76039491108997

          :  Hamiltonian                  GFN2-xTB          :
         :: gradient norm              0.000034239592 Eh/a0 ::
         :: HOMO-LUMO gap              2.222414433619 eV    ::
         :: SCC energy              -128.045035768033 Eh    ::
         :: -> dispersion             -0.130096897538 Eh    ::
         :: -> Gsolv                  -0.046907274049 Eh    ::
         :: repulsion energy           2.323268105462 Eh    ::

    * Orbital Energies and Occupations

         #    Occupation            Energy/Eh            Energy/eV
      -------------------------------------------------------------
         1        2.0000           -0.6662428             -18.1294
       ...           ...                  ...                  ...
       106        2.0000           -0.4070851             -11.0773
       107        2.0000           -0.4039673             -10.9925
       108        2.0000           -0.4005306             -10.8990
       109        2.0000           -0.3966664             -10.7938
       110        2.0000           -0.3957618             -10.7692
       111        2.0000           -0.3948488             -10.7444
       112        2.0000           -0.3903302             -10.6214
       113        2.0000           -0.3868722             -10.5273
       114        2.0000           -0.3809120             -10.3651
       115        2.0000           -0.3788184             -10.3082
       116        2.0000           -0.3761235             -10.2348
       117        2.0000           -0.3603938              -9.8068
       118        2.0000           -0.3412482              -9.2858 (HOMO)
       119                         -0.2595761              -7.0634 (LUMO)
       120                         -0.2514643              -6.8427
       121                         -0.2343373              -6.3766
       122                         -0.2334137              -6.3515
       123                         -0.2276823              -6.1956
       124                         -0.2252779              -6.1301
       125                         -0.2237602              -6.0888
       126                         -0.2190308              -5.9601
       127                         -0.2162506              -5.8845
       128                         -0.2145194              -5.8374
       129                         -0.2109195              -5.7394
       ...                                ...                  ...
       235                          0.7289517              19.8358
      -------------------------------------------------------------
                  HL-Gap            0.0816721 Eh            2.2224 eV

     #   Z          covCN         q      C6AA      α(0)
     1   6 C        3.761    -0.103    22.521     6.765
     2   6 C        3.903     0.025    20.100     6.373
     3   6 C        3.761    -0.106    22.567     6.772
     4   6 C        3.761    -0.104    22.525     6.766
     5   6 C        2.972     0.009    27.808     8.650
     6   6 C        2.923    -0.079    29.964     8.977
     7   6 C        2.925     0.059    26.669     8.469
     8   6 C        2.901    -0.108    30.729     9.089
     9   6 C        2.923     0.058    26.701     8.474
    10   6 C        2.924    -0.070    29.747     8.944
    11   7 N        2.756    -0.054    22.275     7.010
    12   6 C        2.934     0.059    26.682     8.471
    13   6 C        2.923    -0.050    29.234     8.867
    14   6 C        2.919    -0.035    28.860     8.810
    15   6 C        2.918    -0.040    29.000     8.831
    16   6 C        2.923    -0.037    28.930     8.820
    17   6 C        2.986    -0.004    28.122     8.699
    18   6 C        3.950     0.013    20.287     6.400
    19   6 C        3.054     0.001    27.941     8.669
    20   6 C        2.914    -0.032    28.809     8.801
    21   6 C        2.922    -0.033    28.832     8.806
    22   6 C        2.921    -0.034    28.844     8.807
    23   6 C        2.914    -0.036    28.885     8.813
    24   6 C        3.034    -0.000    28.002     8.680
    25   6 C        3.035    -0.001    28.019     8.682
    26   6 C        2.915    -0.035    28.878     8.812
    27   6 C        2.921    -0.034    28.852     8.808
    28   6 C        2.922    -0.034    28.840     8.807
    29   6 C        2.914    -0.036    28.896     8.815
    30   6 C        3.055     0.002    27.927     8.667
    31   6 C        2.981    -0.009    28.242     8.717
    32   6 C        2.924    -0.038    28.946     8.823
    33   6 C        2.913    -0.044    29.094     8.845
    34   6 C        2.923    -0.038    28.940     8.822
    35   6 C        2.887    -0.084    30.111     8.996
    36   6 C        2.938     0.054    26.794     8.489
    37   5 B        2.725     0.194    18.472     7.201
    38   6 C        2.888    -0.085    30.120     8.998
    39   6 C        2.922    -0.034    28.848     8.808
    40   6 C        2.913    -0.045    29.120     8.849
    41   6 C        2.919    -0.031    28.768     8.796
    42   6 C        2.920    -0.057    29.421     8.895
    43   6 C        2.924     0.060    26.648     8.466
    44   7 N        2.754    -0.055    22.307     7.015
    45   6 C        2.932     0.069    26.458     8.436
    46   6 C        2.921    -0.037    28.927     8.820
    47   6 C        2.920    -0.027    28.682     8.782
    48   6 C        2.919    -0.030    28.749     8.793
    49   6 C        2.920    -0.028    28.691     8.784
    50   6 C        2.921    -0.037    28.918     8.819
    51   1 H        0.925     0.036     2.509     2.477
    52   1 H        0.925     0.032     2.557     2.500
    53   1 H        0.925     0.038     2.477     2.461
    54   1 H        0.925     0.037     2.486     2.465
    55   1 H        0.925     0.035     2.518     2.481
    56   1 H        0.925     0.035     2.522     2.484
    57   1 H        0.925     0.032     2.554     2.499
    58   1 H        0.925     0.036     2.497     2.471
    59   1 H        0.925     0.038     2.480     2.463
    60   1 H        0.926     0.031     2.570     2.507
    61   1 H        0.926     0.025     2.659     2.550
    62   1 H        0.926     0.040     2.454     2.450
    63   1 H        0.926     0.035     2.514     2.480
    64   1 H        0.926     0.032     2.554     2.499
    65   1 H        0.926     0.031     2.578     2.511
    66   1 H        0.926     0.027     2.632     2.537
    67   1 H        0.926     0.031     2.569     2.507
    68   1 H        0.926     0.031     2.569     2.506
    69   1 H        0.926     0.032     2.563     2.503
    70   1 H        0.926     0.033     2.551     2.498
    71   1 H        0.926     0.032     2.562     2.503
    72   1 H        0.926     0.032     2.561     2.503
    73   1 H        0.926     0.030     2.591     2.517
    74   1 H        0.926     0.023     2.693     2.566
    75   1 H        0.926     0.022     2.702     2.571
    76   1 H        0.926     0.032     2.556     2.500
    77   1 H        0.926     0.030     2.590     2.517
    78   1 H        0.926     0.020     2.739     2.588
    79   1 H        0.926     0.023     2.689     2.564
    80   1 H        0.926     0.022     2.707     2.573
    81   1 H        0.926     0.041     2.433     2.439
    82   1 H        0.926     0.043     2.414     2.430
    83   1 H        0.926     0.042     2.418     2.432
    84   1 H        0.926     0.043     2.413     2.429
    85   1 H        0.926     0.042     2.420     2.433

molecular dipole:
                 x           y           z       tot (Debye)
 q only:        1.200       0.758      -0.220
   full:        1.160       0.766      -0.259       3.595

 projected vibrational frequencies (cm⁻¹)
eigval :       -0.00    -0.00    -0.00    -0.00     0.00     0.00
eigval :       14.97    20.06    23.66    27.90    33.67    40.86
eigval :       46.58    52.16    56.63    73.66    77.91    82.89
eigval :       94.54   104.92   123.67   132.36   137.10   145.65
eigval :      153.84   180.39   189.81   197.85   204.60   217.00
eigval :      220.96   227.56   232.92   241.55   245.48   262.68
eigval :      267.07   283.98   284.88   297.07   308.27   333.00
eigval :      338.45   340.38   362.93   371.21   377.10   388.72
eigval :      392.18   405.18   412.85   418.36   419.03   436.31
eigval :      439.50   445.94   447.52   463.33   479.54   483.59
eigval :      489.10   501.50   503.09   506.11   512.38   521.00
eigval :      538.96   551.52   564.68   576.78   586.18   589.09
eigval :      592.57   596.47   604.74   615.43   618.19   634.41
eigval :      639.82   644.09   658.62   676.47   680.51   686.35
eigval :      695.48   703.51   709.76   716.36   729.10   746.78
eigval :      755.43   767.86   770.27   771.90   781.87   784.07
eigval :      784.67   799.39   831.00   866.24   871.44   872.60
eigval :      878.03   878.80   879.58   886.97   890.16   895.47
eigval :      900.89   902.36   905.80   906.56   909.61   911.23
eigval :      916.00   917.43   921.66   924.88   926.17   927.17
eigval :      930.40   930.53   932.56   932.82   937.85   959.36
eigval :      961.39   964.02   979.07   988.43  1004.64  1018.38
eigval :     1034.64  1036.09  1072.17  1075.06  1077.61  1082.38
eigval :     1099.86  1101.43  1106.18  1113.14  1123.55  1131.64
eigval :     1142.89  1147.38  1153.34  1173.71  1176.68  1178.21
eigval :     1180.66  1182.15  1183.08  1186.68  1188.03  1199.36
eigval :     1203.50  1213.01  1218.60  1225.08  1232.45  1235.30
eigval :     1241.14  1248.93  1252.07  1260.86  1264.16  1266.68
eigval :     1272.78  1277.95  1284.10  1289.05  1299.90  1301.17
eigval :     1306.85  1310.35  1324.02  1324.34  1330.02  1334.69
eigval :     1345.41  1364.50  1369.70  1399.46  1402.09  1403.07
eigval :     1418.00  1424.91  1427.12  1427.36  1430.09  1430.65
eigval :     1437.21  1448.65  1450.87  1460.55  1462.71  1470.38
eigval :     1473.11  1478.11  1489.88  1492.88  1500.71  1502.83
eigval :     1512.36  1519.48  1535.85  1547.87  1554.72  1574.38
eigval :     1580.81  1581.84  1583.25  1585.11  1591.85  1592.88
eigval :     1593.72  1595.08  1600.70  1603.09  3018.38  3018.80
eigval :     3021.92  3023.44  3026.27  3028.89  3034.76  3042.75
eigval :     3046.57  3062.06  3066.74  3068.02  3068.40  3071.44
eigval :     3072.07  3075.18  3076.40  3077.74  3079.11  3079.86
eigval :     3081.99  3083.12  3083.97  3085.63  3086.38  3088.35
eigval :     3089.79  3089.96  3090.40  3091.68  3094.21  3095.60
eigval :     3097.41  3097.62  3140.88

   temp. (K)  partition function   enthalpy   heat capacity  entropy
                                   cal/mol     cal/K/mol   cal/K/mol   J/K/mol
 298.15  VIB  0.361E+17            23160.593    151.084    140.643
         ROT  0.673E+08              888.752      2.981     38.800
         INT  0.243E+25            24049.345    154.065    179.443
         TR   0.156E+29             1481.254      4.968     45.224
         TOT                       25530.5994   159.0328   224.6668   940.0061

       T/K    H(0)-H(T)+PV         H(T)/Eh          T*S/Eh         G(T)/Eh
   ------------------------------------------------------------------------
    298.15    0.406856E-01    0.709797E+00    0.106746E+00    0.603051E+00
   ------------------------------------------------------------------------

         :::::::::::::::::::::::::::::::::::::::::::::::::::::
         ::                  THERMODYNAMIC                  ::
         :::::::::::::::::::::::::::::::::::::::::::::::::::::
         :: total free energy        -125.118716703438 Eh   ::
         ::.................................................::
         :: total energy             -125.721767659855 Eh   ::
         :: zero point energy           0.669111824809 Eh   ::
         :: G(RRHO) w/o ZPVE           -0.066060868393 Eh   ::
         :: G(RRHO) contrib.            0.603050956417 Eh   ::
         :::::::::::::::::::::::::::::::::::::::::::::::::::::

           -------------------------------------------------
          | TOTAL ENERGY             -125.721767659855 Eh   |
          | TOTAL ENTHALPY           -125.011970235170 Eh   |
          | TOTAL FREE ENERGY        -125.118716703438 Eh   |
          | GRADIENT NORM               0.000034225757 Eh/α |
          | HOMO-LUMO GAP               2.222410980498 eV   |
           -------------------------------------------------

 * finished run on 2025/09/08 at 23:31:43.679
