   * xtb version 6.7.1 (edcfbbe) compiled by 'albert@albert-system' on 2024-07-22

   ID    Z sym.   atoms
    1    7 N      1, 13, 18, 26, 46, 63
    2    6 C      2-12, 14-17, 19-25, 27-45, 47-62, 64
    3    1 H      65-100

          program call               : xtb data2507/toluene/TPA-PZCN/TPA-PZCN_toluene_S0_crest.xyz --gfn 2 --gbsa toluene --ohess vtight --parallel 40 --molden --ceasefiles --namespace data2507/toluene/TPA-PZCN/TPA-PZCN_toluene_S0_finalOpt
      * Solvation model:               GBSA
        Solvent                        toluene
        Solvent mass                       9.2140E+01 g/mol
          :  Hamiltonian                  GFN2-xTB          :
 * total energy  :  -160.1397963 Eh     change       -0.4615231E-08 Eh
 * total energy  :  -160.1398488 Eh     change       -0.5247305E-04 Eh
 * total energy  :  -160.1398876 Eh     change       -0.3882104E-04 Eh
 * total energy  :  -160.1399059 Eh     change       -0.1829371E-04 Eh
 * total energy  :  -160.1399508 Eh     change       -0.4492301E-04 Eh
 * total energy  :  -160.1399943 Eh     change       -0.4346882E-04 Eh
 * total energy  :  -160.1400222 Eh     change       -0.2789300E-04 Eh
 * total energy  :  -160.1400744 Eh     change       -0.5216049E-04 Eh
 * total energy  :  -160.1401080 Eh     change       -0.3358292E-04 Eh
 * total energy  :  -160.1401516 Eh     change       -0.4366542E-04 Eh
 * total energy  :  -160.1417806 Eh     change       -0.1643483E-06 Eh
 * total energy  :  -160.1417808 Eh     change       -0.2194394E-06 Eh
 * total energy  :  -160.1417810 Eh     change       -0.1882590E-06 Eh
 * total energy  :  -160.1417811 Eh     change       -0.1139092E-06 Eh
 * total energy  :  -160.1417812 Eh     change       -0.1045618E-06 Eh
 * total energy  :  -160.1417814 Eh     change       -0.1311203E-06 Eh
 * total energy  :  -160.1417815 Eh     change       -0.1386399E-06 Eh
 * total energy  :  -160.1417815 Eh     change        0.3205400E-08 Eh
 * total energy  :  -160.1417815 Eh     change       -0.3303458E-07 Eh
   *** GEOMETRY OPTIMIZATION CONVERGED AFTER 95 ITERATIONS ***

 final structure:
================
100
 xtb: 6.7.1 (edcfbbe)
N           11.08275657698156        4.21969694001587       -0.68380876881647
C           10.10238831792311        3.62876577534182       -0.60191226569596
C            8.89469489308636        2.90155659237729       -0.50092363034363
C            7.66705192963054        3.57127431030992       -0.59660901609365
C            6.50668614425511        2.84629245014933       -0.49283526496413
C            6.53616555683564        1.46059791762961       -0.29395590949607
C            7.76644280127088        0.77625620829944       -0.19918819806603
C            8.93944677510178        1.52717529735671       -0.30534922754002
C            7.78081392116337       -0.66716234816059        0.00520649414541
C            8.96847138008430       -1.39666540642757        0.09724844307690
C            8.95103974479390       -2.77152469171365        0.29372002135175
C           10.17285105181179       -3.47651484307603        0.38203094062662
N           11.16438208464004       -4.04986515759269        0.45372752589792
C            7.73701641343548       -3.46352616955048        0.40354987145352
C            6.56256062763384       -2.75966093537048        0.31394971184921
C            6.56450714319279       -1.37365703615582        0.11553441392338
C            5.30284791151627       -0.67216486145954        0.02462306020103
N            4.17941062903987       -1.36180206030361        0.13785417168040
C            3.02190754844862       -0.69431623430267        0.04969910690508
C            1.79840640884454       -1.38372739833503        0.14741475099686
C            0.60084640688299       -0.71818586648687        0.05691610715425
C           -0.65664666129698       -1.47611094194281        0.08856213075076
C           -1.64835422222777       -1.25590405777489       -0.86796629059246
C           -2.82407444138380       -1.97206992450618       -0.84621894661186
C           -3.05917286545235       -2.92560160026287        0.14808746606576
N           -4.26358138844307       -3.62437678148615        0.18905854523881
C           -5.45518595961994       -2.99317445861438       -0.19685109208111
C           -5.68366773558572       -1.65578208206623        0.12701838177315
C           -6.85662572232068       -1.03633759290384       -0.25905814696670
C           -7.82227242564126       -1.73877645528232       -0.96213451558774
C           -7.60385573485271       -3.06989534153162       -1.27903337222653
C           -6.42957090197979       -3.69545704492166       -0.90521429597357
C           -4.29272309970215       -4.96048860463273        0.61430890058332
C           -5.34528594741124       -5.42846624589654        1.40017152862347
C           -5.37393590240011       -6.74776325834383        1.81017769601061
C           -4.35547150648180       -7.61654189693418        1.45236825520209
C           -3.30618249930696       -7.15558850642826        0.67355596558759
C           -3.27300332075645       -5.84015358893259        0.25178782574444
C           -2.06109777647131       -3.16011611899594        1.09705627356687
C           -0.87729007884188       -2.45493909206854        1.05661948394557
C            0.58841799890459        0.70339574701192       -0.10929738301821
C           -0.68128693537276        1.44570164601695       -0.10188765581578
C           -1.60543919051991        1.26287958949732        0.92607938796272
C           -2.79026267513591        1.96586131897105        0.94496128452023
C           -3.09784699843557        2.86498160658947       -0.07860687256896
N           -4.31027689383013        3.55521558463270       -0.08210508117943
C           -4.87483073603847        4.00313140023399        1.11893465673052
C           -4.06318862507416        4.48558764812144        2.14593047383691
C           -4.62493359319973        4.92503319823349        3.32933792580000
C           -5.99899639910330        4.89997396921896        3.50661391832389
C           -6.81021898573699        4.42800784514703        2.48723200729455
C           -6.25725351057577        3.97901827074781        1.30319031085289
C           -4.97123833874214        3.79299016753690       -1.29625645546830
C           -4.99470491041531        2.81287181420798       -2.28818293274541
C           -5.64749610628856        3.04851608993201       -3.48298929521268
C           -6.29039221613463        4.25583611568733       -3.70498434591702
C           -6.27301046371355        5.23109535952743       -2.72067991423310
C           -5.61675763495323        5.00748639531657       -1.52523285895603
C           -2.16812142294736        3.05926467571057       -1.10230439038530
C           -0.97472566828850        2.36854408025561       -1.10388259218510
C            1.77051531791691        1.38850381847678       -0.23401756346421
C            3.00810258486557        0.71991127526930       -0.16422195259232
N            4.15143978002499        1.40685317041147       -0.27609079107104
C            5.28889424149945        0.73682534838788       -0.18376463533493
H            7.64820490711244        4.63965460907036       -0.74927122750041
H            5.54174471274880        3.32363043028718       -0.55912381421678
H            9.90817332421378        1.05858822837206       -0.23754827040605
H            9.92762641212660       -0.91054839017898        0.01778401336840
H            7.73929138671154       -4.53208269705615        0.55618066065731
H            5.60727435977911       -3.25418807603197        0.39231969642443
H            1.82934190089689       -2.45629494058836        0.26570983252049
H           -1.48078320601773       -0.53570554678369       -1.65444567966459
H           -3.57335679406794       -1.80192113288409       -1.60502362482146
H           -4.93738133006954       -1.11013163281110        0.68518890395734
H           -7.02158182804547       -0.00088941082310        0.00056935240568
H           -8.73906863792832       -1.25251744915267       -1.25984788445336
H           -8.34984059162897       -3.62461932300616       -1.82934870678851
H           -6.25846535168786       -4.73093862091704       -1.16133748236503
H           -6.13692299881843       -4.75135352390249        1.68650501208993
H           -6.19390524838752       -7.09757554845371        2.42036817132317
H           -4.38009864974758       -8.64601046344535        1.77675123247072
H           -2.51109444857360       -7.82729206720005        0.38413914457998
H           -2.45953150569179       -5.48581069670040       -0.36458641484661
H           -2.22626810859982       -3.89358608674823        1.87247434055555
H           -0.12433456692469       -2.63576794960159        1.81009768459363
H           -1.38516157627240        0.56852974025450        1.72333507644312
H           -3.49447778152694        1.81573965983950        1.74988268151354
H           -2.99215638748771        4.51680579117725        2.00734735031844
H           -3.98478316225104        5.29881903925353        4.11535509689641
H           -6.43425697695891        5.24765914158633        4.43144814633990
H           -7.88245777650452        4.40175386785427        2.61735543914886
H           -6.89282689855213        3.60751907974485        0.51261903728385
H           -4.50215898388984        1.86744160178001       -2.11262326671339
H           -5.66198804741382        2.27988017900002       -4.24204291547435
H           -6.80184340405996        4.43553794382699       -4.63871245940739
H           -6.76724719235001        6.17717308417150       -2.88739065978735
H           -5.59815953173903        5.77164098981389       -0.76169570887841
H           -2.38865295087397        3.76006125526591       -1.89411260245692
H           -0.26606016629905        2.52792797365151       -1.90385382741811
H            1.77913361516479        2.46109432548877       -0.35668161757058

          :  Hamiltonian                  GFN2-xTB          :
         :: gradient norm              0.000039995344 Eh/a0 ::
         :: HOMO-LUMO gap              0.943048661806 eV    ::
         :: SCC energy              -163.199094824921 Eh    ::
         :: -> dispersion             -0.146623183495 Eh    ::
         :: -> Gsolv                  -0.072842013334 Eh    ::
         :: repulsion energy           3.057313283852 Eh    ::

    * Orbital Energies and Occupations

         #    Occupation            Energy/Eh            Energy/eV
      -------------------------------------------------------------
         1        2.0000           -0.6880691             -18.7233
       ...           ...                  ...                  ...
       137        2.0000           -0.4125884             -11.2271
       138        2.0000           -0.4117828             -11.2052
       139        2.0000           -0.4103275             -11.1656
       140        2.0000           -0.4099721             -11.1559
       141        2.0000           -0.4079198             -11.1001
       142        2.0000           -0.4075362             -11.0896
       143        2.0000           -0.4072761             -11.0825
       144        2.0000           -0.4067627             -11.0686
       145        2.0000           -0.4006034             -10.9010
       146        2.0000           -0.3980220             -10.8307
       147        2.0000           -0.3640766              -9.9070
       148        2.0000           -0.3541146              -9.6359
       149        2.0000           -0.3525578              -9.5936 (HOMO)
       150                         -0.3179014              -8.6505 (LUMO)
       151                         -0.2997973              -8.1579
       152                         -0.2767470              -7.5307
       153                         -0.2689626              -7.3188
       154                         -0.2572270              -6.9995
       155                         -0.2388173              -6.4985
       156                         -0.2342687              -6.3748
       157                         -0.2332465              -6.3470
       158                         -0.2329307              -6.3384
       159                         -0.2327182              -6.3326
       160                         -0.2300581              -6.2602
       ...                                ...                  ...
       292                          1.1529074              31.3722
      -------------------------------------------------------------
                  HL-Gap            0.0346564 Eh            0.9430 eV

     #   Z          covCN         q      C6AA      α(0)
     1   7 N        0.911    -0.259    26.723     7.477
     2   6 C        1.913     0.119    28.164     8.571
     3   6 C        2.972     0.021    27.542     8.608
     4   6 C        2.922    -0.018    28.455     8.748
     5   6 C        2.923    -0.023    28.585     8.768
     6   6 C        2.987     0.004    27.931     8.669
     7   6 C        2.975     0.010    27.793     8.648
     8   6 C        2.930    -0.023    28.579     8.767
     9   6 C        2.975     0.010    27.792     8.647
    10   6 C        2.930    -0.023    28.579     8.767
    11   6 C        2.972     0.021    27.541     8.608
    12   6 C        1.913     0.119    28.163     8.571
    13   7 N        0.911    -0.259    26.720     7.476
    14   6 C        2.922    -0.018    28.455     8.748
    15   6 C        2.923    -0.023    28.584     8.768
    16   6 C        2.987     0.004    27.931     8.669
    17   6 C        2.961     0.081    26.188     8.394
    18   7 N        1.848    -0.256    27.508     7.773
    19   6 C        2.963     0.082    26.162     8.390
    20   6 C        2.922    -0.053    29.307     8.878
    21   6 C        2.975     0.015    27.666     8.628
    22   6 C        2.977     0.003    27.952     8.672
    23   6 C        2.923    -0.030    28.748     8.793
    24   6 C        2.921    -0.048    29.199     8.861
    25   6 C        2.923     0.067    26.497     8.441
    26   7 N        2.752    -0.073    22.658     7.070
    27   6 C        2.924     0.064    26.557     8.451
    28   6 C        2.922    -0.047    29.162     8.856
    29   6 C        2.919    -0.029    28.721     8.788
    30   6 C        2.919    -0.038    28.939     8.822
    31   6 C        2.919    -0.029    28.737     8.791
    32   6 C        2.922    -0.047    29.164     8.856
    33   6 C        2.924     0.065    26.555     8.451
    34   6 C        2.922    -0.047    29.159     8.855
    35   6 C        2.919    -0.029    28.736     8.791
    36   6 C        2.919    -0.038    28.941     8.822
    37   6 C        2.919    -0.030    28.740     8.791
    38   6 C        2.922    -0.047    29.172     8.857
    39   6 C        2.920    -0.049    29.205     8.862
    40   6 C        2.923    -0.033    28.820     8.804
    41   6 C        2.975     0.015    27.661     8.627
    42   6 C        2.978     0.004    27.925     8.668
    43   6 C        2.923    -0.030    28.745     8.792
    44   6 C        2.921    -0.047    29.179     8.858
    45   6 C        2.924     0.067    26.497     8.441
    46   7 N        2.752    -0.075    22.689     7.074
    47   6 C        2.923     0.065    26.551     8.450
    48   6 C        2.922    -0.048    29.194     8.861
    49   6 C        2.919    -0.030    28.744     8.792
    50   6 C        2.919    -0.039    28.961     8.825
    51   6 C        2.919    -0.030    28.743     8.792
    52   6 C        2.922    -0.048    29.181     8.859
    53   6 C        2.924     0.065    26.550     8.450
    54   6 C        2.922    -0.047    29.161     8.856
    55   6 C        2.919    -0.029    28.735     8.791
    56   6 C        2.919    -0.038    28.942     8.822
    57   6 C        2.919    -0.030    28.739     8.791
    58   6 C        2.922    -0.047    29.160     8.855
    59   6 C        2.921    -0.048    29.182     8.859
    60   6 C        2.923    -0.033    28.819     8.803
    61   6 C        2.922    -0.052    29.293     8.876
    62   6 C        2.964     0.083    26.158     8.389
    63   7 N        1.848    -0.256    27.503     7.772
    64   6 C        2.961     0.081    26.194     8.395
    65   1 H        0.926     0.054     2.266     2.354
    66   1 H        0.926     0.071     2.075     2.253
    67   1 H        0.926     0.052     2.293     2.368
    68   1 H        0.926     0.052     2.292     2.368
    69   1 H        0.926     0.054     2.265     2.353
    70   1 H        0.926     0.071     2.074     2.252
    71   1 H        0.926     0.055     2.259     2.350
    72   1 H        0.926     0.035     2.514     2.479
    73   1 H        0.926     0.036     2.499     2.472
    74   1 H        0.926     0.033     2.549     2.497
    75   1 H        0.926     0.034     2.527     2.486
    76   1 H        0.926     0.033     2.539     2.492
    77   1 H        0.926     0.035     2.520     2.483
    78   1 H        0.926     0.033     2.545     2.495
    79   1 H        0.926     0.033     2.540     2.492
    80   1 H        0.926     0.035     2.519     2.482
    81   1 H        0.926     0.033     2.540     2.492
    82   1 H        0.926     0.035     2.519     2.482
    83   1 H        0.926     0.033     2.540     2.492
    84   1 H        0.926     0.038     2.478     2.462
    85   1 H        0.926     0.038     2.474     2.460
    86   1 H        0.926     0.035     2.521     2.483
    87   1 H        0.926     0.036     2.496     2.471
    88   1 H        0.926     0.032     2.559     2.502
    89   1 H        0.926     0.033     2.538     2.491
    90   1 H        0.926     0.032     2.556     2.500
    91   1 H        0.926     0.034     2.530     2.487
    92   1 H        0.926     0.032     2.554     2.499
    93   1 H        0.926     0.033     2.546     2.495
    94   1 H        0.926     0.035     2.523     2.484
    95   1 H        0.926     0.033     2.544     2.494
    96   1 H        0.926     0.034     2.525     2.485
    97   1 H        0.926     0.033     2.545     2.495
    98   1 H        0.926     0.038     2.482     2.464
    99   1 H        0.926     0.038     2.481     2.463
   100   1 H        0.926     0.055     2.263     2.352

molecular dipole:
                 x           y           z       tot (Debye)
 q only:       -4.502      -0.124       0.008
   full:       -5.120      -0.123       0.017      13.018

 projected vibrational frequencies (cm⁻¹)
eigval :       -0.00    -0.00    -0.00     0.00     0.00     0.00
eigval :       10.49    12.93    14.00    15.55    17.30    21.15
eigval :       35.12    38.64    43.83    49.56    50.89    52.63
eigval :       55.73    60.57    63.14    67.74    74.46    75.12
eigval :       82.03    85.29    89.40    97.10   105.87   110.08
eigval :      112.97   137.13   137.73   141.95   149.23   169.58
eigval :      175.47   185.94   213.97   215.83   228.11   231.02
eigval :      234.88   243.77   257.69   271.56   287.37   294.46
eigval :      306.72   309.40   318.02   326.47   344.53   350.98
eigval :      359.75   363.48   372.48   377.24   377.60   378.46
eigval :      379.26   380.85   386.90   389.85   395.02   397.54
eigval :      404.84   417.79   430.11   438.21   450.14   469.49
eigval :      477.52   478.48   488.54   491.39   495.23   505.42
eigval :      506.92   511.89   536.75   537.17   549.11   554.15
eigval :      577.85   580.44   581.90   584.16   584.94   588.19
eigval :      591.33   593.63   594.77   605.39   611.38   621.91
eigval :      628.28   637.83   641.78   646.22   659.19   660.52
eigval :      661.32   664.89   671.96   678.05   683.31   694.60
eigval :      698.69   708.43   714.17   735.12   737.47   744.39
eigval :      755.14   758.41   761.95   764.16   770.15   802.80
eigval :      816.55   817.02   829.77   831.24   848.96   856.73
eigval :      858.15   868.73   869.93   870.20   873.16   873.61
eigval :      876.53   877.96   880.72   889.56   893.38   895.35
eigval :      896.73   902.09   909.25   909.54   917.79   918.52
eigval :      920.33   924.28   925.04   926.08   926.79   927.49
eigval :      928.20   929.35   930.26   930.41   930.90   931.77
eigval :      933.18   951.65   953.50   966.59   981.93   989.54
eigval :     1004.04  1004.05  1010.87  1029.53  1046.95  1062.91
eigval :     1071.43  1081.22  1082.04  1082.61  1083.02  1119.82
eigval :     1120.93  1122.20  1122.95  1140.15  1142.23  1145.61
eigval :     1147.15  1178.24  1178.39  1179.04  1180.47  1183.43
eigval :     1183.78  1185.07  1190.88  1193.02  1193.22  1195.03
eigval :     1195.93  1202.55  1211.44  1212.87  1228.31  1234.16
eigval :     1239.56  1255.10  1266.16  1267.78  1271.41  1276.11
eigval :     1277.08  1278.75  1280.21  1281.19  1293.41  1295.68
eigval :     1307.16  1308.07  1314.24  1314.41  1314.82  1320.34
eigval :     1322.56  1323.64  1324.32  1325.25  1326.18  1334.28
eigval :     1360.42  1374.24  1390.16  1408.11  1409.67  1419.15
eigval :     1426.25  1430.92  1433.90  1434.85  1440.63  1440.64
eigval :     1444.97  1463.00  1468.36  1469.30  1471.18  1472.10
eigval :     1472.30  1482.42  1491.71  1492.25  1515.53  1538.84
eigval :     1543.94  1550.10  1552.66  1571.21  1575.48  1576.01
eigval :     1576.50  1579.69  1580.36  1583.14  1589.24  1590.98
eigval :     1591.04  1594.52  1598.74  1601.06  2362.88  2364.56
eigval :     3071.82  3072.49  3072.70  3072.88  3073.36  3073.84
eigval :     3073.89  3074.86  3075.63  3076.15  3080.64  3082.54
eigval :     3082.60  3083.05  3083.24  3084.42  3084.82  3085.22
eigval :     3085.74  3087.03  3088.09  3089.11  3092.27  3092.89
eigval :     3093.76  3094.05  3094.43  3094.81  3095.00  3095.20
eigval :     3095.37  3096.43  3103.39  3112.49  3113.33  3113.60

   temp. (K)  partition function   enthalpy   heat capacity  entropy
                                   cal/mol     cal/K/mol   cal/K/mol   J/K/mol
 298.15  VIB  0.325E+25            30521.515    188.805    192.750
         ROT  0.261E+09              888.752      2.981     41.494
         INT  0.849E+33            31410.268    191.786    234.245
         TR   0.226E+29             1481.254      4.968     45.958
         TOT                       32891.5215   196.7543   280.2027  1172.3680

       T/K    H(0)-H(T)+PV         H(T)/Eh          T*S/Eh         G(T)/Eh
   ------------------------------------------------------------------------
    298.15    0.524160E-01    0.804430E+00    0.133133E+00    0.671296E+00
   ------------------------------------------------------------------------

         :::::::::::::::::::::::::::::::::::::::::::::::::::::
         ::                  THERMODYNAMIC                  ::
         :::::::::::::::::::::::::::::::::::::::::::::::::::::
         :: total free energy        -159.470485339350 Eh   ::
         ::.................................................::
         :: total energy             -160.141781541599 Eh   ::
         :: zero point energy           0.752013559305 Eh   ::
         :: G(RRHO) w/o ZPVE           -0.080717357056 Eh   ::
         :: G(RRHO) contrib.            0.671296202249 Eh   ::
         :::::::::::::::::::::::::::::::::::::::::::::::::::::

           -------------------------------------------------
          | TOTAL ENERGY             -160.141781541599 Eh   |
          | TOTAL ENTHALPY           -159.337352006320 Eh   |
          | TOTAL FREE ENERGY        -159.470485339350 Eh   |
          | GRADIENT NORM               0.000040032422 Eh/α |
          | HOMO-LUMO GAP               0.943048543096 eV   |
           -------------------------------------------------

 * finished run on 2025/07/17 at 21:10:25.124
