   * xtb version 6.7.1 (edcfbbe) compiled by 'albert@albert-system' on 2024-07-22

   ID    Z sym.   atoms
    1    7 N      1, 13, 18, 26, 46, 63
    2    6 C      2-12, 14-17, 19-25, 27-45, 47-62, 64
    3    1 H      65-100

          program call               : xtb data2507/toluene/TPA-PZCN/TPA-PZCN_toluene_S0_finalOpt.xtbopt.xyz --gfn 2 --uhf 2 --gbsa toluene --ohess vtight --parallel 40 --molden --ceasefiles --namespace data2507/toluene/TPA-PZCN/TPA-PZCN_toluene_T1_preOpt
      * Solvation model:               GBSA
        Solvent                        toluene
        Solvent mass                       9.2140E+01 g/mol
          :  Hamiltonian                  GFN2-xTB          :
 * total energy  :  -160.0953095 Eh     change       -0.1518373E-08 Eh
 * total energy  :  -160.0972976 Eh     change       -0.1988184E-02 Eh
 * total energy  :  -160.0978866 Eh     change       -0.5889201E-03 Eh
 * total energy  :  -160.0979395 Eh     change       -0.5294043E-04 Eh
 * total energy  :  -160.0979075 Eh     change        0.3202198E-04 Eh
 * total energy  :  -160.0979853 Eh     change       -0.7782078E-04 Eh
 * total energy  :  -160.0979638 Eh     change        0.2151752E-04 Eh
 * total energy  :  -160.0979864 Eh     change       -0.2263089E-04 Eh
 * total energy  :  -160.0979905 Eh     change       -0.4073736E-05 Eh
 * total energy  :  -160.0979925 Eh     change       -0.1999531E-05 Eh
 * total energy  :  -160.0980125 Eh     change       -0.1203561E-05 Eh
 * total energy  :  -160.0980138 Eh     change       -0.1264244E-05 Eh
 * total energy  :  -160.0980146 Eh     change       -0.8895549E-06 Eh
 * total energy  :  -160.0980154 Eh     change       -0.7141353E-06 Eh
 * total energy  :  -160.0980160 Eh     change       -0.6895652E-06 Eh
 * total energy  :  -160.0980165 Eh     change       -0.4775100E-06 Eh
 * total energy  :  -160.0980171 Eh     change       -0.5699117E-06 Eh
 * total energy  :  -160.0980176 Eh     change       -0.4888140E-06 Eh
 * total energy  :  -160.0980176 Eh     change       -0.4388113E-08 Eh
   *** GEOMETRY OPTIMIZATION CONVERGED AFTER 44 ITERATIONS ***

 final structure:
================
100
 xtb: 6.7.1 (edcfbbe)
N           11.07100157964466        4.25643762560601       -0.66102686798001
C           10.09619838996442        3.65255001231604       -0.57916876018492
C            8.89956662128484        2.91655747718845       -0.47905895766240
C            7.65891967395178        3.57841177173106       -0.57347504603930
C            6.50830436713985        2.84844093589953       -0.47132208490254
C            6.54081125000692        1.45539274021326       -0.27394346764123
C            7.78574592741128        0.78046295255876       -0.18040672247263
C            8.95105511549229        1.54364266205104       -0.28599802217632
C            7.80401232006471       -0.65119195945463        0.02016618095203
C            8.98846931929429       -1.38556250270896        0.11747487901910
C            8.97208506609508       -2.75926075978710        0.31088277112988
C           10.18706708491249       -3.46567867878228        0.40340830465442
N           11.17657935210118       -4.04592213382004        0.47944767265010
C            7.74880262451729       -3.45140127825387        0.41383225637272
C            6.57994494160409       -2.74971781568025        0.32038824926290
C            6.57682687541225       -1.35639272042936        0.12314765015855
C            5.32494919343457       -0.67180674017643        0.03076864073979
N            4.18383636416208       -1.33889120570786        0.12811766612575
C            3.00738860169158       -0.70567809979354        0.04458899409425
C            1.79530056356637       -1.38458455446731        0.13406121653565
C            0.57770147208459       -0.72067277562032        0.04846844938190
C           -0.66906156690085       -1.49572164860965        0.07237027867499
C           -1.66887132855768       -1.26703795796879       -0.87519639864240
C           -2.84502910700361       -1.98194906933353       -0.85167642290040
C           -3.06613783448539       -2.95077517116101        0.13103549252717
N           -4.27479508212621       -3.64650172894852        0.17774909113763
C           -5.46831997595868       -2.98829268733067       -0.14023446290825
C           -5.65511425023634       -1.65329515992570        0.22377625637538
C           -6.83124931078898       -1.00359977679930       -0.09532211472035
C           -7.83988179354243       -1.67105361209743       -0.77282382208420
C           -7.66175701752134       -2.99811293236692       -1.13168439839390
C           -6.48634456486503       -3.65561569191563       -0.82320432845184
C           -4.29483906469624       -4.99522273659378        0.55087459852073
C           -5.33349400557704       -5.49618305731513        1.33718805903951
C           -5.34751849987417       -6.82863719518619        1.70118246336126
C           -4.33072522001131       -7.67851996103215        1.29430463671394
C           -3.29615985764209       -7.18519155125860        0.51464736686446
C           -3.27485439436183       -5.85548237107893        0.14106612738676
C           -2.05746470712652       -3.20439258609027        1.06369577926199
C           -0.87697206979236       -2.49333208169528        1.02512569317986
C            0.56119750333375        0.67932554498042       -0.11029067657573
C           -0.70192944812770        1.43215850711269       -0.10295059943669
C           -1.63489897936315        1.24584091739441        0.91798469655019
C           -2.81802875487209        1.95163391949414        0.93388448811889
C           -3.11147477601824        2.86117804193462       -0.08465073982460
N           -4.32236770753984        3.55826679058637       -0.09127080845752
C           -4.87176968248519        4.02904042600442        1.10462536990012
C           -4.04390238198500        4.49225691041439        2.12927229942616
C           -4.59189190966494        4.95461569683031        3.30989087348593
C           -5.96654135738392        4.96896465529965        3.48840000835747
C           -6.79317722725595        4.51364615127474        2.47300463841625
C           -6.25557242379540        4.04443041773204        1.29030141401228
C           -4.98087241996333        3.78287575189453       -1.30642720075324
C           -4.99401285365681        2.79236805020808       -2.28982903623726
C           -5.64372190356244        3.01363229746149       -3.48857284641832
C           -6.29051371061190        4.21685513820773       -3.72431305017230
C           -6.28126117099811        5.20283658426401       -2.74984585878213
C           -5.63107346399138        4.99356580277416       -1.54896583628042
C           -2.17370332455651        3.06345070260078       -1.09973362876946
C           -0.98352985756924        2.36741193805931       -1.09815485315490
C            1.75998455775439        1.37081944357584       -0.22260293044520
C            2.98949579909443        0.72013878262518       -0.15486374467232
N            4.14900405125774        1.38032901144273       -0.25587831255656
C            5.30708437032148        0.74081074827470       -0.16945321911000
H            7.63488184404873        4.64710033851195       -0.72473149946451
H            5.54081998821272        3.32209509888949       -0.53756465910431
H            9.92283048117987        1.07976865442809       -0.21922470473253
H            9.94802452656731       -0.89786763875846        0.04404443085658
H            7.75190073427564       -4.52041198400365        0.56477902887985
H            5.62491081435478       -3.24680396986747        0.39411655291707
H            1.82406616494960       -2.45819049665928        0.24369524221634
H           -1.50650904991750       -0.53520557753626       -1.65172574071699
H           -3.60218817931356       -1.80459585604014       -1.60090173715035
H           -4.87603504934406       -1.13794030604871        0.76511105144028
H           -6.96525497078886        0.02741918358906        0.19651626209334
H           -8.75875732806542       -1.16089774679266       -1.01882406100400
H           -8.44064516282006       -3.52395166322845       -1.66393631648543
H           -6.34538776492390       -4.68567566452214       -1.11579468456767
H           -6.11991937627068       -4.83266731989128        1.66550928911531
H           -6.15351216042589       -7.20443818744016        2.31403789865084
H           -4.34455861119112       -8.71861817740807        1.58271775500362
H           -2.50360195610178       -7.84231867346811        0.18818862622165
H           -2.47482888939926       -5.47535690083511       -0.47714916635803
H           -2.21468981729106       -3.95022123555033        1.82887393688795
H           -0.11576049188059       -2.68514835039594        1.76711312480280
H           -1.42125398015948        0.54330578283203        1.70954020848658
H           -3.53115037749176        1.79639673481462        1.72989000690792
H           -2.97311102727240        4.49610151392852        1.98772276035374
H           -3.94094784933663        5.31537715042632        4.09269971778344
H           -6.39025703761084        5.33413454842202        4.41160880004148
H           -7.86506045951805        4.51706633681152        2.60598853086512
H           -6.90212945438251        3.68227600453008        0.50472139607378
H           -4.49991215616558        1.85059481921119       -2.10152280053010
H           -5.65240863440644        2.23829166477447       -4.24038663549624
H           -6.79806236156008        4.38569697223699       -4.66194761552298
H           -6.77651754010177        6.14567748094182       -2.92939087106235
H           -5.61393254934819        5.76719901936972       -0.79536162101707
H           -2.38339837715721        3.77696428069292       -1.88304125158736
H           -0.26574229663652        2.53293410798979       -1.88843875672588
H            1.76060559829506        2.44465544256909       -0.33469896887440

          :  Hamiltonian                  GFN2-xTB          :
         :: gradient norm              0.000072796372 Eh/a0 ::
         :: HOMO-LUMO gap              0.530357879397 eV    ::
         :: SCC energy              -163.154311211558 Eh    ::
         :: -> dispersion             -0.146503085997 Eh    ::
         :: -> Gsolv                  -0.078678693841 Eh    ::
         :: repulsion energy           3.056293617342 Eh    ::

    * Orbital Energies and Occupations

         #    Occupation            Energy/Eh            Energy/eV
      -------------------------------------------------------------
         1        2.0000           -0.6788085             -18.4713
       ...           ...                  ...                  ...
       138        2.0000           -0.4158630             -11.3162
       139        2.0000           -0.4139448             -11.2640
       140        2.0000           -0.4138637             -11.2618
       141        2.0000           -0.4130855             -11.2406
       142        2.0000           -0.4126821             -11.2297
       143        2.0000           -0.4090563             -11.1310
       144        2.0000           -0.4067335             -11.0678
       145        2.0000           -0.3945468             -10.7362
       146        2.0000           -0.3907215             -10.6321
       147        1.9374           -0.3611598              -9.8277
       148        1.6615           -0.3592257              -9.7750
       149        1.4011           -0.3582084              -9.7473
       150        1.0000           -0.3100933              -8.4381 (HOMO)
       151        0.0000           -0.2906030              -7.9077 (LUMO)
       152                         -0.2648927              -7.2081
       153                         -0.2587796              -7.0418
       154                         -0.2551582              -6.9432
       155                         -0.2402554              -6.5377
       156                         -0.2400614              -6.5324
       157                         -0.2397518              -6.5240
       158                         -0.2377772              -6.4702
       159                         -0.2353496              -6.4042
       160                         -0.2320254              -6.3137
       161                         -0.2304354              -6.2705
       ...                                ...                  ...
       292                          1.1591659              31.5425
      -------------------------------------------------------------
                  HL-Gap            0.0194904 Eh            0.5304 eV

     #   Z          covCN         q      C6AA      α(0)
     1   7 N        0.911    -0.282    27.283     7.554
     2   6 C        1.913     0.116    28.244     8.583
     3   6 C        2.971     0.010    27.798     8.648
     4   6 C        2.921    -0.026    28.657     8.779
     5   6 C        2.922    -0.027    28.667     8.780
     6   6 C        2.986    -0.006    28.162     8.705
     7   6 C        2.975     0.001    28.001     8.680
     8   6 C        2.929    -0.024    28.611     8.772
     9   6 C        2.975     0.001    27.999     8.680
    10   6 C        2.929    -0.024    28.611     8.772
    11   6 C        2.971     0.010    27.796     8.648
    12   6 C        1.913     0.116    28.243     8.583
    13   7 N        0.911    -0.282    27.278     7.554
    14   6 C        2.921    -0.026    28.657     8.779
    15   6 C        2.922    -0.027    28.666     8.780
    16   6 C        2.986    -0.006    28.162     8.705
    17   6 C        2.943     0.081    26.186     8.393
    18   7 N        1.849    -0.250    27.372     7.754
    19   6 C        2.942     0.084    26.132     8.384
    20   6 C        2.923    -0.064    29.582     8.919
    21   6 C        2.975     0.002    27.987     8.678
    22   6 C        2.977     0.011    27.763     8.643
    23   6 C        2.923    -0.031    28.764     8.795
    24   6 C        2.920    -0.045    29.119     8.849
    25   6 C        2.925     0.063    26.579     8.455
    26   7 N        2.752    -0.051    22.232     7.003
    27   6 C        2.925     0.064    26.566     8.452
    28   6 C        2.922    -0.044    29.095     8.845
    29   6 C        2.919    -0.027    28.674     8.781
    30   6 C        2.919    -0.033    28.832     8.805
    31   6 C        2.919    -0.027    28.681     8.782
    32   6 C        2.921    -0.044    29.087     8.844
    33   6 C        2.924     0.064    26.563     8.452
    34   6 C        2.921    -0.044    29.088     8.844
    35   6 C        2.919    -0.027    28.683     8.783
    36   6 C        2.919    -0.033    28.830     8.805
    37   6 C        2.919    -0.027    28.683     8.782
    38   6 C        2.922    -0.044    29.089     8.845
    39   6 C        2.919    -0.045    29.105     8.847
    40   6 C        2.923    -0.032    28.810     8.802
    41   6 C        2.976     0.002    27.981     8.677
    42   6 C        2.977     0.012    27.742     8.640
    43   6 C        2.923    -0.030    28.756     8.794
    44   6 C        2.920    -0.045    29.106     8.847
    45   6 C        2.925     0.063    26.578     8.454
    46   7 N        2.752    -0.053    22.256     7.007
    47   6 C        2.923     0.064    26.558     8.451
    48   6 C        2.922    -0.045    29.109     8.848
    49   6 C        2.919    -0.027    28.684     8.783
    50   6 C        2.919    -0.034    28.846     8.807
    51   6 C        2.919    -0.028    28.689     8.783
    52   6 C        2.922    -0.045    29.111     8.848
    53   6 C        2.925     0.064    26.562     8.452
    54   6 C        2.922    -0.044    29.085     8.844
    55   6 C        2.919    -0.027    28.680     8.782
    56   6 C        2.919    -0.033    28.830     8.805
    57   6 C        2.919    -0.027    28.683     8.783
    58   6 C        2.921    -0.044    29.083     8.844
    59   6 C        2.920    -0.044    29.088     8.844
    60   6 C        2.923    -0.032    28.805     8.801
    61   6 C        2.923    -0.063    29.576     8.918
    62   6 C        2.943     0.084    26.125     8.383
    63   7 N        1.849    -0.250    27.370     7.754
    64   6 C        2.943     0.081    26.191     8.394
    65   1 H        0.926     0.043     2.412     2.429
    66   1 H        0.926     0.056     2.244     2.343
    67   1 H        0.926     0.041     2.437     2.441
    68   1 H        0.926     0.041     2.436     2.441
    69   1 H        0.926     0.043     2.411     2.428
    70   1 H        0.926     0.056     2.243     2.342
    71   1 H        0.926     0.046     2.368     2.406
    72   1 H        0.926     0.039     2.464     2.455
    73   1 H        0.926     0.041     2.431     2.438
    74   1 H        0.926     0.039     2.468     2.456
    75   1 H        0.926     0.040     2.445     2.445
    76   1 H        0.926     0.039     2.461     2.453
    77   1 H        0.926     0.040     2.449     2.447
    78   1 H        0.926     0.039     2.467     2.456
    79   1 H        0.926     0.040     2.451     2.448
    80   1 H        0.926     0.040     2.444     2.445
    81   1 H        0.926     0.038     2.471     2.458
    82   1 H        0.926     0.039     2.458     2.452
    83   1 H        0.926     0.038     2.471     2.458
    84   1 H        0.926     0.042     2.427     2.436
    85   1 H        0.926     0.040     2.442     2.444
    86   1 H        0.926     0.038     2.479     2.462
    87   1 H        0.926     0.042     2.429     2.437
    88   1 H        0.926     0.037     2.488     2.466
    89   1 H        0.926     0.038     2.472     2.459
    90   1 H        0.926     0.038     2.482     2.464
    91   1 H        0.926     0.040     2.449     2.447
    92   1 H        0.926     0.039     2.458     2.451
    93   1 H        0.926     0.039     2.461     2.453
    94   1 H        0.926     0.040     2.448     2.446
    95   1 H        0.926     0.038     2.471     2.458
    96   1 H        0.926     0.040     2.454     2.449
    97   1 H        0.926     0.039     2.464     2.455
    98   1 H        0.926     0.041     2.431     2.438
    99   1 H        0.926     0.040     2.449     2.447
   100   1 H        0.926     0.046     2.376     2.411

molecular dipole:
                 x           y           z       tot (Debye)
 q only:      -10.346      -0.157       0.062
   full:      -10.861      -0.162       0.070      27.609

 projected vibrational frequencies (cm⁻¹)
eigval :       -0.00    -0.00    -0.00     0.00     0.00     0.00
eigval :       11.85    13.61    14.17    15.83    16.79    20.55
eigval :       33.33    38.64    43.59    48.09    51.76    53.12
eigval :       56.67    60.40    64.39    68.73    73.90    74.93
eigval :       81.20    86.49    90.70    95.93   105.60   107.20
eigval :      112.97   136.36   137.44   141.45   152.44   169.68
eigval :      178.02   185.56   212.62   215.33   223.57   228.68
eigval :      232.75   242.83   261.17   264.22   282.42   293.99
eigval :      302.06   306.07   316.63   324.84   342.59   349.63
eigval :      350.78   360.45   373.22   375.23   377.56   378.02
eigval :      378.79   380.28   386.26   388.62   397.93   399.77
eigval :      404.91   409.75   418.73   439.66   449.09   463.30
eigval :      473.79   475.17   486.81   490.08   500.02   503.49
eigval :      510.22   511.41   531.54   534.75   547.82   554.14
eigval :      564.92   579.13   580.26   582.91   583.59   587.63
eigval :      589.23   592.81   593.67   603.23   610.78   615.97
eigval :      622.14   623.18   633.82   634.92   653.07   658.03
eigval :      660.06   660.97   663.29   674.31   678.69   679.45
eigval :      685.85   697.09   701.45   706.39   726.53   729.42
eigval :      740.96   754.30   759.18   761.55   762.83   790.93
eigval :      813.58   814.18   820.91   821.31   825.05   833.41
eigval :      847.59   852.26   866.47   866.53   866.78   869.49
eigval :      871.72   873.74   874.80   891.58   895.16   896.83
eigval :      898.17   901.76   908.73   909.05   914.81   915.19
eigval :      917.13   917.57   919.85   925.38   926.20   928.16
eigval :      928.43   928.62   929.74   929.99   931.69   932.85
eigval :      934.00   944.33   951.84   952.74   981.46   987.66
eigval :     1002.66  1002.77  1011.63  1027.40  1038.45  1061.58
eigval :     1077.34  1079.93  1080.65  1081.27  1081.61  1119.45
eigval :     1120.78  1122.24  1123.07  1137.71  1140.95  1143.96
eigval :     1145.20  1177.09  1177.36  1178.12  1178.77  1179.40
eigval :     1181.12  1187.10  1189.10  1189.94  1190.89  1192.64
eigval :     1193.30  1195.49  1209.79  1211.89  1233.58  1235.86
eigval :     1236.69  1245.61  1248.17  1265.56  1267.93  1274.28
eigval :     1274.52  1274.85  1277.10  1278.00  1279.76  1285.97
eigval :     1299.51  1301.20  1302.60  1306.99  1308.03  1313.77
eigval :     1314.02  1319.93  1323.08  1323.69  1324.07  1324.11
eigval :     1341.88  1348.27  1374.84  1397.44  1399.71  1407.73
eigval :     1409.00  1418.68  1420.55  1431.96  1432.27  1438.75
eigval :     1439.00  1451.88  1461.55  1461.84  1462.34  1462.40
eigval :     1463.76  1469.30  1477.15  1481.64  1489.86  1501.99
eigval :     1517.68  1533.39  1545.45  1547.26  1562.80  1565.86
eigval :     1569.88  1570.20  1573.27  1573.62  1580.04  1583.35
eigval :     1583.55  1583.89  1591.92  1592.73  2335.94  2343.72
eigval :     3076.47  3076.92  3077.14  3077.27  3077.54  3077.73
eigval :     3077.88  3078.57  3079.24  3081.17  3081.72  3083.15
eigval :     3086.39  3086.40  3086.87  3087.18  3087.68  3088.15
eigval :     3088.31  3088.67  3088.77  3089.21  3089.46  3090.09
eigval :     3091.20  3092.13  3093.76  3094.22  3096.29  3097.23
eigval :     3097.57  3097.78  3099.44  3100.71  3102.73  3104.52

   temp. (K)  partition function   enthalpy   heat capacity  entropy
                                   cal/mol     cal/K/mol   cal/K/mol   J/K/mol
 298.15  VIB  0.341E+25            30681.327    189.945    193.458
         ROT  0.262E+09              888.752      2.981     41.500
         INT  0.894E+33            31570.079    192.926    234.958
         TR   0.226E+29             1481.254      4.968     45.958
         TOT                       33051.3333   197.8937   280.9164  1175.3541

       T/K    H(0)-H(T)+PV         H(T)/Eh          T*S/Eh         G(T)/Eh
   ------------------------------------------------------------------------
    298.15    0.526707E-01    0.801935E+00    0.133472E+00    0.668463E+00
   ------------------------------------------------------------------------

         :::::::::::::::::::::::::::::::::::::::::::::::::::::
         ::                  THERMODYNAMIC                  ::
         :::::::::::::::::::::::::::::::::::::::::::::::::::::
         :: total free energy        -159.429554892629 Eh   ::
         ::.................................................::
         :: total energy             -160.098017596288 Eh   ::
         :: zero point energy           0.749264478979 Eh   ::
         :: G(RRHO) w/o ZPVE           -0.080801775320 Eh   ::
         :: G(RRHO) contrib.            0.668462703659 Eh   ::
         :::::::::::::::::::::::::::::::::::::::::::::::::::::

           -------------------------------------------------
          | TOTAL ENERGY             -160.098017596288 Eh   |
          | TOTAL ENTHALPY           -159.296082465029 Eh   |
          | TOTAL FREE ENERGY        -159.429554892629 Eh   |
          | GRADIENT NORM               0.000072691787 Eh/α |
          | HOMO-LUMO GAP               0.530359568416 eV   |
           -------------------------------------------------

 * finished run on 2025/07/17 at 21:10:39.712
