   * xtb version 6.7.1 (edcfbbe) compiled by 'albert@albert-system' on 2024-07-22

   ID    Z sym.   atoms
    1    7 N      1, 13, 18, 26, 46, 63
    2    6 C      2-12, 14-17, 19-25, 27-45, 47-62, 64
    3    1 H      65-100

          program call               : xtb data2507/toluene/TPA-PZCN/TPA-PZCN_toluene_T1_crest.xyz --gfn 2 --uhf 2 --gbsa toluene --ohess vtight --parallel 40 --molden --ceasefiles --namespace data2507/toluene/TPA-PZCN/TPA-PZCN_toluene_T1_finalOpt
      * Solvation model:               GBSA
        Solvent                        toluene
        Solvent mass                       9.2140E+01 g/mol
          :  Hamiltonian                  GFN2-xTB          :
 * total energy  :  -160.0961876 Eh     change       -0.9131369E-07 Eh
 * total energy  :  -160.0963281 Eh     change       -0.1405256E-03 Eh
 * total energy  :  -160.0963958 Eh     change       -0.6766517E-04 Eh
 * total energy  :  -160.0963345 Eh     change        0.6131576E-04 Eh
 * total energy  :  -160.0964344 Eh     change       -0.9993233E-04 Eh
 * total energy  :  -160.0964262 Eh     change        0.8148266E-05 Eh
 * total energy  :  -160.0964589 Eh     change       -0.3268534E-04 Eh
 * total energy  :  -160.0964906 Eh     change       -0.3162968E-04 Eh
 * total energy  :  -160.0965075 Eh     change       -0.1699852E-04 Eh
 * total energy  :  -160.0965524 Eh     change       -0.4484112E-04 Eh
 * total energy  :  -160.0980148 Eh     change       -0.3384986E-06 Eh
 * total energy  :  -160.0980152 Eh     change       -0.4557937E-06 Eh
 * total energy  :  -160.0980133 Eh     change        0.1886957E-05 Eh
 * total energy  :  -160.0980159 Eh     change       -0.2601896E-05 Eh
 * total energy  :  -160.0980162 Eh     change       -0.2515963E-06 Eh
 * total energy  :  -160.0980167 Eh     change       -0.5223668E-06 Eh
 * total energy  :  -160.0980165 Eh     change        0.2273216E-06 Eh
 * total energy  :  -160.0980168 Eh     change       -0.3551842E-06 Eh
 * total energy  :  -160.0980169 Eh     change       -0.8837554E-07 Eh
   *** GEOMETRY OPTIMIZATION CONVERGED AFTER 79 ITERATIONS ***

 final structure:
================
100
 xtb: 6.7.1 (edcfbbe)
N           11.08596760228062        4.25291706952999       -0.55814760594895
C           10.10908243077891        3.65107068338635       -0.48666597087229
C            8.91052309247957        2.91662257041551       -0.39900841445780
C            7.67135863053006        3.58363762952562       -0.47426023288160
C            6.51910839465552        2.85439949541684       -0.38611413894324
C            6.54846230446822        1.45691772181314       -0.22222398952984
C            7.79191516511045        0.77713304736273       -0.14602824742550
C            8.95891724872190        1.53947437731070       -0.23786125655705
C            7.80720433109927       -0.65887132798886        0.02137580337346
C            8.99011049244911       -1.39730805813788        0.10532304263822
C            8.97084327327915       -2.77519721626262        0.26613226588763
C           10.18458600760337       -3.48524262086493        0.34584732570349
N           11.17362817174849       -4.06760476473900        0.41116270694779
C            7.74610067454902       -3.46741781361206        0.34911742912776
C            6.57870970290865       -2.76166171091915        0.26926984825915
C            6.57852475725076       -1.36388849359344        0.10589791398951
C            5.32818677076180       -0.67477346709713        0.02875397170111
N            4.18564009074541       -1.34186155714696        0.10797861921014
C            3.01053721373010       -0.70463580594630        0.03894646535217
C            1.79707449288627       -1.38345243121442        0.10977905737089
C            0.58116705044207       -0.71535121669463        0.03748599528517
C           -0.66728465760585       -1.48837817841450        0.03876288431805
C           -1.65725930441014       -1.24411444949715       -0.91499599270821
C           -2.83417534863214       -1.95818638110518       -0.91423421913770
C           -3.06730023667231       -2.93994658755735        0.05297610861185
N           -4.27627626377671       -3.63544796561440        0.07678945363392
C           -5.46506437626371       -2.97826386628067       -0.26184253849836
C           -5.66525989447263       -1.64694642098325        0.10798050351573
C           -6.83710625769362       -0.99997222415264       -0.23190785147568
C           -7.82769913464988       -1.66660836222400       -0.93623480032991
C           -7.63613438578815       -2.99010854853366       -1.30114339505973
C           -6.46496828881253       -3.64490042640764       -0.97159703619689
C           -4.30477397896321       -4.98529915622353        0.44603786087421
C           -5.35739820256244       -5.48545266976273        1.21405164109546
C           -5.38058272641832       -6.81865076176621        1.57485232460821
C           -4.35930387126929       -7.67008844978516        1.18278558820213
C           -3.31108772684288       -7.17765172057347        0.42099497043617
C           -3.28073775580790       -5.84728464371631        0.05035867089152
C           -2.06895363490133       -3.20667225418839        0.99333468478425
C           -0.88642757614126       -2.49819511802519        0.97576494475238
C            0.56689943972113        0.68824451391122       -0.08576996190402
C           -0.69611309943540        1.44074488980233       -0.06312448489999
C           -1.63605474276392        1.22128199255048        0.94490496428970
C           -2.82080540396837        1.92372374295040        0.97436325165583
C           -3.10890840157891        2.86446133201534       -0.01703379040436
N           -4.32145372587784        3.55853599710018       -0.01042689182931
C           -4.88222542067529        3.98502061564179        1.19699398840070
C           -4.06395729413166        4.41854541757797        2.24208219247949
C           -4.62224410995061        4.83472242057072        3.43498326438039
C           -5.99795665410560        4.83197066929120        3.60563454734188
C           -6.81518894732074        4.40706820275889        2.56968091519281
C           -6.26714872488972        3.98404166407465        1.37441654694888
C           -4.97207225573378        3.82145099324575       -1.22206720008818
C           -4.97348849502466        2.86545470726100       -2.23915773617239
C           -5.61659738700723        3.12461718631748       -3.43385009258047
C           -6.26788652844737        4.33209205491222       -3.63256484482329
C           -6.26994210125064        5.28403979338833       -2.62479414104976
C           -5.62648909794232        5.03673816197065       -1.42752156668611
C           -2.16371696342267        3.10100450976757       -1.01769011578482
C           -0.97235030228217        2.40704749317393       -1.02983013021252
C            1.76717760612216        1.38038258789896       -0.17768923578374
C            2.99535188019198        0.72600632231865       -0.12356047736313
N            4.15639608345796        1.38638334395284       -0.20565905562131
C            5.31314320346699        0.74270048900937       -0.13468066754192
H            7.64967704488279        4.65565048544219       -0.60024852532679
H            5.55269669375713        3.33187860859129       -0.43928097523049
H            9.92963742056879        1.07154452578471       -0.18559192926849
H            9.95072532161751       -0.90965878486648        0.04700062363029
H            7.74702523871746       -4.53973103958656        0.47449920823747
H            5.62258617359313       -3.25857939987525        0.32896644775362
H            1.82341778162763       -2.45949281512335        0.19329776001863
H           -1.48626950091293       -0.50058380879231       -1.67853937773501
H           -3.58232500149520       -1.76951587665441       -1.66965779353796
H           -4.90005869570504       -1.13219733302508        0.66939342944604
H           -6.98228344465850        0.02815450112386        0.06455971476513
H           -8.74313287791106       -1.15838105990470       -1.19850685538710
H           -8.40087432721473       -3.51510429153720       -1.85429827889771
H           -6.31281101178837       -4.67223736986445       -1.26821923442945
H           -6.14768518976046       -4.82084431340757        1.53073609842941
H           -6.19742792739001       -7.19382877526856        2.17355538268333
H           -4.38013924129735       -8.71068259889477        1.46897605851126
H           -2.51496167790974       -7.83601206698821        0.10590659590128
H           -2.47017070732972       -5.46790276647038       -0.55442900386952
H           -2.23557745991231       -3.96118404930383        1.74787619926479
H           -0.13271734765160       -2.70119305318370        1.72248182497622
H           -1.42659581775381        0.49526752396288        1.71605144885080
H           -3.53952504404615        1.74170550139305        1.75958639765332
H           -2.99244150146049        4.43521182489437        2.10705528236876
H           -3.97858508970952        5.17218112671604        4.23403723978331
H           -6.42985553857306        5.16001329994274        4.53895053529829
H           -7.88780737936161        4.39765974199632        2.69626094379848
H           -6.90631965582378        3.64545429378367        0.57244110787941
H           -4.47595326088672        1.92008179740711       -2.08017309690165
H           -5.61628313601718        2.37563160650600       -4.21197463550775
H           -6.77044332630127        4.53042902815047       -4.56711311720690
H           -6.76865464753105        6.23015420229226       -2.77514664787092
H           -5.61785838684844        5.78420077674761       -0.64790075616718
H           -2.36873791913597        3.83926985543323       -1.77898138064087
H           -0.24939104441413        2.59999902782886       -1.80904889286434
H            1.77002332593936        2.45674518832043       -0.26202054039722

          :  Hamiltonian                  GFN2-xTB          :
         :: gradient norm              0.000051080997 Eh/a0 ::
         :: HOMO-LUMO gap              0.529856210579 eV    ::
         :: SCC energy              -163.154330654164 Eh    ::
         :: -> dispersion             -0.146512576980 Eh    ::
         :: -> Gsolv                  -0.078667487556 Eh    ::
         :: repulsion energy           3.056313710263 Eh    ::

    * Orbital Energies and Occupations

         #    Occupation            Energy/Eh            Energy/eV
      -------------------------------------------------------------
         1        2.0000           -0.6787960             -18.4710
       ...           ...                  ...                  ...
       138        2.0000           -0.4158727             -11.3165
       139        2.0000           -0.4139482             -11.2641
       140        2.0000           -0.4138705             -11.2620
       141        2.0000           -0.4131036             -11.2411
       142        2.0000           -0.4126839             -11.2297
       143        2.0000           -0.4090352             -11.1304
       144        2.0000           -0.4067410             -11.0680
       145        2.0000           -0.3945709             -10.7368
       146        2.0000           -0.3907317             -10.6323
       147        1.9372           -0.3611504              -9.8274
       148        1.6621           -0.3592215              -9.7749
       149        1.4007           -0.3581998              -9.7471
       150        1.0000           -0.3100686              -8.4374 (HOMO)
       151        0.0000           -0.2905967              -7.9075 (LUMO)
       152                         -0.2648736              -7.2076
       153                         -0.2587449              -7.0408
       154                         -0.2550562              -6.9404
       155                         -0.2402473              -6.5375
       156                         -0.2401184              -6.5340
       157                         -0.2397513              -6.5240
       158                         -0.2377310              -6.4690
       159                         -0.2353650              -6.4046
       160                         -0.2320147              -6.3134
       161                         -0.2304749              -6.2715
       ...                                ...                  ...
       292                          1.1591615              31.5424
      -------------------------------------------------------------
                  HL-Gap            0.0194719 Eh            0.5299 eV

     #   Z          covCN         q      C6AA      α(0)
     1   7 N        0.911    -0.282    27.282     7.554
     2   6 C        1.914     0.116    28.244     8.583
     3   6 C        2.971     0.010    27.798     8.648
     4   6 C        2.920    -0.026    28.657     8.779
     5   6 C        2.922    -0.027    28.667     8.780
     6   6 C        2.986    -0.006    28.162     8.705
     7   6 C        2.975     0.001    28.000     8.680
     8   6 C        2.929    -0.024    28.611     8.772
     9   6 C        2.975     0.001    27.999     8.680
    10   6 C        2.929    -0.024    28.611     8.772
    11   6 C        2.971     0.010    27.796     8.648
    12   6 C        1.914     0.116    28.243     8.583
    13   7 N        0.911    -0.282    27.280     7.554
    14   6 C        2.921    -0.026    28.657     8.779
    15   6 C        2.922    -0.027    28.667     8.780
    16   6 C        2.986    -0.006    28.162     8.705
    17   6 C        2.943     0.081    26.187     8.393
    18   7 N        1.849    -0.250    27.371     7.754
    19   6 C        2.942     0.084    26.131     8.384
    20   6 C        2.923    -0.064    29.580     8.919
    21   6 C        2.976     0.002    27.986     8.678
    22   6 C        2.977     0.011    27.763     8.643
    23   6 C        2.923    -0.031    28.763     8.795
    24   6 C        2.920    -0.045    29.123     8.850
    25   6 C        2.924     0.063    26.578     8.454
    26   7 N        2.752    -0.051    22.230     7.003
    27   6 C        2.925     0.064    26.567     8.453
    28   6 C        2.922    -0.044    29.091     8.845
    29   6 C        2.919    -0.027    28.674     8.781
    30   6 C        2.919    -0.033    28.831     8.805
    31   6 C        2.919    -0.027    28.681     8.782
    32   6 C        2.921    -0.044    29.084     8.844
    33   6 C        2.924     0.064    26.563     8.452
    34   6 C        2.921    -0.044    29.087     8.844
    35   6 C        2.919    -0.027    28.683     8.783
    36   6 C        2.919    -0.033    28.829     8.805
    37   6 C        2.919    -0.027    28.683     8.782
    38   6 C        2.922    -0.044    29.088     8.844
    39   6 C        2.920    -0.045    29.109     8.848
    40   6 C        2.923    -0.032    28.809     8.802
    41   6 C        2.976     0.002    27.982     8.677
    42   6 C        2.977     0.012    27.744     8.640
    43   6 C        2.923    -0.030    28.757     8.794
    44   6 C        2.920    -0.045    29.108     8.847
    45   6 C        2.925     0.063    26.578     8.454
    46   7 N        2.752    -0.053    22.257     7.007
    47   6 C        2.923     0.064    26.559     8.451
    48   6 C        2.922    -0.045    29.108     8.847
    49   6 C        2.919    -0.027    28.684     8.783
    50   6 C        2.919    -0.034    28.845     8.807
    51   6 C        2.919    -0.028    28.688     8.783
    52   6 C        2.922    -0.045    29.109     8.848
    53   6 C        2.925     0.064    26.562     8.452
    54   6 C        2.922    -0.044    29.085     8.844
    55   6 C        2.919    -0.027    28.680     8.782
    56   6 C        2.919    -0.033    28.830     8.805
    57   6 C        2.919    -0.027    28.683     8.783
    58   6 C        2.921    -0.044    29.083     8.844
    59   6 C        2.920    -0.044    29.089     8.845
    60   6 C        2.923    -0.032    28.805     8.801
    61   6 C        2.923    -0.063    29.576     8.918
    62   6 C        2.942     0.084    26.127     8.383
    63   7 N        1.849    -0.250    27.370     7.754
    64   6 C        2.943     0.081    26.190     8.393
    65   1 H        0.926     0.043     2.412     2.429
    66   1 H        0.926     0.056     2.244     2.343
    67   1 H        0.926     0.041     2.437     2.441
    68   1 H        0.926     0.041     2.437     2.441
    69   1 H        0.926     0.043     2.411     2.428
    70   1 H        0.926     0.056     2.243     2.342
    71   1 H        0.926     0.046     2.369     2.407
    72   1 H        0.926     0.039     2.468     2.457
    73   1 H        0.926     0.041     2.432     2.438
    74   1 H        0.926     0.039     2.466     2.456
    75   1 H        0.926     0.040     2.444     2.445
    76   1 H        0.926     0.039     2.460     2.452
    77   1 H        0.926     0.040     2.449     2.447
    78   1 H        0.926     0.039     2.468     2.457
    79   1 H        0.926     0.040     2.451     2.448
    80   1 H        0.926     0.040     2.444     2.445
    81   1 H        0.926     0.038     2.470     2.458
    82   1 H        0.926     0.039     2.457     2.451
    83   1 H        0.926     0.038     2.469     2.457
    84   1 H        0.926     0.042     2.426     2.436
    85   1 H        0.926     0.040     2.444     2.445
    86   1 H        0.926     0.038     2.478     2.462
    87   1 H        0.926     0.041     2.430     2.438
    88   1 H        0.926     0.037     2.487     2.466
    89   1 H        0.926     0.038     2.471     2.458
    90   1 H        0.926     0.038     2.481     2.463
    91   1 H        0.926     0.040     2.449     2.447
    92   1 H        0.926     0.039     2.458     2.452
    93   1 H        0.926     0.039     2.461     2.453
    94   1 H        0.926     0.040     2.448     2.447
    95   1 H        0.926     0.038     2.472     2.458
    96   1 H        0.926     0.040     2.454     2.450
    97   1 H        0.926     0.039     2.465     2.455
    98   1 H        0.926     0.041     2.431     2.438
    99   1 H        0.926     0.040     2.449     2.447
   100   1 H        0.926     0.046     2.376     2.410

molecular dipole:
                 x           y           z       tot (Debye)
 q only:      -10.361      -0.151       0.042
   full:      -10.877      -0.155       0.051      27.649

 projected vibrational frequencies (cm⁻¹)
eigval :       -0.00    -0.00     0.00     0.00     0.00     0.00
eigval :        6.00     8.57    12.00    14.74    16.82    19.59
eigval :       32.63    36.11    43.80    46.92    49.94    51.17
eigval :       54.10    59.10    62.82    67.25    72.77    74.45
eigval :       77.37    81.19    90.48    96.61   103.68   106.65
eigval :      112.29   136.45   137.02   140.87   152.20   168.87
eigval :      177.26   184.47   211.57   214.72   223.18   228.62
eigval :      232.58   243.10   259.04   263.96   281.77   294.35
eigval :      301.26   306.32   316.49   324.36   341.07   348.20
eigval :      350.25   359.91   372.97   375.75   376.93   377.74
eigval :      378.46   379.47   386.49   388.12   396.26   398.69
eigval :      404.49   407.98   418.59   439.27   448.43   461.43
eigval :      473.33   474.96   486.67   489.91   499.71   503.47
eigval :      510.01   510.92   531.40   534.75   547.83   554.27
eigval :      563.69   578.99   580.34   582.68   583.46   587.53
eigval :      589.04   592.77   593.57   603.42   610.81   613.71
eigval :      621.87   621.98   633.69   634.86   653.97   657.88
eigval :      660.03   660.75   663.20   674.32   675.68   679.45
eigval :      685.46   696.87   703.02   706.54   724.43   729.35
eigval :      740.99   754.17   759.42   761.64   763.08   790.99
eigval :      813.00   813.66   820.58   820.81   824.18   832.21
eigval :      846.85   852.55   865.53   865.74   866.47   868.88
eigval :      873.81   874.56   875.78   891.30   895.03   896.66
eigval :      898.45   901.83   908.68   908.99   914.57   914.88
eigval :      916.68   917.32   918.65   925.05   926.33   928.15
eigval :      928.43   929.10   929.47   930.95   931.14   932.90
eigval :      936.16   944.36   951.79   952.67   981.42   987.65
eigval :     1002.64  1002.75  1011.46  1026.81  1038.40  1061.45
eigval :     1077.09  1079.89  1080.40  1081.35  1081.48  1119.73
eigval :     1120.27  1122.42  1122.53  1137.17  1140.56  1144.75
eigval :     1145.09  1176.59  1177.51  1178.16  1178.78  1179.53
eigval :     1180.78  1186.98  1188.72  1189.49  1191.45  1192.34
eigval :     1192.81  1195.23  1209.84  1211.29  1233.69  1235.96
eigval :     1236.58  1245.35  1248.09  1264.56  1267.33  1274.35
eigval :     1274.45  1274.73  1276.82  1277.66  1279.51  1285.75
eigval :     1299.23  1301.04  1302.54  1306.95  1307.95  1313.78
eigval :     1313.90  1319.88  1323.21  1323.66  1324.02  1324.11
eigval :     1341.93  1347.92  1375.17  1397.10  1399.62  1407.54
eigval :     1408.96  1418.58  1420.34  1432.05  1432.15  1438.66
eigval :     1438.85  1451.83  1461.56  1461.78  1462.44  1462.64
eigval :     1463.63  1469.10  1477.02  1481.24  1489.48  1501.86
eigval :     1517.40  1533.33  1545.35  1547.16  1562.63  1565.54
eigval :     1569.93  1570.13  1573.32  1573.67  1580.02  1583.59
eigval :     1583.64  1583.81  1591.87  1592.78  2335.84  2343.64
eigval :     3076.56  3077.00  3077.21  3077.50  3077.69  3077.90
eigval :     3078.04  3078.72  3079.26  3080.97  3082.60  3083.29
eigval :     3086.44  3086.59  3087.19  3087.48  3087.72  3088.06
eigval :     3088.68  3088.88  3088.95  3089.17  3089.65  3090.30
eigval :     3091.24  3091.77  3094.42  3094.53  3095.70  3097.30
eigval :     3097.61  3097.90  3099.37  3101.84  3102.54  3104.64

   temp. (K)  partition function   enthalpy   heat capacity  entropy
                                   cal/mol     cal/K/mol   cal/K/mol   J/K/mol
 298.15  VIB  0.212E+26            30761.259    189.706    195.353
         ROT  0.262E+09              888.752      2.981     41.499
         INT  0.554E+34            31650.011    192.687    236.852
         TR   0.226E+29             1481.254      4.968     45.958
         TOT                       33131.2650   197.6555   282.8102  1183.2780

       T/K    H(0)-H(T)+PV         H(T)/Eh          T*S/Eh         G(T)/Eh
   ------------------------------------------------------------------------
    298.15    0.527980E-01    0.801861E+00    0.134372E+00    0.667489E+00
   ------------------------------------------------------------------------

         :::::::::::::::::::::::::::::::::::::::::::::::::::::
         ::                  THERMODYNAMIC                  ::
         :::::::::::::::::::::::::::::::::::::::::::::::::::::
         :: total free energy        -159.430527957519 Eh   ::
         ::.................................................::
         :: total energy             -160.098016945458 Eh   ::
         :: zero point energy           0.749063223458 Eh   ::
         :: G(RRHO) w/o ZPVE           -0.081574235519 Eh   ::
         :: G(RRHO) contrib.            0.667488987939 Eh   ::
         :::::::::::::::::::::::::::::::::::::::::::::::::::::

           -------------------------------------------------
          | TOTAL ENERGY             -160.098016945458 Eh   |
          | TOTAL ENTHALPY           -159.296155690430 Eh   |
          | TOTAL FREE ENERGY        -159.430527957519 Eh   |
          | GRADIENT NORM               0.000053972568 Eh/α |
          | HOMO-LUMO GAP               0.529858255392 eV   |
           -------------------------------------------------

 * finished run on 2025/07/17 at 21:27:35.895
