   * xtb version 6.7.1 (edcfbbe) compiled by 'albert@albert-system' on 2024-07-22

   ID    Z sym.   atoms
    1    7 N      1, 13, 18, 26, 46, 63
    2    6 C      2-12, 14-17, 19-25, 27-45, 47-62, 64
    3    1 H      65-100

          program call               : xtb data2507/toluene/TPA-PZCN/TPA-PZCN.xyz --gfn 2 --gbsa toluene --ohess vtight --parallel 40 --molden --ceasefiles --namespace data2507/toluene/TPA-PZCN/TPA-PZCN_toluene_S0_preOpt
      * Solvation model:               GBSA
        Solvent                        toluene
        Solvent mass                       9.2140E+01 g/mol
          :  Hamiltonian                  GFN2-xTB          :
 * total energy  :  -160.1001348 Eh     change       -0.3329433E-08 Eh
 * total energy  :  -160.1231005 Eh     change       -0.2296578E-01 Eh
 * total energy  :  -160.1310209 Eh     change       -0.7920371E-02 Eh
 * total energy  :  -160.1326859 Eh     change       -0.1664942E-02 Eh
 * total energy  :  -160.1339780 Eh     change       -0.1292163E-02 Eh
 * total energy  :  -160.1347090 Eh     change       -0.7310153E-03 Eh
 * total energy  :  -160.1344125 Eh     change        0.2965279E-03 Eh
 * total energy  :  -160.1351572 Eh     change       -0.7446590E-03 Eh
 * total energy  :  -160.1352693 Eh     change       -0.1121689E-03 Eh
 * total energy  :  -160.1354682 Eh     change       -0.1988676E-03 Eh
 * total energy  :  -160.1401905 Eh     change       -0.3601799E-06 Eh
 * total energy  :  -160.1401909 Eh     change       -0.3725417E-06 Eh
 * total energy  :  -160.1401912 Eh     change       -0.3761099E-06 Eh
 * total energy  :  -160.1401912 Eh     change        0.6802173E-07 Eh
 * total energy  :  -160.1401914 Eh     change       -0.2556908E-06 Eh
 * total energy  :  -160.1401915 Eh     change       -0.1089806E-06 Eh
 * total energy  :  -160.1401917 Eh     change       -0.1306217E-06 Eh
 * total energy  :  -160.1401918 Eh     change       -0.1329690E-06 Eh
 * total energy  :  -160.1401919 Eh     change       -0.9203796E-07 Eh
   *** GEOMETRY OPTIMIZATION CONVERGED AFTER 127 ITERATIONS ***

 final structure:
================
100
 xtb: 6.7.1 (edcfbbe)
N           11.87415236224595        3.81417370170946        1.61146433949486
C           10.88644380724120        3.27552532333816        1.38490685281336
C            9.66960234543103        2.61344633028035        1.10462056800052
C            8.45085028755253        3.26002788436216        1.35210301180862
C            7.28131148549372        2.59863355000880        1.07381312476644
C            7.29269942181267        1.29957879715648        0.55157819372883
C            8.51386582339713        0.64029570874196        0.29696045720701
C            9.69642728031897        1.32538156042318        0.58556180045670
C            8.50944831615196       -0.71162765333551       -0.24888142390603
C            9.68746970182302       -1.40731605365921       -0.53060058062642
C            9.65213445101172       -2.69499656293161       -1.05015841091834
C           10.86458404868584       -3.36741884406730       -1.32477048918033
N           11.84876699967862       -3.91383991673591       -1.54793460943060
C            8.42910469633378       -3.33069668617913       -1.30458170423232
C            7.26396696410968       -2.65875835431495       -1.03321227408631
C            7.28393560623136       -1.35980493266618       -0.51098195149134
C            6.03158056516821       -0.68703053424229       -0.24473726844201
N            4.89896570823545       -1.32330382878439       -0.49581684638659
C            3.75057407847465       -0.68104491187027       -0.24862955111888
C            2.51769310802397       -1.32181636341769       -0.47595865417798
C            1.32946064614251       -0.68099871251324       -0.22767479217930
C            0.06615029951208       -1.41426786756857       -0.39140304374339
C           -0.18468212714909       -2.15472228589063       -1.54534104159062
C           -1.36239674728874       -2.85526845731875       -1.69575462309383
C           -2.32242633318689       -2.85399261113440       -0.68143463266102
N           -3.51294382981186       -3.56491454232398       -0.82987404375923
C           -4.09046230960817       -4.21480676980758        0.26929276340873
C           -3.28787083908452       -4.83996181217234        1.22377327030047
C           -3.86249117287835       -5.48285147654612        2.30343602961459
C           -5.24032667089209       -5.52189253166195        2.44558484340005
C           -6.04209486134786       -4.90618830788423        1.49788966210149
C           -5.47650642378154       -4.25275416732468        0.41966460012458
C           -4.13014600795104       -3.63992863585667       -2.08700691192271
C           -4.73027357672740       -4.82456957313368       -2.51205434670500
C           -5.34305052973405       -4.88879338999040       -3.74900600384302
C           -5.36103569898315       -3.78148213467734       -4.58187229315418
C           -4.76255425106414       -2.60311779577194       -4.16536974460521
C           -4.15481053019063       -2.52662762604980       -2.92682253765152
C           -2.06457383534625       -2.12882942907561        0.48437429939582
C           -0.89213081722023       -1.41853520627015        0.62201118344681
C            1.33383641257051        0.67395171961273        0.23300402491028
C            0.07567347206000        1.41696134505685        0.39069412386806
C           -0.17129838115363        2.16689286831256        1.53943415488448
C           -1.34414384448922        2.87672507738532        1.68404524023248
C           -2.30390010377713        2.87486548495559        0.66931029744797
N           -3.48961358375656        3.59426364557579        0.81185636641746
C           -4.10385820743320        3.69065866547185        2.06908745333321
C           -4.69627947870239        4.88502948714991        2.47736128350530
C           -5.30711735881075        4.97119082449723        3.71392707917487
C           -5.33082981622068        3.87632327160916        4.56294447984618
C           -4.74008875480495        2.68833494800534        4.16305745008318
C           -4.13433432682080        2.58992385098768        2.92506100289970
C           -4.06883826373060        4.23068966001105       -0.29461407304115
C           -5.45513403986547        4.26707273398193       -0.44264324336929
C           -6.02273205821829        4.90677392504758       -1.52804148826801
C           -5.22262449018232        5.50995484201742       -2.48513771151233
C           -3.84451731620943        5.47271999105681       -2.34503737774944
C           -3.26791359687156        4.84359362253353       -1.25831841862491
C           -2.04979453793570        2.14000716377624       -0.49134556946819
C           -0.88185805522088        1.42144374521595       -0.62352763780948
C            2.52639946434126        1.30468828761542        0.48701858144779
C            3.75488727101678        0.65308170978843        0.26690578481714
N            4.90758323867859        1.28488727568817        0.52130875684679
C            6.03591105495413        0.63828876185648        0.27743686880298
H            8.44542115907784        4.26122506113127        1.75537643150137
H            6.32280325848898        3.06058335158108        1.25020032213594
H           10.65887616654302        0.87091852457019        0.41319017591346
H           10.65293427096290       -0.96152173862332       -0.35255760834816
H            8.41695750152026       -4.33186264108614       -1.70778269346543
H            6.30242617939341       -3.11203471319421       -1.21539566725397
H            2.53404497580918       -2.34473024651559       -0.82063844219714
H            0.54657570949180       -2.16475384251665       -2.34063177464318
H           -1.54545554169041       -3.41719633609446       -2.59985857303414
H           -2.21362600166217       -4.82151733263227        1.11004423818544
H           -3.22910542985952       -5.96552569264029        3.03360310739762
H           -5.68590228423318       -6.02933579329240        3.28799979656090
H           -7.11715810956391       -4.92740442991367        1.60259243080845
H           -6.10419936854383       -3.76664272631747       -0.31296979512018
H           -4.71011657038124       -5.69158261510688       -1.86782359978320
H           -5.80266018419233       -5.81302766434351       -4.06780242310395
H           -5.83826660945217       -3.83674392302379       -5.54878633342656
H           -4.77720198308967       -1.73295875652329       -4.80558102316462
H           -3.69818581159338       -1.60389945663949       -2.59894743918970
H           -2.79544405576315       -2.12377603209969        1.27942357398449
H           -0.70804419781833       -0.86788712298188        1.53232091663952
H            0.55915339015238        2.17710091413002        2.33546791178668
H           -1.52354512312336        3.44637996220151        2.58402002902089
H           -4.67169803799192        5.74223230075666        1.82026138404764
H           -5.76076097405604        5.90276386285761        4.01958034091737
H           -5.80646135929719        3.94862454716785        5.52952215412185
H           -4.75944667115060        1.82772760995014        4.81592788000819
H           -3.68386597207623        1.65966000006089        2.61024012288078
H           -6.08138059668335        3.79058591804423        0.29751866216927
H           -7.09798151682284        4.92671710520500       -1.63101763856096
H           -5.66968111176722        6.00632288640733       -3.33336210405040
H           -3.21251922179513        5.94588023370484       -3.08259164298743
H           -2.19346809558354        4.82644362779937       -1.14627640714695
H           -2.78008293422834        2.13393281574195       -1.28690381064675
H           -0.70068020039481        0.86445983359322       -1.53052527850412
H            2.54992121130440        2.32761572058173        0.83121812679337

          :  Hamiltonian                  GFN2-xTB          :
         :: gradient norm              0.000111611978 Eh/a0 ::
         :: HOMO-LUMO gap              0.947190897919 eV    ::
         :: SCC energy              -163.197316846159 Eh    ::
         :: -> dispersion             -0.144671469907 Eh    ::
         :: -> Gsolv                  -0.073222771679 Eh    ::
         :: repulsion energy           3.057124956112 Eh    ::

    * Orbital Energies and Occupations

         #    Occupation            Energy/Eh            Energy/eV
      -------------------------------------------------------------
         1        2.0000           -0.6881885             -18.7266
       ...           ...                  ...                  ...
       137        2.0000           -0.4134449             -11.2504
       138        2.0000           -0.4119428             -11.2095
       139        2.0000           -0.4101503             -11.1608
       140        2.0000           -0.4100478             -11.1580
       141        2.0000           -0.4078017             -11.0968
       142        2.0000           -0.4073724             -11.0852
       143        2.0000           -0.4069322             -11.0732
       144        2.0000           -0.4067542             -11.0683
       145        2.0000           -0.4004305             -10.8963
       146        2.0000           -0.3972958             -10.8110
       147        2.0000           -0.3641689              -9.9095
       148        2.0000           -0.3536348              -9.6229
       149        2.0000           -0.3528529              -9.6016 (HOMO)
       150                         -0.3180443              -8.6544 (LUMO)
       151                         -0.2998737              -8.1600
       152                         -0.2767997              -7.5321
       153                         -0.2690333              -7.3208
       154                         -0.2575757              -7.0090
       155                         -0.2387390              -6.4964
       156                         -0.2341896              -6.3726
       157                         -0.2331722              -6.3449
       158                         -0.2328823              -6.3370
       159                         -0.2327040              -6.3322
       160                         -0.2299997              -6.2586
       ...                                ...                  ...
       292                          1.1528751              31.3713
      -------------------------------------------------------------
                  HL-Gap            0.0348086 Eh            0.9472 eV

     #   Z          covCN         q      C6AA      α(0)
     1   7 N        0.911    -0.259    26.719     7.476
     2   6 C        1.913     0.119    28.163     8.571
     3   6 C        2.972     0.021    27.540     8.608
     4   6 C        2.922    -0.018    28.454     8.748
     5   6 C        2.923    -0.023    28.584     8.768
     6   6 C        2.987     0.004    27.930     8.669
     7   6 C        2.975     0.010    27.791     8.647
     8   6 C        2.930    -0.023    28.579     8.767
     9   6 C        2.975     0.010    27.791     8.647
    10   6 C        2.930    -0.023    28.579     8.767
    11   6 C        2.972     0.021    27.540     8.608
    12   6 C        1.913     0.119    28.163     8.571
    13   7 N        0.911    -0.259    26.720     7.476
    14   6 C        2.922    -0.018    28.454     8.748
    15   6 C        2.923    -0.023    28.584     8.768
    16   6 C        2.987     0.004    27.930     8.669
    17   6 C        2.961     0.081    26.190     8.394
    18   7 N        1.848    -0.255    27.499     7.772
    19   6 C        2.963     0.082    26.160     8.389
    20   6 C        2.923    -0.052    29.298     8.876
    21   6 C        2.975     0.016    27.661     8.627
    22   6 C        2.978     0.004    27.934     8.670
    23   6 C        2.923    -0.033    28.823     8.804
    24   6 C        2.921    -0.048    29.189     8.860
    25   6 C        2.923     0.067    26.497     8.441
    26   7 N        2.752    -0.074    22.684     7.074
    27   6 C        2.923     0.065    26.552     8.450
    28   6 C        2.922    -0.048    29.188     8.860
    29   6 C        2.919    -0.030    28.744     8.792
    30   6 C        2.919    -0.038    28.955     8.824
    31   6 C        2.919    -0.030    28.741     8.791
    32   6 C        2.922    -0.047    29.174     8.857
    33   6 C        2.924     0.065    26.552     8.450
    34   6 C        2.922    -0.047    29.162     8.856
    35   6 C        2.919    -0.030    28.738     8.791
    36   6 C        2.919    -0.038    28.945     8.823
    37   6 C        2.919    -0.030    28.740     8.791
    38   6 C        2.922    -0.047    29.170     8.857
    39   6 C        2.920    -0.048    29.186     8.859
    40   6 C        2.923    -0.030    28.746     8.792
    41   6 C        2.975     0.016    27.661     8.627
    42   6 C        2.978     0.004    27.939     8.670
    43   6 C        2.923    -0.033    28.823     8.804
    44   6 C        2.921    -0.048    29.193     8.860
    45   6 C        2.923     0.067    26.497     8.441
    46   7 N        2.752    -0.074    22.680     7.073
    47   6 C        2.924     0.065    26.552     8.450
    48   6 C        2.922    -0.047    29.161     8.856
    49   6 C        2.919    -0.030    28.738     8.791
    50   6 C        2.919    -0.038    28.944     8.822
    51   6 C        2.919    -0.030    28.740     8.791
    52   6 C        2.922    -0.047    29.169     8.857
    53   6 C        2.923     0.065    26.552     8.450
    54   6 C        2.922    -0.047    29.171     8.857
    55   6 C        2.919    -0.030    28.740     8.791
    56   6 C        2.919    -0.038    28.952     8.824
    57   6 C        2.919    -0.030    28.744     8.792
    58   6 C        2.922    -0.048    29.184     8.859
    59   6 C        2.920    -0.048    29.191     8.860
    60   6 C        2.923    -0.030    28.747     8.792
    61   6 C        2.923    -0.052    29.300     8.877
    62   6 C        2.963     0.082    26.161     8.389
    63   7 N        1.848    -0.255    27.500     7.772
    64   6 C        2.961     0.081    26.190     8.394
    65   1 H        0.926     0.054     2.265     2.353
    66   1 H        0.926     0.071     2.074     2.252
    67   1 H        0.926     0.052     2.292     2.367
    68   1 H        0.926     0.052     2.292     2.367
    69   1 H        0.926     0.054     2.265     2.353
    70   1 H        0.926     0.071     2.074     2.252
    71   1 H        0.926     0.055     2.259     2.350
    72   1 H        0.926     0.038     2.475     2.460
    73   1 H        0.926     0.038     2.481     2.463
    74   1 H        0.926     0.032     2.554     2.499
    75   1 H        0.926     0.034     2.531     2.488
    76   1 H        0.926     0.033     2.548     2.496
    77   1 H        0.926     0.034     2.525     2.485
    78   1 H        0.926     0.033     2.546     2.495
    79   1 H        0.926     0.033     2.545     2.495
    80   1 H        0.926     0.035     2.523     2.484
    81   1 H        0.926     0.033     2.542     2.493
    82   1 H        0.926     0.035     2.521     2.483
    83   1 H        0.926     0.033     2.546     2.495
    84   1 H        0.926     0.037     2.494     2.470
    85   1 H        0.926     0.035     2.513     2.479
    86   1 H        0.926     0.038     2.475     2.460
    87   1 H        0.926     0.038     2.482     2.463
    88   1 H        0.926     0.033     2.545     2.495
    89   1 H        0.926     0.035     2.522     2.483
    90   1 H        0.926     0.033     2.542     2.493
    91   1 H        0.926     0.035     2.521     2.483
    92   1 H        0.926     0.033     2.545     2.495
    93   1 H        0.926     0.033     2.546     2.495
    94   1 H        0.926     0.034     2.524     2.484
    95   1 H        0.926     0.033     2.547     2.495
    96   1 H        0.926     0.034     2.529     2.487
    97   1 H        0.926     0.032     2.552     2.498
    98   1 H        0.926     0.036     2.496     2.471
    99   1 H        0.926     0.035     2.513     2.479
   100   1 H        0.926     0.055     2.258     2.350

molecular dipole:
                 x           y           z       tot (Debye)
 q only:       -4.445       0.029      -0.011
   full:       -5.068       0.031      -0.012      12.883

 projected vibrational frequencies (cm⁻¹)
eigval :       -0.00    -0.00     0.00     0.00     0.00     0.00
eigval :        4.97     7.87     8.62    11.93    12.30    19.69
eigval :       28.46    32.87    42.63    44.10    50.41    50.67
eigval :       54.55    56.23    59.25    66.47    70.85    72.05
eigval :       81.53    81.56    89.51    94.10   104.26   111.98
eigval :      112.07   136.95   137.02   140.32   144.80   167.78
eigval :      174.27   184.80   211.06   216.31   222.91   230.64
eigval :      234.85   244.59   253.55   272.85   285.43   294.52
eigval :      306.63   309.81   316.78   327.35   343.22   351.90
eigval :      354.74   361.85   368.23   376.73   377.26   377.75
eigval :      378.21   379.63   386.09   386.67   391.26   400.38
eigval :      405.41   420.79   427.07   433.62   448.27   468.56
eigval :      476.87   477.67   487.85   489.14   494.12   504.75
eigval :      505.14   510.79   536.81   537.36   549.18   554.16
eigval :      575.88   580.36   580.72   584.61   584.80   587.95
eigval :      590.99   593.90   594.04   606.46   610.66   622.79
eigval :      626.03   638.35   641.53   645.31   658.96   659.56
eigval :      660.89   664.39   670.72   677.81   682.38   691.43
eigval :      698.11   708.91   713.88   734.99   735.97   744.16
eigval :      755.72   756.36   760.46   761.65   768.05   802.64
eigval :      814.03   816.02   829.66   831.46   847.13   848.40
eigval :      857.56   865.47   868.98   872.01   872.65   873.71
eigval :      873.99   874.68   875.07   890.61   891.42   893.95
eigval :      894.88   901.61   908.95   909.11   915.32   917.43
eigval :      917.97   925.22   925.69   926.02   926.30   927.03
eigval :      927.34   927.86   927.93   928.44   928.69   930.03
eigval :      930.47   951.08   953.39   966.62   981.96   989.62
eigval :     1003.94  1004.01  1010.98  1029.10  1046.65  1062.60
eigval :     1071.39  1081.10  1081.22  1082.10  1082.22  1119.55
eigval :     1119.64  1121.58  1121.74  1140.56  1141.58  1143.41
eigval :     1143.73  1177.32  1177.35  1178.84  1179.49  1181.99
eigval :     1183.02  1183.88  1191.34  1192.59  1192.95  1193.28
eigval :     1194.39  1202.98  1211.47  1211.76  1227.76  1232.85
eigval :     1238.86  1254.77  1265.48  1267.35  1271.09  1275.52
eigval :     1276.31  1278.36  1279.77  1280.40  1293.01  1295.42
eigval :     1307.22  1307.69  1313.94  1314.43  1314.85  1319.99
eigval :     1322.35  1323.88  1324.22  1325.29  1325.68  1334.17
eigval :     1360.72  1374.12  1389.80  1407.99  1408.63  1418.83
eigval :     1425.91  1430.54  1433.60  1434.54  1440.41  1440.47
eigval :     1445.27  1463.04  1468.19  1469.16  1470.82  1471.70
eigval :     1471.99  1482.14  1491.59  1491.63  1515.11  1538.74
eigval :     1543.75  1551.02  1552.41  1570.88  1575.44  1575.80
eigval :     1576.78  1579.64  1580.17  1582.83  1589.41  1591.00
eigval :     1591.06  1594.36  1598.88  1600.89  2363.22  2364.90
eigval :     3071.97  3072.24  3072.27  3072.42  3072.77  3073.04
eigval :     3073.73  3073.81  3076.19  3076.62  3081.21  3081.56
eigval :     3082.17  3082.22  3083.04  3083.09  3084.58  3084.60
eigval :     3085.74  3085.83  3088.67  3089.34  3092.57  3093.38
eigval :     3093.47  3093.65  3094.04  3094.14  3094.85  3094.97
eigval :     3095.32  3095.42  3103.87  3111.68  3111.92  3113.44

   temp. (K)  partition function   enthalpy   heat capacity  entropy
                                   cal/mol     cal/K/mol   cal/K/mol   J/K/mol
 298.15  VIB  0.855E+26            30677.206    188.409    195.975
         ROT  0.267E+09              888.752      2.981     41.542
         INT  0.229E+35            31565.958    191.390    237.517
         TR   0.226E+29             1481.254      4.968     45.958
         TOT                       33047.2118   196.3585   283.4749  1186.0588

       T/K    H(0)-H(T)+PV         H(T)/Eh          T*S/Eh         G(T)/Eh
   ------------------------------------------------------------------------
    298.15    0.526641E-01    0.804091E+00    0.134688E+00    0.669403E+00
   ------------------------------------------------------------------------

         :::::::::::::::::::::::::::::::::::::::::::::::::::::
         ::                  THERMODYNAMIC                  ::
         :::::::::::::::::::::::::::::::::::::::::::::::::::::
         :: total free energy        -159.470788586446 Eh   ::
         ::.................................................::
         :: total energy             -160.140191890560 Eh   ::
         :: zero point energy           0.751427272808 Eh   ::
         :: G(RRHO) w/o ZPVE           -0.082023968695 Eh   ::
         :: G(RRHO) contrib.            0.669403304113 Eh   ::
         :::::::::::::::::::::::::::::::::::::::::::::::::::::

           -------------------------------------------------
          | TOTAL ENERGY             -160.140191890560 Eh   |
          | TOTAL ENTHALPY           -159.336100533559 Eh   |
          | TOTAL FREE ENERGY        -159.470788586446 Eh   |
          | GRADIENT NORM               0.000111598557 Eh/α |
          | HOMO-LUMO GAP               0.947190693083 eV   |
           -------------------------------------------------

 * finished run on 2025/07/17 at 21:00:12.108
