   * xtb version 6.7.1 (edcfbbe) compiled by 'albert@albert-system' on 2024-07-22

   ID    Z sym.   atoms
    1    8 O      1, 22
    2    6 C      2-21, 23-30
    3    1 H      31-52

          program call               : xtb data2507/toluene/m-DHMPA/m-DHMPA.xyz --gfn 2 --gbsa toluene --ohess vtight --parallel 40 --molden --ceasefiles --namespace data2507/toluene/m-DHMPA/m-DHMPA_toluene_S0_preOpt
      * Solvation model:               GBSA
        Solvent                        toluene
        Solvent mass                       9.2140E+01 g/mol
          :  Hamiltonian                  GFN2-xTB          :
 * total energy  :   -79.3060924 Eh     change       -0.3579714E-08 Eh
 * total energy  :   -79.3161921 Eh     change       -0.1009979E-01 Eh
 * total energy  :   -79.3184416 Eh     change       -0.2249458E-02 Eh
 * total energy  :   -79.3187745 Eh     change       -0.3328920E-03 Eh
 * total energy  :   -79.3192333 Eh     change       -0.4588233E-03 Eh
 * total energy  :   -79.3195389 Eh     change       -0.3056213E-03 Eh
 * total energy  :   -79.3205110 Eh     change       -0.9720342E-03 Eh
 * total energy  :   -79.3209928 Eh     change       -0.4818216E-03 Eh
 * total energy  :   -79.3192770 Eh     change        0.1715821E-02 Eh
 * total energy  :   -79.3215459 Eh     change       -0.2268924E-02 Eh
 * total energy  :   -79.3231730 Eh     change       -0.1622106E-05 Eh
 * total energy  :   -79.3231750 Eh     change       -0.2010936E-05 Eh
 * total energy  :   -79.3231762 Eh     change       -0.1184522E-05 Eh
 * total energy  :   -79.3231774 Eh     change       -0.1135367E-05 Eh
 * total energy  :   -79.3231784 Eh     change       -0.1002333E-05 Eh
 * total energy  :   -79.3231787 Eh     change       -0.3006541E-06 Eh
 * total energy  :   -79.3231788 Eh     change       -0.1344172E-06 Eh
 * total energy  :   -79.3231789 Eh     change       -0.1130870E-06 Eh
 * total energy  :   -79.3231789 Eh     change       -0.4970701E-08 Eh
   *** GEOMETRY OPTIMIZATION CONVERGED AFTER 71 ITERATIONS ***

 final structure:
================
52
 xtb: 6.7.1 (edcfbbe)
O            7.33909430253639       -0.12790168593028       -1.29267421351458
C            6.06280906868555        0.44289527657862       -1.48394449776456
C            5.11025581305987        0.22098264460078       -0.33304944292476
C            5.59147685270327        0.04428957864581        0.95775416871970
C            4.71174064849971       -0.15037508493521        2.00876585100940
C            3.34754591301576       -0.16609916409809        1.78198055027474
C            2.85036163065152        0.01592952106815        0.49468492068576
C            1.39146115875282        0.00688325935393        0.24280745922712
C            0.68262733212905       -1.20196191887317        0.28227573103280
C            1.33017929518195       -2.43944305585935        0.54032623438012
C            0.63501625173917       -3.60915873115240        0.56449003206694
C           -0.75357627012908       -3.61607435296434        0.32103578987369
C           -1.41071572743023       -2.45320871618743        0.06008419238124
C           -0.72625737781408       -1.20890745506410        0.03641576615530
C           -1.39133537356838       -0.00676159168221       -0.24269298990779
C           -2.85027363726754       -0.01583524065562       -0.49454078857853
C           -3.34742682985366        0.16540760571505       -1.78196190291826
C           -4.71160843534553        0.14942438128187       -2.00876305745290
C           -5.59134731608109       -0.04470006716936       -0.95765272833254
C           -5.11016921029043       -0.22047184287788        0.33328562515300
C           -6.06258323587348       -0.44180726156493        1.48437708354740
O           -7.34014710085605        0.12559961411166        1.29148152311818
C           -3.74030611386828       -0.20447274422243        0.55625153161285
C           -0.68248742452247        1.20207290028560       -0.28221922747901
C           -1.33006075285979        2.43952469321363       -0.54039285443020
C           -0.63492826433859        3.60925385529510       -0.56451512412163
C            0.75364065480255        3.61619711188616       -0.32091478309653
C            1.41079672995637        2.45334680534577       -0.05991839226541
C            0.72638950174802        1.20902292120626       -0.03630535151879
C            3.74039424551302        0.20520461224279       -0.55599533405961
H            7.22932417082358       -1.07393317381298       -1.13539356989029
H            6.24522373421914        1.51695828651314       -1.60553747258335
H            5.61147167319760        0.06961962146663       -2.41518905535106
H            6.65766871947232        0.06422446236979        1.13215518691080
H            5.09315410853658       -0.28789852167434        3.01015462061575
H            2.65870980790693       -0.31348636718408        2.60129880578790
H            2.39611283109717       -2.43502190036250        0.71444134335131
H            1.14215293305612       -4.54235796180078        0.76303178768974
H           -1.28903265901346       -4.55440139839715        0.33583088079253
H           -2.47214639059078       -2.46022235390669       -0.13935464379628
H           -2.65857013991847        0.31235484807796       -2.60134147625947
H           -5.09301583304680        0.28630679661562       -3.01023915791357
H           -6.65752177400639       -0.06494183581761       -1.13211811303925
H           -6.24255297213308       -1.51600276382832        1.60847591203157
H           -5.61236821338858       -0.06528906790080        2.41486412952397
H           -7.23251601618954        1.07151269937621        1.13196830242349
H           -3.35609758430693       -0.33924178464549        1.55793069387742
H           -2.39597559469218        2.43503650857871       -0.71463641426483
H           -1.14206336829187        4.54243489182637       -0.76314318948953
H            1.28906826145743        4.55454199574289       -0.33565482665027
H            2.47221328662716        2.46040728717503        0.13958780240167
H            3.35619469031129        0.34054186398910       -1.55760331704221

          :  Hamiltonian                  GFN2-xTB          :
         :: gradient norm              0.000112092054 Eh/a0 ::
         :: HOMO-LUMO gap              2.150098387795 eV    ::
         :: SCC energy               -80.706689727484 Eh    ::
         :: -> dispersion             -0.066247175792 Eh    ::
         :: -> Gsolv                  -0.033109917246 Eh    ::
         :: repulsion energy           1.383510795857 Eh    ::

    * Orbital Energies and Occupations

         #    Occupation            Energy/Eh            Energy/eV
      -------------------------------------------------------------
         1        2.0000           -0.6949111             -18.9095
       ...           ...                  ...                  ...
        61        2.0000           -0.4274384             -11.6312
        62        2.0000           -0.4263096             -11.6005
        63        2.0000           -0.4190418             -11.4027
        64        2.0000           -0.4159942             -11.3198
        65        2.0000           -0.4157482             -11.3131
        66        2.0000           -0.4066809             -11.0664
        67        2.0000           -0.4045001             -11.0070
        68        2.0000           -0.4037576             -10.9868
        69        2.0000           -0.4006403             -10.9020
        70        2.0000           -0.3992643             -10.8645
        71        2.0000           -0.3982800             -10.8378
        72        2.0000           -0.3955877             -10.7645
        73        2.0000           -0.3590095              -9.7691 (HOMO)
        74                         -0.2799948              -7.6190 (LUMO)
        75                         -0.2317251              -6.3056
        76                         -0.2270747              -6.1790
        77                         -0.2265046              -6.1635
        78                         -0.2262968              -6.1578
        79                         -0.2259452              -6.1483
        80                         -0.2204127              -5.9977
        81                         -0.1761709              -4.7939
        82                         -0.1727105              -4.6997
        83                         -0.0998055              -2.7158
        84                         -0.0991832              -2.6989
       ...                                ...                  ...
       142                          0.7139049              19.4263
      -------------------------------------------------------------
                  HL-Gap            0.0790147 Eh            2.1501 eV

     #   Z          covCN         q      C6AA      α(0)
     1   8 O        1.655    -0.457    21.998     6.331
     2   6 C        3.679     0.079    19.473     6.321
     3   6 C        2.966    -0.006    28.173     8.706
     4   6 C        2.923    -0.037    28.924     8.820
     5   6 C        2.917    -0.031    28.779     8.797
     6   6 C        2.924    -0.035    28.878     8.813
     7   6 C        2.976     0.017    27.629     8.622
     8   6 C        2.977    -0.006    28.175     8.707
     9   6 C        2.983     0.006    27.890     8.663
    10   6 C        2.917    -0.035    28.878     8.812
    11   6 C        2.914    -0.031    28.773     8.796
    12   6 C        2.914    -0.031    28.774     8.796
    13   6 C        2.917    -0.035    28.877     8.812
    14   6 C        2.983     0.006    27.892     8.663
    15   6 C        2.977    -0.006    28.175     8.707
    16   6 C        2.976     0.017    27.629     8.622
    17   6 C        2.924    -0.035    28.878     8.813
    18   6 C        2.917    -0.031    28.779     8.797
    19   6 C        2.923    -0.037    28.924     8.820
    20   6 C        2.966    -0.006    28.173     8.706
    21   6 C        3.679     0.079    19.473     6.321
    22   8 O        1.655    -0.457    21.998     6.331
    23   6 C        2.928    -0.043    29.073     8.842
    24   6 C        2.983     0.006    27.890     8.663
    25   6 C        2.917    -0.035    28.878     8.812
    26   6 C        2.914    -0.031    28.773     8.796
    27   6 C        2.914    -0.031    28.774     8.796
    28   6 C        2.917    -0.035    28.877     8.812
    29   6 C        2.983     0.006    27.892     8.663
    30   6 C        2.928    -0.043    29.072     8.842
    31   1 H        0.805     0.298     0.727     1.339
    32   1 H        0.924     0.053     2.282     2.363
    33   1 H        0.923     0.028     2.617     2.530
    34   1 H        0.926     0.042     2.428     2.437
    35   1 H        0.926     0.035     2.516     2.480
    36   1 H        0.926     0.033     2.549     2.497
    37   1 H        0.926     0.032     2.560     2.502
    38   1 H        0.926     0.030     2.580     2.512
    39   1 H        0.926     0.030     2.581     2.512
    40   1 H        0.926     0.031     2.565     2.505
    41   1 H        0.926     0.033     2.549     2.497
    42   1 H        0.926     0.035     2.516     2.480
    43   1 H        0.926     0.042     2.428     2.437
    44   1 H        0.924     0.053     2.282     2.362
    45   1 H        0.923     0.028     2.617     2.530
    46   1 H        0.805     0.298     0.727     1.339
    47   1 H        0.925     0.030     2.582     2.513
    48   1 H        0.926     0.032     2.560     2.502
    49   1 H        0.926     0.030     2.580     2.512
    50   1 H        0.926     0.030     2.581     2.512
    51   1 H        0.926     0.031     2.565     2.505
    52   1 H        0.925     0.030     2.582     2.513

molecular dipole:
                 x           y           z       tot (Debye)
 q only:       -0.001       0.001      -0.000
   full:       -0.001       0.001      -0.001       0.004

 projected vibrational frequencies (cm⁻¹)
eigval :       -0.00    -0.00    -0.00     0.00     0.00     0.00
eigval :       15.42    19.16    19.45    41.93    43.94    57.54
eigval :       63.53    73.55    74.18   104.62   146.52   161.20
eigval :      167.39   187.15   190.97   199.06   210.97   232.95
eigval :      239.77   243.25   260.54   331.16   331.31   367.17
eigval :      384.53   386.47   394.27   401.17   410.02   416.43
eigval :      423.58   445.19   455.50   459.00   491.81   518.45
eigval :      562.05   575.69   590.63   592.90   598.65   618.69
eigval :      625.41   625.46   669.64   671.51   682.22   692.29
eigval :      712.64   738.69   772.56   774.97   788.80   791.42
eigval :      809.36   834.53   872.83   874.45   889.03   889.87
eigval :      896.96   904.06   906.79   917.22   917.47   927.14
eigval :      927.27   929.93   930.80   932.47   946.61   946.70
eigval :      961.73   971.76   993.43  1004.98  1073.40  1074.96
eigval :     1079.98  1080.88  1130.04  1132.36  1134.13  1140.47
eigval :     1148.60  1149.78  1171.03  1179.63  1183.90  1184.65
eigval :     1189.42  1191.50  1227.91  1234.99  1248.92  1259.07
eigval :     1261.37  1262.52  1265.06  1295.41  1295.46  1313.97
eigval :     1314.41  1326.85  1332.90  1333.16  1348.91  1369.94
eigval :     1383.55  1415.92  1426.83  1429.83  1431.19  1445.16
eigval :     1455.35  1456.66  1465.48  1480.15  1490.69  1525.48
eigval :     1529.87  1541.72  1580.96  1581.34  1596.71  1596.91
eigval :     1607.21  1621.55  2866.44  2866.52  2934.91  2934.99
eigval :     3069.08  3069.12  3070.24  3070.40  3071.36  3071.39
eigval :     3075.57  3075.58  3079.67  3079.81  3085.25  3085.41
eigval :     3087.69  3087.70  3089.89  3091.72  3525.48  3525.64

   temp. (K)  partition function   enthalpy   heat capacity  entropy
                                   cal/mol     cal/K/mol   cal/K/mol   J/K/mol
 298.15  VIB  0.138E+12            14447.264     90.735     89.787
         ROT  0.199E+08              888.752      2.981     36.376
         INT  0.273E+19            15336.016     93.716    126.163
         TR   0.747E+28             1481.254      4.968     43.759
         TOT                       16817.2700    98.6837   169.9216   710.9520

       T/K    H(0)-H(T)+PV         H(T)/Eh          T*S/Eh         G(T)/Eh
   ------------------------------------------------------------------------
    298.15    0.268000E-01    0.432657E+00    0.807352E-01    0.351922E+00
   ------------------------------------------------------------------------

         :::::::::::::::::::::::::::::::::::::::::::::::::::::
         ::                  THERMODYNAMIC                  ::
         :::::::::::::::::::::::::::::::::::::::::::::::::::::
         :: total free energy         -78.971256783098 Eh   ::
         ::.................................................::
         :: total energy              -79.323178927263 Eh   ::
         :: zero point energy           0.405857354664 Eh   ::
         :: G(RRHO) w/o ZPVE           -0.053935210499 Eh   ::
         :: G(RRHO) contrib.            0.351922144164 Eh   ::
         :::::::::::::::::::::::::::::::::::::::::::::::::::::

           -------------------------------------------------
          | TOTAL ENERGY              -79.323178927263 Eh   |
          | TOTAL ENTHALPY            -78.890521546905 Eh   |
          | TOTAL FREE ENERGY         -78.971256783098 Eh   |
          | GRADIENT NORM               0.000111909025 Eh/α |
          | HOMO-LUMO GAP               2.150098285535 eV   |
           -------------------------------------------------

 * finished run on 2025/07/18 at 20:24:17.234
