   * xtb version 6.7.1 (edcfbbe) compiled by 'albert@albert-system' on 2024-07-22

   ID    Z sym.   atoms
    1    8 O      1, 22
    2    6 C      2-21, 23-30
    3    1 H      31-52

          program call               : xtb data2507/toluene/m-DHMPA/m-DHMPA_toluene_T1_crest.xyz --gfn 2 --uhf 2 --gbsa toluene --ohess vtight --parallel 40 --molden --ceasefiles --namespace data2507/toluene/m-DHMPA/m-DHMPA_toluene_T1_finalOpt
      * Solvation model:               GBSA
        Solvent                        toluene
        Solvent mass                       9.2140E+01 g/mol
          :  Hamiltonian                  GFN2-xTB          :
 * total energy  :   -79.2532519 Eh     change       -0.1745619E-08 Eh
 * total energy  :   -79.2532747 Eh     change       -0.2281779E-04 Eh
 * total energy  :   -79.2532836 Eh     change       -0.8858616E-05 Eh
 * total energy  :   -79.2532872 Eh     change       -0.3638824E-05 Eh
 * total energy  :   -79.2532916 Eh     change       -0.4374015E-05 Eh
 * total energy  :   -79.2532961 Eh     change       -0.4533421E-05 Eh
 * total energy  :   -79.2533024 Eh     change       -0.6293453E-05 Eh
 * total energy  :   -79.2533099 Eh     change       -0.7490955E-05 Eh
 * total energy  :   -79.2533141 Eh     change       -0.4160978E-05 Eh
 * total energy  :   -79.2533161 Eh     change       -0.1989655E-05 Eh
 * total energy  :   -79.2533210 Eh     change       -0.7939699E-06 Eh
 * total energy  :   -79.2533217 Eh     change       -0.7325783E-06 Eh
 * total energy  :   -79.2533223 Eh     change       -0.5912540E-06 Eh
 * total energy  :   -79.2533228 Eh     change       -0.5002280E-06 Eh
 * total energy  :   -79.2533233 Eh     change       -0.4913265E-06 Eh
 * total energy  :   -79.2533238 Eh     change       -0.4694662E-06 Eh
 * total energy  :   -79.2533242 Eh     change       -0.4415500E-06 Eh
 * total energy  :   -79.2533247 Eh     change       -0.4590808E-06 Eh
 * total energy  :   -79.2533247 Eh     change       -0.8562949E-08 Eh
   *** GEOMETRY OPTIMIZATION CONVERGED AFTER 22 ITERATIONS ***

 final structure:
================
52
 xtb: 6.7.1 (edcfbbe)
O            7.27976702172208       -0.71393105307325       -1.24972534868625
C            5.98230300039859       -1.26033742808609       -1.14798888723554
C            5.07619519546154       -0.51576565406675       -0.19599818497874
C            5.60668392281735        0.15124727128194        0.90254457659018
C            4.76833928929502        0.82990612439745        1.77209900994249
C            3.40455065025731        0.84940486607561        1.55624766102794
C            2.84900572150370        0.17683984497353        0.46289084343541
C            1.40559665249268        0.17995478501194        0.23179314983940
C            0.69942384600380       -1.05914683775896        0.14807528145735
C            1.33585089416188       -2.28490237133282        0.36240826876871
C            0.66056907850329       -3.49530043162644        0.20301254053002
C           -0.66271095474377       -3.49581935552650       -0.17871807327191
C           -1.33728113539362       -2.28584269114217       -0.34420509082162
C           -0.70027144621312       -1.05938543684365       -0.13556723364176
C           -1.40532394489363        0.17989547640458       -0.22545111961959
C           -2.84777870635891        0.17782475828475       -0.46258779717794
C           -3.39663388821593        0.84773510260438       -1.56097545003210
C           -4.75926404830787        0.82964836863059       -1.78404468413158
C           -5.60314272133347        0.15490268595947       -0.91683847796178
C           -5.07943248110690       -0.50934869003595        0.18662897662029
C           -5.99225139850212       -1.24953947458485        1.13563819672358
O           -7.28682068637937       -0.69553432782916        1.23421323018690
C           -3.71141328796960       -0.49601002731258        0.40435607886142
C           -0.70816411934403        1.41911953317321       -0.08693704224437
C           -1.37846192961249        2.64549286389406       -0.09406760713487
C           -0.68714764424434        3.85583270608233       -0.03365860583556
C            0.68850635622693        3.85574002558503        0.03169480315588
C            1.37956102221232        2.64540212784106        0.09495817448610
C            0.70898127807308        1.41915431901974        0.09091211946578
C            3.70705086516634       -0.50116322902315       -0.40633649390392
H            7.20080349435833        0.20912326393423       -1.52081370800165
H            5.51116012398859       -1.31778929523976       -2.14027496037990
H            6.13129281526355       -2.28422476946028       -0.78589773742873
H            6.67376462028806        0.13189986040668        1.06976925424667
H            5.18444522942155        1.34211587567385        2.62764080118824
H            2.75137786760822        1.35995468974756        2.24898533835182
H            2.37270102162228       -2.29981198495449        0.66143798638100
H            1.18667119397996       -4.42384267223835        0.36848695709733
H           -1.18931564287804       -4.42486380980678       -0.33973016654248
H           -2.37402853370465       -2.30168509654803       -0.64351219147035
H           -2.73905082403185        1.35537584059041       -2.25166894452878
H           -5.17000059641561        1.33989781499293       -2.64334605343069
H           -6.66939861568458        0.13669363470169       -1.08932028329951
H           -6.14641087789253       -2.27213125364171        0.77204300512268
H           -5.52418516676437       -1.31071361575250        2.12910879080425
H           -7.20355986513757        0.22570546509527        1.51004597429719
H           -3.30221956931386       -0.99413955292555        1.27224193277955
H           -2.45631102631739        2.66070354986616       -0.14457949635975
H           -1.23789810786896        4.78476740228282       -0.05047151550753
H            1.23947133132768        4.78458921893338        0.04610056574370
H            2.45741439854832        2.66048669718738        0.14518697491097
H            3.29238945962864       -1.00174335701982       -1.27020256158754

          :  Hamiltonian                  GFN2-xTB          :
         :: gradient norm              0.000061910875 Eh/a0 ::
         :: HOMO-LUMO gap              1.642383343068 eV    ::
         :: SCC energy               -80.617858417104 Eh    ::
         :: -> dispersion             -0.066469530078 Eh    ::
         :: -> Gsolv                  -0.032765072407 Eh    ::
         :: repulsion energy           1.364533736912 Eh    ::

    * Orbital Energies and Occupations

         #    Occupation            Energy/Eh            Energy/eV
      -------------------------------------------------------------
         1        2.0000           -0.6948284             -18.9072
       ...           ...                  ...                  ...
        62        2.0000           -0.4255958             -11.5811
        63        2.0000           -0.4187029             -11.3935
        64        2.0000           -0.4160546             -11.3214
        65        2.0000           -0.4156135             -11.3094
        66        2.0000           -0.4082036             -11.1078
        67        2.0000           -0.4051092             -11.0236
        68        2.0000           -0.4028339             -10.9617
        69        2.0000           -0.4013704             -10.9218
        70        2.0000           -0.4006599             -10.9025
        71        2.0000           -0.3957183             -10.7680
        72        2.0000           -0.3953117             -10.7570
        73        1.0000           -0.3507501              -9.5444
        74        1.0000           -0.2891111              -7.8671 (HOMO)
        75                         -0.2287546              -6.2247 (LUMO)
        76                         -0.2284044              -6.2152
        77                         -0.2280095              -6.2045
        78                         -0.2274546              -6.1894
        79                         -0.2255482              -6.1375
        80                         -0.2225033              -6.0546
        81                         -0.1763700              -4.7993
        82                         -0.1739553              -4.7336
        83                         -0.1016472              -2.7660
        84                         -0.0994608              -2.7065
        85                         -0.0975890              -2.6555
       ...                                ...                  ...
       142                          0.7069752              19.2378
      -------------------------------------------------------------
                  HL-Gap            0.0603565 Eh            1.6424 eV

     #   Z          covCN         q      C6AA      α(0)
     1   8 O        1.655    -0.457    21.996     6.331
     2   6 C        3.679     0.079    19.474     6.321
     3   6 C        2.965    -0.006    28.176     8.707
     4   6 C        2.923    -0.037    28.916     8.818
     5   6 C        2.916    -0.031    28.783     8.798
     6   6 C        2.923    -0.035    28.871     8.811
     7   6 C        2.973     0.016    27.641     8.624
     8   6 C        2.973    -0.011    28.281     8.723
     9   6 C        2.976     0.008    27.829     8.653
    10   6 C        2.921    -0.039    28.968     8.826
    11   6 C        2.913    -0.032    28.799     8.800
    12   6 C        2.913    -0.032    28.798     8.800
    13   6 C        2.921    -0.039    28.969     8.826
    14   6 C        2.976     0.008    27.829     8.653
    15   6 C        2.973    -0.011    28.281     8.723
    16   6 C        2.973     0.016    27.641     8.624
    17   6 C        2.924    -0.035    28.870     8.811
    18   6 C        2.916    -0.031    28.783     8.798
    19   6 C        2.923    -0.037    28.914     8.818
    20   6 C        2.965    -0.006    28.176     8.707
    21   6 C        3.679     0.079    19.474     6.321
    22   8 O        1.655    -0.457    21.996     6.331
    23   6 C        2.928    -0.043    29.071     8.842
    24   6 C        2.976     0.008    27.828     8.653
    25   6 C        2.921    -0.039    28.968     8.826
    26   6 C        2.913    -0.032    28.801     8.800
    27   6 C        2.913    -0.032    28.801     8.800
    28   6 C        2.921    -0.039    28.969     8.826
    29   6 C        2.976     0.008    27.828     8.653
    30   6 C        2.928    -0.043    29.071     8.842
    31   1 H        0.805     0.298     0.728     1.340
    32   1 H        0.923     0.028     2.622     2.532
    33   1 H        0.924     0.053     2.285     2.364
    34   1 H        0.926     0.042     2.428     2.437
    35   1 H        0.926     0.035     2.511     2.478
    36   1 H        0.926     0.035     2.513     2.479
    37   1 H        0.926     0.033     2.538     2.491
    38   1 H        0.926     0.031     2.579     2.511
    39   1 H        0.926     0.031     2.578     2.511
    40   1 H        0.926     0.033     2.537     2.491
    41   1 H        0.926     0.035     2.513     2.479
    42   1 H        0.926     0.035     2.511     2.478
    43   1 H        0.926     0.042     2.428     2.437
    44   1 H        0.924     0.053     2.285     2.364
    45   1 H        0.923     0.028     2.622     2.532
    46   1 H        0.805     0.298     0.728     1.340
    47   1 H        0.926     0.033     2.547     2.496
    48   1 H        0.926     0.034     2.534     2.489
    49   1 H        0.926     0.030     2.583     2.513
    50   1 H        0.926     0.030     2.583     2.513
    51   1 H        0.926     0.034     2.533     2.489
    52   1 H        0.926     0.033     2.548     2.496

molecular dipole:
                 x           y           z       tot (Debye)
 q only:        0.002       0.618       0.003
   full:        0.002       0.820       0.004       2.084

 projected vibrational frequencies (cm⁻¹)
eigval :       -0.00    -0.00     0.00     0.00     0.00     0.00
eigval :       16.95    24.62    37.20    43.71    47.56    53.22
eigval :       70.15    76.03    80.82   116.36   145.15   161.70
eigval :      176.16   189.26   190.88   194.22   230.78   240.24
eigval :      242.39   263.14   264.85   334.32   335.41   354.19
eigval :      373.22   376.68   393.00   395.43   406.21   413.72
eigval :      419.49   426.63   437.46   468.63   487.87   514.87
eigval :      561.98   571.11   573.15   581.38   598.81   601.24
eigval :      615.93   629.45   662.10   669.06   673.19   678.85
eigval :      712.86   717.50   745.81   759.38   787.38   792.04
eigval :      805.21   829.35   842.30   848.34   880.81   885.47
eigval :      891.58   892.24   901.55   902.74   904.17   907.71
eigval :      909.62   929.02   929.48   942.65   945.42   945.77
eigval :      963.09   972.51   990.50  1000.59  1072.18  1074.15
eigval :     1099.13  1101.80  1109.98  1122.84  1130.88  1133.19
eigval :     1147.87  1148.23  1170.20  1171.09  1178.36  1180.34
eigval :     1187.90  1188.22  1219.56  1224.04  1227.76  1252.09
eigval :     1259.74  1262.42  1273.12  1293.29  1296.92  1297.79
eigval :     1301.02  1315.37  1316.99  1330.63  1330.82  1340.30
eigval :     1366.10  1371.70  1376.58  1406.20  1421.84  1423.92
eigval :     1423.99  1453.32  1453.65  1460.89  1461.46  1479.89
eigval :     1479.99  1517.45  1527.80  1557.15  1561.73  1562.12
eigval :     1579.16  1580.07  2867.90  2868.54  2933.20  2933.28
eigval :     3070.75  3070.95  3071.59  3071.74  3072.19  3073.03
eigval :     3081.22  3081.75  3082.32  3082.53  3089.55  3089.69
eigval :     3093.49  3093.99  3096.34  3098.03  3526.10  3526.68

   temp. (K)  partition function   enthalpy   heat capacity  entropy
                                   cal/mol     cal/K/mol   cal/K/mol   J/K/mol
 298.15  VIB  0.385E+11            14448.070     92.014     88.924
         ROT  0.100E+08              888.752      2.981     35.020
         INT  0.387E+18            15336.822     94.995    123.945
         TR   0.747E+28             1481.254      4.968     43.759
         TOT                       16818.0762    99.9630   167.7031   701.6699

       T/K    H(0)-H(T)+PV         H(T)/Eh          T*S/Eh         G(T)/Eh
   ------------------------------------------------------------------------
    298.15    0.268013E-01    0.430383E+00    0.796812E-01    0.350702E+00
   ------------------------------------------------------------------------

         :::::::::::::::::::::::::::::::::::::::::::::::::::::
         ::                  THERMODYNAMIC                  ::
         :::::::::::::::::::::::::::::::::::::::::::::::::::::
         :: total free energy         -78.902622610097 Eh   ::
         ::.................................................::
         :: total energy              -79.253324679034 Eh   ::
         :: zero point energy           0.403581923222 Eh   ::
         :: G(RRHO) w/o ZPVE           -0.052879854285 Eh   ::
         :: G(RRHO) contrib.            0.350702068937 Eh   ::
         :::::::::::::::::::::::::::::::::::::::::::::::::::::

           -------------------------------------------------
          | TOTAL ENERGY              -79.253324679034 Eh   |
          | TOTAL ENTHALPY            -78.822941445439 Eh   |
          | TOTAL FREE ENERGY         -78.902622610097 Eh   |
          | GRADIENT NORM               0.000061844019 Eh/α |
          | HOMO-LUMO GAP               1.642382753209 eV   |
           -------------------------------------------------

 * finished run on 2025/07/18 at 20:28:55.917
