   * xtb version 6.7.1 (edcfbbe) compiled by 'albert@albert-system' on 2024-07-22

   ID    Z sym.   atoms
    1    8 O      1, 22
    2    6 C      2-21, 23-30
    3    1 H      31-52

          program call               : xtb data2507/toluene/m-DHMPA/m-DHMPA_toluene_S0_crest.xyz --gfn 2 --gbsa toluene --ohess vtight --parallel 40 --molden --ceasefiles --namespace data2507/toluene/m-DHMPA/m-DHMPA_toluene_S0_finalOpt
      * Solvation model:               GBSA
        Solvent                        toluene
        Solvent mass                       9.2140E+01 g/mol
          :  Hamiltonian                  GFN2-xTB          :
 * total energy  :   -79.3231157 Eh     change       -0.5184120E-09 Eh
 * total energy  :   -79.3231361 Eh     change       -0.2035390E-04 Eh
 * total energy  :   -79.3231434 Eh     change       -0.7363482E-05 Eh
 * total energy  :   -79.3231469 Eh     change       -0.3467266E-05 Eh
 * total energy  :   -79.3231535 Eh     change       -0.6589390E-05 Eh
 * total energy  :   -79.3231612 Eh     change       -0.7723711E-05 Eh
 * total energy  :   -79.3231728 Eh     change       -0.1156439E-04 Eh
 * total energy  :   -79.3231809 Eh     change       -0.8065176E-05 Eh
 * total energy  :   -79.3231845 Eh     change       -0.3618247E-05 Eh
 * total energy  :   -79.3231875 Eh     change       -0.3042188E-05 Eh
 * total energy  :   -79.3232057 Eh     change       -0.1016509E-06 Eh
 * total energy  :   -79.3232058 Eh     change       -0.1062060E-06 Eh
 * total energy  :   -79.3232059 Eh     change       -0.1412263E-06 Eh
 * total energy  :   -79.3232061 Eh     change       -0.2146342E-06 Eh
 * total energy  :   -79.3232064 Eh     change       -0.2947247E-06 Eh
 * total energy  :   -79.3232067 Eh     change       -0.3091487E-06 Eh
 * total energy  :   -79.3232070 Eh     change       -0.2531908E-06 Eh
 * total energy  :   -79.3232072 Eh     change       -0.2005755E-06 Eh
 * total energy  :   -79.3232072 Eh     change       -0.1059163E-08 Eh
   *** GEOMETRY OPTIMIZATION CONVERGED AFTER 44 ITERATIONS ***

 final structure:
================
52
 xtb: 6.7.1 (edcfbbe)
O            7.35337674887252       -0.12918101481560       -1.23822815429140
C            6.07032941210193       -0.70614862132712       -1.34969256994682
C            5.11196920835784       -0.29142081342607       -0.25845487944198
C            5.58573723448837        0.07455925778969        0.99475051304063
C            4.70099443131917        0.44390711801269        1.99342155419309
C            3.33939084667110        0.44782942889847        1.75140960019444
C            2.84929392042506        0.07846654315350        0.50176943111613
C            1.39215077487419        0.07600771888786        0.24054672386128
C            0.70677448068724       -1.14181709316045        0.12645908727885
C            1.37126825276808       -2.38937282370468        0.26661052896021
C            0.69935507905728       -3.56595279553416        0.13871082173473
C           -0.68240954996259       -3.56896491319831       -0.14094338863475
C           -1.35975005532092       -2.39534905241705       -0.26745682891141
C           -0.70100899197760       -1.14489149068799       -0.12599560975439
C           -1.39189275292711        0.06992871087203       -0.23922214394313
C           -2.84893958171322        0.06557221195978       -0.50086701335302
C           -3.34048245957351        0.43441938119700       -1.75011504892954
C           -4.70187674058262        0.42292616718280       -1.99293729758236
C           -5.58505894683563        0.04656905287199       -0.99547834747697
C           -5.10992027989701       -0.31870077273700        0.25738494460915
C           -6.06610384117334       -0.74138348915524        1.34749458969655
O           -7.35493136026999       -0.17825631763184        1.23273403521722
C           -3.74269072650034       -0.30636254267322        0.49655207329540
C           -0.70805692946326        1.28761815523972       -0.11598310947760
C           -1.38169348559854        2.53519133004174       -0.20075538315835
C           -0.70597929575061        3.71194403431140       -0.09611855012816
C            0.69019119689625        3.71497789791723        0.09917067320694
C            1.37103560812992        2.54115249481640        0.20334941332889
C            0.70286555801875        1.29068358538484        0.11800327328671
C            3.74457955463981       -0.28660054120690       -0.49682879962388
H            7.25626637508566        0.83118571004141       -1.23649953082569
H            5.63225359097559       -0.48015171403089       -2.33310028102436
H            6.23800050073474       -1.78815855396607       -1.29684535811159
H            6.64997842578522        0.06368371820503        1.18151633321950
H            5.07638014250418        0.72791572673534        2.96582879722845
H            2.64617185836026        0.73160398224438        2.53024421914391
H            2.42985239132854       -2.38715408693055        0.48066578962019
H            1.21947510746850       -4.50663969955204        0.24791012885839
H           -1.19820736041888       -4.51189581730625       -0.25128830983195
H           -2.41834784311307       -2.39783645401719       -0.48145028840562
H           -2.64848114146869        0.72348574262229       -2.52808137519616
H           -5.07834824672581        0.70628805265133       -2.96511363352592
H           -6.64905860191899        0.02939150361557       -1.18315160062281
H           -6.22215614550537       -1.82521546561533        1.29632711057429
H           -5.63221821330565       -0.50903230853905        2.33130052907686
H           -7.26796722188770        0.78308295835360        1.22946056633225
H           -3.36484629481519       -0.58827192736450        1.46960025993822
H           -2.45109403977007        2.53259757955704       -0.35182063214206
H           -1.23309587000867        4.65274486601312       -0.16315753794605
H            1.21318524257355        4.65804709915117        0.16665699496630
H            2.44042248121205        2.54314635044249        0.35450577488050
H            3.36772524494782       -0.56885992736844       -1.47016200257178

          :  Hamiltonian                  GFN2-xTB          :
         :: gradient norm              0.000022077868 Eh/a0 ::
         :: HOMO-LUMO gap              2.145411309325 eV    ::
         :: SCC energy               -80.706444312009 Eh    ::
         :: -> dispersion             -0.066277424766 Eh    ::
         :: -> Gsolv                  -0.033115963041 Eh    ::
         :: repulsion energy           1.383237133230 Eh    ::

    * Orbital Energies and Occupations

         #    Occupation            Energy/Eh            Energy/eV
      -------------------------------------------------------------
         1        2.0000           -0.6949224             -18.9098
       ...           ...                  ...                  ...
        61        2.0000           -0.4273519             -11.6288
        62        2.0000           -0.4259301             -11.5901
        63        2.0000           -0.4194235             -11.4131
        64        2.0000           -0.4159892             -11.3196
        65        2.0000           -0.4157847             -11.3141
        66        2.0000           -0.4066678             -11.0660
        67        2.0000           -0.4054372             -11.0325
        68        2.0000           -0.4025647             -10.9543
        69        2.0000           -0.4014310             -10.9235
        70        2.0000           -0.3992705             -10.8647
        71        2.0000           -0.3977710             -10.8239
        72        2.0000           -0.3953534             -10.7581
        73        2.0000           -0.3589376              -9.7672 (HOMO)
        74                         -0.2800952              -7.6218 (LUMO)
        75                         -0.2317352              -6.3058
        76                         -0.2271228              -6.1803
        77                         -0.2264259              -6.1614
        78                         -0.2263804              -6.1601
        79                         -0.2259672              -6.1489
        80                         -0.2203557              -5.9962
        81                         -0.1760218              -4.7898
        82                         -0.1725549              -4.6955
        83                         -0.0995251              -2.7082
        84                         -0.0991736              -2.6987
       ...                                ...                  ...
       142                          0.7139089              19.4264
      -------------------------------------------------------------
                  HL-Gap            0.0788424 Eh            2.1454 eV

     #   Z          covCN         q      C6AA      α(0)
     1   8 O        1.655    -0.457    21.998     6.331
     2   6 C        3.679     0.079    19.473     6.321
     3   6 C        2.966    -0.006    28.175     8.707
     4   6 C        2.923    -0.037    28.921     8.819
     5   6 C        2.917    -0.031    28.779     8.797
     6   6 C        2.924    -0.035    28.875     8.812
     7   6 C        2.976     0.017    27.630     8.622
     8   6 C        2.977    -0.006    28.177     8.707
     9   6 C        2.983     0.006    27.890     8.663
    10   6 C        2.917    -0.035    28.880     8.813
    11   6 C        2.914    -0.031    28.771     8.796
    12   6 C        2.914    -0.031    28.771     8.796
    13   6 C        2.917    -0.035    28.881     8.813
    14   6 C        2.983     0.006    27.890     8.663
    15   6 C        2.977    -0.006    28.177     8.707
    16   6 C        2.976     0.017    27.630     8.622
    17   6 C        2.924    -0.035    28.876     8.812
    18   6 C        2.917    -0.031    28.779     8.797
    19   6 C        2.923    -0.037    28.922     8.819
    20   6 C        2.966    -0.006    28.175     8.707
    21   6 C        3.679     0.079    19.473     6.321
    22   8 O        1.655    -0.457    21.998     6.331
    23   6 C        2.928    -0.043    29.072     8.842
    24   6 C        2.983     0.006    27.892     8.663
    25   6 C        2.917    -0.035    28.877     8.812
    26   6 C        2.914    -0.031    28.778     8.797
    27   6 C        2.914    -0.031    28.778     8.797
    28   6 C        2.917    -0.035    28.877     8.812
    29   6 C        2.983     0.006    27.892     8.663
    30   6 C        2.928    -0.043    29.072     8.842
    31   1 H        0.805     0.298     0.727     1.339
    32   1 H        0.923     0.028     2.618     2.530
    33   1 H        0.924     0.053     2.283     2.363
    34   1 H        0.926     0.042     2.428     2.437
    35   1 H        0.926     0.035     2.516     2.480
    36   1 H        0.926     0.033     2.549     2.497
    37   1 H        0.926     0.032     2.562     2.503
    38   1 H        0.926     0.031     2.579     2.511
    39   1 H        0.926     0.031     2.579     2.511
    40   1 H        0.926     0.032     2.562     2.503
    41   1 H        0.926     0.033     2.549     2.497
    42   1 H        0.926     0.035     2.516     2.480
    43   1 H        0.926     0.042     2.428     2.437
    44   1 H        0.924     0.053     2.283     2.363
    45   1 H        0.923     0.028     2.617     2.530
    46   1 H        0.805     0.298     0.727     1.339
    47   1 H        0.925     0.030     2.579     2.511
    48   1 H        0.926     0.032     2.562     2.503
    49   1 H        0.926     0.030     2.583     2.513
    50   1 H        0.926     0.030     2.583     2.513
    51   1 H        0.926     0.032     2.562     2.503
    52   1 H        0.925     0.030     2.579     2.511

molecular dipole:
                 x           y           z       tot (Debye)
 q only:       -0.004       0.603       0.001
   full:       -0.005       0.836       0.001       2.124

 projected vibrational frequencies (cm⁻¹)
eigval :       -0.00    -0.00    -0.00    -0.00     0.00     0.00
eigval :       11.89    15.19    21.23    29.61    39.87    52.77
eigval :       68.44    70.67    73.42   112.58   150.84   159.23
eigval :      167.15   185.28   190.73   197.11   213.16   234.43
eigval :      235.38   250.31   256.27   330.66   332.24   365.69
eigval :      383.54   387.00   394.82   401.63   411.21   411.90
eigval :      423.88   447.85   456.49   458.18   486.95   522.13
eigval :      563.35   574.97   589.44   591.55   604.63   613.23
eigval :      622.00   637.40   667.29   672.93   682.91   692.75
eigval :      712.73   742.05   774.47   775.66   787.77   793.08
eigval :      808.83   834.82   875.25   878.23   886.21   887.42
eigval :      896.65   904.21   906.04   917.84   921.37   926.71
eigval :      929.15   930.64   932.09   933.29   944.57   945.31
eigval :      960.93   971.15   993.42  1004.87  1072.80  1074.30
eigval :     1079.62  1080.64  1126.58  1128.12  1133.47  1138.06
eigval :     1147.62  1149.21  1169.15  1179.07  1182.01  1182.72
eigval :     1186.92  1189.71  1226.97  1234.21  1247.17  1258.45
eigval :     1259.37  1261.61  1264.87  1295.24  1295.28  1313.72
eigval :     1314.46  1326.18  1331.89  1332.80  1348.29  1368.79
eigval :     1383.04  1415.12  1426.73  1428.20  1431.57  1444.80
eigval :     1453.89  1455.24  1464.51  1478.73  1489.90  1525.21
eigval :     1530.08  1541.11  1580.42  1580.70  1596.36  1596.58
eigval :     1606.65  1620.98  2866.42  2867.16  2934.54  2934.70
eigval :     3068.61  3069.48  3069.80  3070.02  3070.97  3071.20
eigval :     3075.40  3076.43  3078.85  3079.12  3085.79  3087.22
eigval :     3087.44  3087.54  3090.44  3092.60  3525.68  3525.89

   temp. (K)  partition function   enthalpy   heat capacity  entropy
                                   cal/mol     cal/K/mol   cal/K/mol   J/K/mol
 298.15  VIB  0.303E+12            14470.977     90.374     90.115
         ROT  0.995E+07              888.752      2.981     35.001
         INT  0.302E+19            15359.729     93.355    125.117
         TR   0.747E+28             1481.254      4.968     43.759
         TOT                       16840.9833    98.3232   168.8754   706.5746

       T/K    H(0)-H(T)+PV         H(T)/Eh          T*S/Eh         G(T)/Eh
   ------------------------------------------------------------------------
    298.15    0.268378E-01    0.432583E+00    0.802381E-01    0.352344E+00
   ------------------------------------------------------------------------

         :::::::::::::::::::::::::::::::::::::::::::::::::::::
         ::                  THERMODYNAMIC                  ::
         :::::::::::::::::::::::::::::::::::::::::::::::::::::
         :: total free energy         -78.970862733750 Eh   ::
         ::.................................................::
         :: total energy              -79.323207178234 Eh   ::
         :: zero point energy           0.405744767710 Eh   ::
         :: G(RRHO) w/o ZPVE           -0.053400323226 Eh   ::
         :: G(RRHO) contrib.            0.352344444484 Eh   ::
         :::::::::::::::::::::::::::::::::::::::::::::::::::::

           -------------------------------------------------
          | TOTAL ENERGY              -79.323207178234 Eh   |
          | TOTAL ENTHALPY            -78.890624595291 Eh   |
          | TOTAL FREE ENERGY         -78.970862733750 Eh   |
          | GRADIENT NORM               0.000022087173 Eh/α |
          | HOMO-LUMO GAP               2.145411307581 eV   |
           -------------------------------------------------

 * finished run on 2025/07/18 at 20:26:51.837
