   * xtb version 6.7.1 (edcfbbe) compiled by 'albert@albert-system' on 2024-07-22

   ID    Z sym.   atoms
    1    8 O      1, 22
    2    6 C      2-21, 23-30
    3    1 H      31-52

          program call               : xtb data2507/toluene/m-DHMPA/m-DHMPA_toluene_S0_finalOpt.xtbopt.xyz --gfn 2 --uhf 2 --gbsa toluene --ohess vtight --parallel 40 --molden --ceasefiles --namespace data2507/toluene/m-DHMPA/m-DHMPA_toluene_T1_preOpt
      * Solvation model:               GBSA
        Solvent                        toluene
        Solvent mass                       9.2140E+01 g/mol
          :  Hamiltonian                  GFN2-xTB          :
 * total energy  :   -79.2441885 Eh     change       -0.1293898E-09 Eh
 * total energy  :   -79.2503481 Eh     change       -0.6159591E-02 Eh
 * total energy  :   -79.2517012 Eh     change       -0.1353182E-02 Eh
 * total energy  :   -79.2518073 Eh     change       -0.1060507E-03 Eh
 * total energy  :   -79.2518886 Eh     change       -0.8131023E-04 Eh
 * total energy  :   -79.2519307 Eh     change       -0.4214097E-04 Eh
 * total energy  :   -79.2519876 Eh     change       -0.5681909E-04 Eh
 * total energy  :   -79.2520695 Eh     change       -0.8192154E-04 Eh
 * total energy  :   -79.2521724 Eh     change       -0.1029488E-03 Eh
 * total energy  :   -79.2522807 Eh     change       -0.1082241E-03 Eh
 * total energy  :   -79.2533190 Eh     change       -0.1460685E-05 Eh
 * total energy  :   -79.2533209 Eh     change       -0.1989129E-05 Eh
 * total energy  :   -79.2533232 Eh     change       -0.2287392E-05 Eh
 * total energy  :   -79.2533245 Eh     change       -0.1269872E-05 Eh
 * total energy  :   -79.2533250 Eh     change       -0.5372076E-06 Eh
 * total energy  :   -79.2533254 Eh     change       -0.3666942E-06 Eh
 * total energy  :   -79.2533256 Eh     change       -0.1545423E-06 Eh
 * total energy  :   -79.2533259 Eh     change       -0.3645641E-06 Eh
 * total energy  :   -79.2533260 Eh     change       -0.8681795E-07 Eh
   *** GEOMETRY OPTIMIZATION CONVERGED AFTER 46 ITERATIONS ***

 final structure:
================
52
 xtb: 6.7.1 (edcfbbe)
O            7.28972097294505       -0.65132805029941       -1.22029333980733
C            6.00040906731838       -1.21748077817698       -1.12058938451724
C            5.08177774538176       -0.48514833586684       -0.17114812355329
C            5.60038842385534        0.17742799085144        0.93576228058955
C            4.75206181033591        0.84608256931296        1.80326613855500
C            3.38987263929758        0.85982732304819        1.57695579158904
C            2.84619158024785        0.19144319638944        0.47518448951453
C            1.40420872789070        0.18969488186215        0.23415969766265
C            0.70256995467689       -1.05137636020531        0.14290941503120
C            1.34250458292298       -2.27591541591676        0.35370456769624
C            0.67114336492386       -3.48783213470393        0.18911121654452
C           -0.65178765084952       -3.49117134591380       -0.19375771106687
C           -1.32973347128193       -2.28269292650328       -0.35665400058795
C           -0.69642154670170       -1.05497977504716       -0.14429471646821
C           -1.40473157911807        0.18239460618315       -0.23410425710842
C           -2.84668903550043        0.17666829691645       -0.47523297275325
C           -3.39382996162941        0.84319669146961       -1.57640748274752
C           -4.75592688943775        0.82253240100904       -1.80276575382179
C           -5.60077959043151        0.14875516299441       -0.93583760466000
C           -5.07871425835498       -0.51222607986221        0.17040869233015
C           -5.99355124154642       -1.25026546465759        1.11909104580375
O           -7.28546447481481       -0.69027613375524        1.21999029999975
C           -3.71120179319231       -0.49669491224553        0.39116257919965
C           -0.71169228761100        1.42343627481378       -0.09181856421747
C           -1.38533338724064        2.64796857447020       -0.10122669541601
C           -0.69773448397164        3.86014746473324       -0.03494413635744
C            0.67747089259304        3.86379564867367        0.03894453334710
C            1.37155280849686        2.65524931024265        0.10392569624617
C            0.70449053632111        1.42713500898756        0.09323464709087
C            3.71420446510218       -0.47650272563280       -0.39190579575221
H            7.19758335006450        0.26972964152691       -1.49397474630032
H            5.53229399399041       -1.28344789649540       -2.11372161909967
H            6.16452031515796       -2.23836248884241       -0.75659130871272
H            6.66636433178822        0.16293519652263        1.11030596625254
H            5.15886111233775        1.35490029288416        2.66528436884477
H            2.72874194746095        1.36287680792800        2.26761878672596
H            2.37906137527409       -2.28863888692872        0.65385037196340
H            1.19992644019589       -4.41532605939327        0.35191038159352
H           -1.17550144626818       -4.42130929650096       -0.35783870995010
H           -2.36621438989363       -2.30064159764484       -0.65679961871921
H           -2.73533260210901        1.35046311655566       -2.26650224252058
H           -5.16537410649117        1.33017985042375       -2.66421843795300
H           -6.66668282383834        0.12900581166868       -1.11031681712628
H           -6.15301722561903       -2.27139634350843        0.75372496928362
H           -5.52481766000510       -1.31540540759318        2.11198333724871
H           -7.19750989782839        0.23087181059323        1.49473785724146
H           -3.30314315691748       -0.99261981317423        1.26084490892120
H           -2.46290209131655        2.66027141692079       -0.15810994234292
H           -1.25094091910083        4.78758253196391       -0.05369703311266
H            1.22571480285838        4.79415202077116        0.05867670241714
H            2.44904127988689        2.67324569076189        0.16076968882445
H            3.30875648375913       -0.97362330811340       -1.26213049677318

          :  Hamiltonian                  GFN2-xTB          :
         :: gradient norm              0.000042407775 Eh/a0 ::
         :: HOMO-LUMO gap              1.641141232858 eV    ::
         :: SCC energy               -80.617857500636 Eh    ::
         :: -> dispersion             -0.066459852875 Eh    ::
         :: -> Gsolv                  -0.032775255914 Eh    ::
         :: repulsion energy           1.364531490379 Eh    ::

    * Orbital Energies and Occupations

         #    Occupation            Energy/Eh            Energy/eV
      -------------------------------------------------------------
         1        2.0000           -0.6947982             -18.9064
       ...           ...                  ...                  ...
        62        2.0000           -0.4256255             -11.5819
        63        2.0000           -0.4187071             -11.3936
        64        2.0000           -0.4160535             -11.3214
        65        2.0000           -0.4156243             -11.3097
        66        2.0000           -0.4082042             -11.1078
        67        2.0000           -0.4051207             -11.0239
        68        2.0000           -0.4029028             -10.9635
        69        2.0000           -0.4014158             -10.9231
        70        2.0000           -0.4006882             -10.9033
        71        2.0000           -0.3957995             -10.7703
        72        2.0000           -0.3953342             -10.7576
        73        1.0000           -0.3507916              -9.5455
        74        1.0000           -0.2890973              -7.8667 (HOMO)
        75                         -0.2287864              -6.2256 (LUMO)
        76                         -0.2284101              -6.2154
        77                         -0.2280310              -6.2050
        78                         -0.2274809              -6.1901
        79                         -0.2255889              -6.1386
        80                         -0.2225398              -6.0556
        81                         -0.1764567              -4.8016
        82                         -0.1739949              -4.7346
        83                         -0.1016799              -2.7669
        84                         -0.0994359              -2.7058
        85                         -0.0976979              -2.6585
       ...                                ...                  ...
       142                          0.7069509              19.2371
      -------------------------------------------------------------
                  HL-Gap            0.0603109 Eh            1.6411 eV

     #   Z          covCN         q      C6AA      α(0)
     1   8 O        1.655    -0.457    21.996     6.331
     2   6 C        3.679     0.079    19.474     6.321
     3   6 C        2.965    -0.006    28.176     8.707
     4   6 C        2.923    -0.037    28.913     8.818
     5   6 C        2.916    -0.031    28.782     8.798
     6   6 C        2.924    -0.035    28.869     8.811
     7   6 C        2.973     0.016    27.640     8.624
     8   6 C        2.973    -0.011    28.281     8.723
     9   6 C        2.976     0.008    27.829     8.653
    10   6 C        2.921    -0.039    28.969     8.826
    11   6 C        2.913    -0.032    28.798     8.800
    12   6 C        2.913    -0.032    28.798     8.800
    13   6 C        2.921    -0.039    28.969     8.826
    14   6 C        2.976     0.008    27.829     8.653
    15   6 C        2.973    -0.011    28.281     8.723
    16   6 C        2.973     0.016    27.640     8.624
    17   6 C        2.924    -0.035    28.869     8.811
    18   6 C        2.916    -0.031    28.782     8.798
    19   6 C        2.923    -0.037    28.913     8.818
    20   6 C        2.965    -0.006    28.176     8.707
    21   6 C        3.679     0.079    19.474     6.321
    22   8 O        1.655    -0.457    21.996     6.331
    23   6 C        2.928    -0.043    29.070     8.842
    24   6 C        2.976     0.008    27.828     8.653
    25   6 C        2.921    -0.039    28.969     8.826
    26   6 C        2.913    -0.032    28.801     8.800
    27   6 C        2.913    -0.032    28.801     8.800
    28   6 C        2.921    -0.039    28.969     8.826
    29   6 C        2.976     0.008    27.828     8.653
    30   6 C        2.928    -0.043    29.070     8.842
    31   1 H        0.805     0.298     0.728     1.340
    32   1 H        0.923     0.027     2.623     2.533
    33   1 H        0.924     0.053     2.285     2.364
    34   1 H        0.926     0.042     2.428     2.437
    35   1 H        0.926     0.035     2.510     2.478
    36   1 H        0.926     0.035     2.513     2.479
    37   1 H        0.926     0.033     2.538     2.491
    38   1 H        0.926     0.031     2.579     2.511
    39   1 H        0.926     0.031     2.579     2.511
    40   1 H        0.926     0.033     2.538     2.491
    41   1 H        0.926     0.035     2.513     2.479
    42   1 H        0.926     0.035     2.510     2.478
    43   1 H        0.926     0.042     2.428     2.437
    44   1 H        0.924     0.053     2.285     2.364
    45   1 H        0.923     0.027     2.623     2.533
    46   1 H        0.805     0.298     0.728     1.340
    47   1 H        0.926     0.033     2.547     2.496
    48   1 H        0.926     0.034     2.534     2.489
    49   1 H        0.926     0.030     2.583     2.513
    50   1 H        0.926     0.030     2.583     2.513
    51   1 H        0.926     0.034     2.534     2.489
    52   1 H        0.926     0.033     2.547     2.496

molecular dipole:
                 x           y           z       tot (Debye)
 q only:       -0.001       0.609       0.000
   full:       -0.002       0.809       0.000       2.056

 projected vibrational frequencies (cm⁻¹)
eigval :       -0.00    -0.00    -0.00    -0.00     0.00     0.00
eigval :       17.50    25.03    37.70    44.27    49.54    54.75
eigval :       70.92    76.62    80.86   116.59   145.35   161.69
eigval :      175.85   189.23   191.00   194.75   230.45   240.17
eigval :      242.77   263.32   264.96   334.74   335.86   354.56
eigval :      373.44   376.98   392.87   395.50   406.40   413.75
eigval :      419.42   426.39   437.52   468.43   487.94   514.81
eigval :      561.91   571.20   572.89   581.41   598.03   601.67
eigval :      616.06   629.90   662.11   669.23   673.08   679.09
eigval :      712.97   716.90   746.21   759.59   787.43   792.18
eigval :      805.45   829.53   843.54   848.29   881.89   886.13
eigval :      891.61   893.51   902.00   902.78   904.39   907.66
eigval :      909.73   928.93   929.35   942.65   945.85   946.02
eigval :      963.22   972.62   990.54  1000.67  1071.90  1073.91
eigval :     1099.63  1102.10  1110.05  1123.05  1130.91  1133.31
eigval :     1147.98  1148.31  1170.49  1171.42  1178.55  1180.73
eigval :     1188.30  1188.64  1219.76  1224.19  1228.19  1252.60
eigval :     1260.07  1262.75  1273.12  1293.30  1297.14  1297.87
eigval :     1301.14  1315.39  1316.97  1330.84  1330.98  1340.37
eigval :     1366.29  1371.69  1376.77  1406.18  1421.98  1424.07
eigval :     1424.14  1453.61  1453.89  1461.16  1461.73  1479.85
eigval :     1480.10  1517.40  1527.79  1557.23  1561.83  1562.21
eigval :     1579.36  1580.26  2868.71  2868.71  2933.36  2933.42
eigval :     3070.98  3071.14  3071.85  3072.14  3072.56  3073.08
eigval :     3081.58  3081.79  3082.44  3082.63  3089.80  3089.91
eigval :     3093.46  3093.97  3096.33  3098.03  3526.43  3526.45

   temp. (K)  partition function   enthalpy   heat capacity  entropy
                                   cal/mol     cal/K/mol   cal/K/mol   J/K/mol
 298.15  VIB  0.330E+11            14435.670     92.099     88.820
         ROT  0.100E+08              888.752      2.981     35.020
         INT  0.332E+18            15324.422     95.080    123.840
         TR   0.747E+28             1481.254      4.968     43.759
         TOT                       16805.6763   100.0481   167.5984   701.2316

       T/K    H(0)-H(T)+PV         H(T)/Eh          T*S/Eh         G(T)/Eh
   ------------------------------------------------------------------------
    298.15    0.267815E-01    0.430428E+00    0.796314E-01    0.350797E+00
   ------------------------------------------------------------------------

         :::::::::::::::::::::::::::::::::::::::::::::::::::::
         ::                  THERMODYNAMIC                  ::
         :::::::::::::::::::::::::::::::::::::::::::::::::::::
         :: total free energy         -78.902529156426 Eh   ::
         ::.................................................::
         :: total energy              -79.253326010025 Eh   ::
         :: zero point energy           0.403646703363 Eh   ::
         :: G(RRHO) w/o ZPVE           -0.052849849764 Eh   ::
         :: G(RRHO) contrib.            0.350796853599 Eh   ::
         :::::::::::::::::::::::::::::::::::::::::::::::::::::

           -------------------------------------------------
          | TOTAL ENERGY              -79.253326010025 Eh   |
          | TOTAL ENTHALPY            -78.822897756826 Eh   |
          | TOTAL FREE ENERGY         -78.902529156426 Eh   |
          | GRADIENT NORM               0.000042543801 Eh/α |
          | HOMO-LUMO GAP               1.641143883141 eV   |
           -------------------------------------------------

 * finished run on 2025/07/18 at 20:26:54.702
