   * xtb version 6.7.1 (edcfbbe) compiled by 'albert@albert-system' on 2024-07-22

   ID    Z sym.   atoms
    1    6 C      1-14, 16-21, 23-37, 39, 40
    2    7 N      15, 22, 38
    3    1 H      41-67

          program call               : xtb data2507/gas/FlCz/FlCz_gas_S0_finalOpt.xtbopt.xyz --gfn 2 --spinpol --tblite --uhf 2 --ohess vtight --parallel 40 --molden --ceasefiles --namespace data2507/gas/FlCz/FlCz_gas_T1_preOpt
 * total energy  :  -101.7447906 Eh     change       -0.3874686E-07 Eh
 * total energy  :  -101.7504448 Eh     change       -0.5654136E-02 Eh
 * total energy  :  -101.7525978 Eh     change       -0.2153074E-02 Eh
 * total energy  :  -101.7527670 Eh     change       -0.1691767E-03 Eh
 * total energy  :  -101.7530265 Eh     change       -0.2595403E-03 Eh
 * total energy  :  -101.7531045 Eh     change       -0.7792441E-04 Eh
 * total energy  :  -101.7531737 Eh     change       -0.6924095E-04 Eh
 * total energy  :  -101.7532075 Eh     change       -0.3383490E-04 Eh
 * total energy  :  -101.7532257 Eh     change       -0.1819854E-04 Eh
 * total energy  :  -101.7532397 Eh     change       -0.1395156E-04 Eh
 * total energy  :  -101.7536208 Eh     change       -0.1443595E-05 Eh
 * total energy  :  -101.7536221 Eh     change       -0.1324323E-05 Eh
 * total energy  :  -101.7536232 Eh     change       -0.1117364E-05 Eh
 * total energy  :  -101.7536243 Eh     change       -0.1119258E-05 Eh
 * total energy  :  -101.7536254 Eh     change       -0.1062397E-05 Eh
 * total energy  :  -101.7536264 Eh     change       -0.1043698E-05 Eh
 * total energy  :  -101.7536275 Eh     change       -0.1057865E-05 Eh
 * total energy  :  -101.7536286 Eh     change       -0.1110132E-05 Eh
 * total energy  :  -101.7536286 Eh     change       -0.4739391E-08 Eh
   *** GEOMETRY OPTIMIZATION CONVERGED AFTER 94 ITERATIONS ***

 final structure:
================
67
 xtb: 6.7.1 (edcfbbe)
C           -6.97668645885125        2.61401621623847        0.71268092181013
C           -7.09730350209289        1.49104657747544       -0.32258399751128
C           -6.99004172261302        2.05758436724226       -1.74122733939942
C           -8.38232382609011        0.71603499483056       -0.13547850334991
C           -9.68044658377173        1.15811619815076       -0.23791771574659
C          -10.71788977420618        0.25740616411443       -0.01890437263533
C          -10.45176845831562       -1.06789266145875        0.29917747288604
C           -9.15124515040562       -1.52420080341081        0.40609407200150
C           -8.10815372080595       -0.62877905106252        0.18755698047877
C           -6.68379200920109       -0.81377064075383        0.22558004355794
C           -5.90806854283544       -1.94435262416223        0.49961574983719
C           -4.54263283989259       -1.84169965262655        0.46825885075233
C           -3.90394943668960       -0.61529810984071        0.15814689020544
C           -2.49588672215284       -0.52820575242632        0.12604254724225
N           -1.87059592795461        0.63997483503685       -0.18094134794854
C           -0.58832699072070        0.73379393093759       -0.21868599908759
C            0.29600636341295       -0.34812673021410        0.06781017358893
C            1.72035128933174       -0.25385093481963        0.04280343596935
C            2.37885278750749        0.74596971002665       -0.70411633002248
C            3.74738400332728        0.84108870300111       -0.72347654033040
C            4.53294841572881       -0.05918041124161        0.00341261670066
N            5.92631996707870        0.04132751098059       -0.01241428202507
C            6.81055969614474       -0.99872176439047       -0.22023474171960
C            6.55598017136224       -2.33250526876683       -0.50960378294782
C            7.63876158857672       -3.16987427549007       -0.70030149158996
C            8.94670392057200       -2.69805319436949       -0.61814748842456
C            9.20654974575453       -1.36543876816654       -0.36051839396463
C            8.13551663558616       -0.50574265359016       -0.16467650450960
C            8.03512698891989        0.90460721737641        0.09280447507280
C            8.97346785858949        1.91147553503632        0.26697083934565
C            8.52792759361657        3.19226491181890        0.53311082903147
C            7.16732900010008        3.46847724974075        0.64510478414286
C            6.21426681655157        2.48203196936343        0.47624651049730
C            6.65407725857196        1.19934855161706        0.17819198181344
C            3.89963315720173       -1.05987121842396        0.74735594170932
C            2.53095144640036       -1.15436681093826        0.76600672864004
C           -0.42950033787033       -1.53465965945671        0.38530188029304
N           -1.71361100333692       -1.60561749903487        0.40104692499505
C           -4.69831568314013        0.52528629191991       -0.11918173220914
C           -6.05694359436708        0.41903511064070       -0.07985775621263
H           -7.76750434908935        3.34709350728267        0.57032470184720
H           -7.05682697948862        2.20708181158027        1.71853917281606
H           -6.01531874016662        3.11281246880978        0.61581788969008
H           -7.78118876579061        2.78214308169752       -1.92057024260034
H           -7.07894827758282        1.25730512914842       -2.47286278513601
H           -6.02934978316991        2.54815370567199       -1.87831869516454
H           -9.90079907364475        2.18695217719850       -0.48434192699105
H          -11.74181264781913        0.59254700772922       -0.09711599865111
H          -11.27406703199497       -1.74927028648962        0.46453268284465
H           -8.94699325428592       -2.55539797037485        0.65312179888026
H           -6.38390132364868       -2.88619434202053        0.73086160669482
H           -3.91589125939483       -2.69660159658336        0.67207300936822
H           -0.19233848372969        1.71873684791372       -0.43095074864002
H            1.79757700684452        1.43458900929539       -1.29824031931951
H            4.22981471992251        1.59491997124523       -1.32802917881246
H            5.54658577643609       -2.70417014752490       -0.59750656225863
H            7.46638243253673       -4.21252243215274       -0.92237344864400
H            9.76609141898992       -3.38463427791610       -0.76973687884015
H           10.21983716268150       -0.99590088923438       -0.31651438419071
H           10.02858829923611        1.69356351174710        0.20010458035155
H            9.24161553778945        3.99111680354727        0.66822314202620
H            6.84971631369426        4.47502560920344        0.87345517481971
H            5.16367166831083        2.70260935763186        0.58734852037467
H            4.49781108181455       -1.73960098953625        1.33607691875519
H            2.06680102382959       -1.91639637527205        1.37340718644034
H            0.09785026573552       -2.46055512573445        0.57639493544934
H           -4.19842531683722        1.45412077300527       -0.34836254488636

 projected vibrational frequencies (cm⁻¹)
eigval :       -0.00    -0.00    -0.00     0.00     0.00     0.00
eigval :        9.68    15.50    18.75    30.58    46.24    50.60
eigval :       62.75    83.82    88.53    96.90   106.95   109.14
eigval :      118.89   123.11   144.40   145.65   179.86   187.58
eigval :      201.09   206.92   215.99   243.43   246.17   256.57
eigval :      271.30   287.89   302.73   309.35   317.86   333.81
eigval :      367.87   376.87   378.00   393.33   404.38   408.40
eigval :      415.29   421.80   433.78   439.98   456.08   457.74
eigval :      495.38   496.47   517.27   519.95   529.57   538.25
eigval :      538.73   558.16   566.47   578.19   580.75   582.17
eigval :      591.05   610.09   618.26   652.24   654.55   672.52
eigval :      674.11   680.40   684.97   708.92   715.45   719.79
eigval :      737.01   757.04   768.69   769.27   773.40   778.82
eigval :      779.99   800.11   812.50   817.25   844.85   858.13
eigval :      860.26   869.00   871.63   871.85   896.28   902.10
eigval :      902.16   902.65   905.48   912.57   914.76   918.41
eigval :      921.25   924.67   928.72   931.96   957.78   966.10
eigval :      977.20   999.29  1011.29  1012.36  1041.53  1047.27
eigval :     1054.71  1069.90  1073.06  1073.55  1075.66  1104.60
eigval :     1115.72  1136.84  1142.16  1148.88  1149.93  1169.67
eigval :     1173.72  1175.13  1179.92  1180.34  1181.18  1207.63
eigval :     1215.55  1220.36  1233.66  1242.57  1244.08  1251.93
eigval :     1263.55  1271.36  1274.87  1280.92  1293.82  1296.53
eigval :     1323.10  1337.21  1341.11  1351.78  1353.95  1357.59
eigval :     1361.43  1383.30  1394.31  1410.10  1414.72  1419.51
eigval :     1422.59  1426.58  1442.07  1451.76  1464.40  1467.09
eigval :     1483.19  1485.76  1486.01  1489.07  1489.34  1496.23
eigval :     1499.17  1502.57  1509.64  1543.42  1564.97  1570.47
eigval :     1577.64  1583.71  1587.94  1595.40  1600.34  1609.45
eigval :     3027.49  3030.63  3031.61  3034.16  3035.57  3038.53
eigval :     3038.81  3039.45  3068.79  3072.32  3075.53  3079.52
eigval :     3079.95  3081.17  3082.56  3083.11  3084.82  3086.27
eigval :     3087.89  3089.34  3092.24  3093.58  3093.89  3094.29
eigval :     3095.14  3098.01  3099.15

   temp. (K)  partition function   enthalpy   heat capacity  entropy
                                   cal/mol     cal/K/mol   cal/K/mol   J/K/mol
 298.15  VIB  0.511E+14            18606.311    120.960    114.120
         ROT  0.673E+08              888.752      2.981     38.802
         INT  0.344E+22            19495.064    123.941    152.921
         TR   0.113E+29             1481.254      4.968     44.575
         TOT                       20976.3175   128.9089   197.4968   826.3266

       T/K    H(0)-H(T)+PV         H(T)/Eh          T*S/Eh         G(T)/Eh
   ------------------------------------------------------------------------
    298.15    0.334279E-01    0.551496E+00    0.938371E-01    0.457659E+00
   ------------------------------------------------------------------------

         :::::::::::::::::::::::::::::::::::::::::::::::::::::
         ::                  THERMODYNAMIC                  ::
         :::::::::::::::::::::::::::::::::::::::::::::::::::::
         :: total free energy        -101.295969930604 Eh   ::
         ::.................................................::
         :: total energy             -101.753628605693 Eh   ::
         :: zero point energy           0.518067886273 Eh   ::
         :: G(RRHO) w/o ZPVE           -0.060409211184 Eh   ::
         :: G(RRHO) contrib.            0.457658675089 Eh   ::
         :::::::::::::::::::::::::::::::::::::::::::::::::::::

           -------------------------------------------------
          | TOTAL ENERGY             -101.753628605693 Eh   |
          | TOTAL ENTHALPY           -101.202132829702 Eh   |
          | TOTAL FREE ENERGY        -101.295969930604 Eh   |
          | GRADIENT NORM               0.000067971942 Eh/α |
           -------------------------------------------------

 * finished run on 2025/09/03 at 18:17:35.171
