   * xtb version 6.7.1 (edcfbbe) compiled by 'albert@albert-system' on 2024-07-22

   ID    Z sym.   atoms
    1    6 C      1-14, 16-21, 23-37, 39, 40
    2    7 N      15, 22, 38
    3    1 H      41-67

          program call               : xtb data2507/gas/FlCz/FlCz_gas_T1_crest.xyz --gfn 2 --spinpol --tblite --uhf 2 --ohess vtight --parallel 40 --molden --ceasefiles --namespace data2507/gas/FlCz/FlCz_gas_T1_finalOpt
 * total energy  :  -101.7540210 Eh     change        0.8454478E-08 Eh
 * total energy  :  -101.7540593 Eh     change       -0.3827437E-04 Eh
 * total energy  :  -101.7540859 Eh     change       -0.2658695E-04 Eh
 * total energy  :  -101.7540883 Eh     change       -0.2409639E-05 Eh
 * total energy  :  -101.7540900 Eh     change       -0.1731284E-05 Eh
 * total energy  :  -101.7540908 Eh     change       -0.7132881E-06 Eh
 * total energy  :  -101.7540913 Eh     change       -0.5956629E-06 Eh
 * total energy  :  -101.7540920 Eh     change       -0.6244052E-06 Eh
 * total energy  :  -101.7540927 Eh     change       -0.7637811E-06 Eh
 * total energy  :  -101.7540936 Eh     change       -0.8598387E-06 Eh
 * total energy  :  -101.7540957 Eh     change       -0.6653286E-06 Eh
 * total energy  :  -101.7540963 Eh     change       -0.6617883E-06 Eh
 * total energy  :  -101.7540969 Eh     change       -0.5448071E-06 Eh
 * total energy  :  -101.7540972 Eh     change       -0.3351343E-06 Eh
 * total energy  :  -101.7540974 Eh     change       -0.2349743E-06 Eh
 * total energy  :  -101.7540976 Eh     change       -0.2132090E-06 Eh
 * total energy  :  -101.7540978 Eh     change       -0.1898274E-06 Eh
 * total energy  :  -101.7540980 Eh     change       -0.1799608E-06 Eh
 * total energy  :  -101.7540980 Eh     change       -0.2758540E-08 Eh
   *** GEOMETRY OPTIMIZATION CONVERGED AFTER 22 ITERATIONS ***

 final structure:
================
67
 xtb: 6.7.1 (edcfbbe)
C           -6.99285991569992        2.54893173882710       -0.90879594337260
C           -7.10724861107136        1.03692651771576       -1.12504044832209
C           -6.99862858184557        0.69978931738202       -2.61528175146869
C           -8.39031026865450        0.49565676967959       -0.53523599093352
C           -9.68980164095664        0.80513002021921       -0.86290207292335
C          -10.72468318443966        0.17445756528470       -0.18016731307652
C          -10.45513132269288       -0.75347751900765        0.81671369463153
C           -9.15299567420936       -1.07293339696114        1.15486751916457
C           -8.11311148500589       -0.44540036073840        0.47637006499812
C           -6.68673617058925       -0.57328141902691        0.61017249426928
C           -5.90914296805255       -1.36470657124843        1.45917505725392
C           -4.54314499549121       -1.29194406514864        1.37553431825310
C           -3.90858572136938       -0.43137095089050        0.44770529362470
C           -2.49918480367109       -0.36833837920656        0.37744379005546
N           -1.87269446533181        0.43088536440323       -0.52577650633187
C           -0.59102721933844        0.50304215748503       -0.59698046277799
C            0.29674286627641       -0.23765008400903        0.24047666104699
C            1.71902419890375       -0.16915817089317        0.17311348409255
C            2.37884431898313        0.91584517631427       -0.44542074768244
C            3.74682517286374        0.98178253939280       -0.51134011662827
C            4.53585890588471       -0.03267351520116        0.04131949212214
N            5.92915914859091        0.03452747951249       -0.02368502970975
C            6.76856600206579       -0.98200698858601       -0.43407458225389
C            6.45638119902382       -2.24560460913168       -0.91695577625916
C            7.50122441549676       -3.07030163520332       -1.28901083017719
C            8.82649231407068       -2.65194559792386       -1.19648845529210
C            9.14229275283611       -1.38487861525352       -0.74359995138755
C            8.11042221873089       -0.53935559005440       -0.36342094079324
C            8.06796024886032        0.81418680907433        0.11861294606755
C            9.04532620742983        1.75527944251402        0.40720517772183
C            8.65337079659156        2.98855272491098        0.89269592987254
C            7.30834356606461        3.27978193051840        1.10715640944810
C            6.31686624811604        2.35822433650857        0.82790969124828
C            6.70217880611333        1.12786456243495        0.31307839652742
C            3.90321474349267       -1.11601316266590        0.66047904575480
C            2.53513554264387       -1.18265821518779        0.72257616291108
C           -0.43230308614392       -1.05597953565686        1.15550775266392
N           -1.71568037723101       -1.10308053944027        1.20960302392777
C           -4.70477837250759        0.36817791307978       -0.40802096997220
C           -6.06403599262823        0.29125217966397       -0.32113317744215
H           -7.78694574677133        3.06870390258512       -1.44015653717406
H           -7.07203188017700        2.78350603566738        0.15065323396402
H           -6.03397256201841        2.90946569718274       -1.27344544866760
H           -7.79097656829389        1.19291500785017       -3.17393674967816
H           -7.08489451559238       -0.37449335430911       -2.76421796297184
H           -6.03848116710870        1.02831045157226       -3.00595652894265
H           -9.91272248753688        1.52529241359357       -1.63717505901583
H          -11.74952068938334        0.40907423169679       -0.42836040282783
H          -11.27543556403520       -1.23066462225611        1.33364494614417
H           -8.94605172780579       -1.79474608073476        1.93097124011719
H           -6.38211950693368       -2.02183266293489        2.17432596815276
H           -3.91457828733038       -1.88566993658193        2.02182352360879
H           -0.19704845007477        1.12674049038877       -1.38938947812826
H            1.79612310446180        1.71546894489546       -0.87673910069926
H            4.22675297319567        1.80868909423270       -1.01379858051729
H            5.43194793041913       -2.57126367959001       -1.01332737907824
H            7.28449087690417       -4.05934079006747       -1.66441530714846
H            9.61498644656742       -3.32665368638001       -1.49449826553962
H           10.16851709345750       -1.05436973132785       -0.69010427564569
H           10.08911948082726        1.52327373966911        0.25920010618143
H            9.39820605735219        3.73613887385593        1.12095864353512
H            7.03390093962974        4.24537101371064        1.50518523061838
H            5.27921696357117        2.58572779394491        1.01851136027899
H            4.50536752255643       -1.89037952165557        1.11248430502020
H            2.07510694794619       -2.03272558405847        1.20290773794104
H            0.09292221750073       -1.63870556859471        1.90152893837651
H           -4.20776812683740        1.01653973736026       -1.11362668845391

 projected vibrational frequencies (cm⁻¹)
eigval :       -0.00    -0.00    -0.00     0.00     0.00     0.00
eigval :        8.96    15.10    20.84    28.75    46.55    51.97
eigval :       63.07    84.33    89.53    95.83   103.56   104.89
eigval :      121.38   122.99   144.45   146.91   178.97   187.85
eigval :      200.09   209.52   216.28   237.63   247.33   257.66
eigval :      271.23   288.11   307.13   309.25   318.55   337.74
eigval :      349.44   380.28   389.99   396.70   404.37   413.27
eigval :      417.69   423.93   430.41   438.28   455.53   457.08
eigval :      494.49   496.67   517.17   520.20   530.85   538.33
eigval :      538.79   558.59   567.32   578.68   581.29   583.57
eigval :      591.12   610.09   619.90   652.56   653.37   669.18
eigval :      674.14   681.90   685.49   709.15   716.09   720.02
eigval :      736.17   757.12   769.32   770.17   775.92   779.35
eigval :      792.75   797.18   807.90   817.54   840.59   858.96
eigval :      861.27   869.91   871.28   871.74   895.63   901.57
eigval :      901.98   902.93   905.75   911.97   912.79   917.30
eigval :      921.63   923.85   926.46   930.97   958.39   966.14
eigval :      977.81   998.47  1011.36  1012.48  1042.23  1046.27
eigval :     1055.38  1069.67  1072.85  1074.37  1076.85  1105.71
eigval :     1115.58  1137.85  1142.21  1149.07  1149.69  1166.13
eigval :     1174.13  1175.29  1179.96  1180.77  1181.53  1208.89
eigval :     1216.18  1220.96  1233.59  1242.43  1244.61  1251.71
eigval :     1266.56  1271.61  1276.45  1281.65  1293.97  1296.16
eigval :     1321.86  1335.78  1338.29  1351.16  1353.83  1357.68
eigval :     1361.37  1384.47  1394.35  1410.07  1415.56  1419.59
eigval :     1423.55  1427.08  1442.18  1451.40  1464.85  1466.43
eigval :     1483.39  1485.73  1486.14  1487.20  1489.40  1496.36
eigval :     1500.26  1502.90  1513.90  1545.32  1564.86  1570.64
eigval :     1579.21  1583.89  1587.69  1596.44  1601.89  1610.31
eigval :     3027.32  3030.42  3031.43  3033.57  3034.01  3037.43
eigval :     3038.24  3039.07  3068.32  3071.91  3075.30  3079.55
eigval :     3080.07  3080.36  3081.74  3082.59  3084.89  3086.30
eigval :     3087.10  3088.93  3092.06  3093.04  3093.40  3093.75
eigval :     3094.38  3098.01  3099.26

   temp. (K)  partition function   enthalpy   heat capacity  entropy
                                   cal/mol     cal/K/mol   cal/K/mol   J/K/mol
 298.15  VIB  0.534E+14            18600.061    120.933    114.165
         ROT  0.674E+08              888.752      2.981     38.804
         INT  0.360E+22            19488.813    123.913    152.969
         TR   0.113E+29             1481.254      4.968     44.575
         TOT                       20970.0672   128.8815   197.5444   826.5256

       T/K    H(0)-H(T)+PV         H(T)/Eh          T*S/Eh         G(T)/Eh
   ------------------------------------------------------------------------
    298.15    0.334179E-01    0.551530E+00    0.938597E-01    0.457670E+00
   ------------------------------------------------------------------------

         :::::::::::::::::::::::::::::::::::::::::::::::::::::
         ::                  THERMODYNAMIC                  ::
         :::::::::::::::::::::::::::::::::::::::::::::::::::::
         :: total free energy        -101.296427890003 Eh   ::
         ::.................................................::
         :: total energy             -101.754098015201 Eh   ::
         :: zero point energy           0.518111898764 Eh   ::
         :: G(RRHO) w/o ZPVE           -0.060441773566 Eh   ::
         :: G(RRHO) contrib.            0.457670125198 Eh   ::
         :::::::::::::::::::::::::::::::::::::::::::::::::::::

           -------------------------------------------------
          | TOTAL ENERGY             -101.754098015201 Eh   |
          | TOTAL ENTHALPY           -101.202568187134 Eh   |
          | TOTAL FREE ENERGY        -101.296427890003 Eh   |
          | GRADIENT NORM               0.000040322100 Eh/α |
           -------------------------------------------------

 * finished run on 2025/09/03 at 18:21:39.880
