   * xtb version 6.7.1 (edcfbbe) compiled by 'albert@albert-system' on 2024-07-22

   ID    Z sym.   atoms
    1    6 C      1-14, 16-21, 23-37, 39, 40
    2    7 N      15, 22, 38
    3    1 H      41-67

          program call               : xtb data2507/gas/FlCz/FlCz.xyz --gfn 2 --ohess vtight --parallel 40 --molden --ceasefiles --namespace data2507/gas/FlCz/FlCz_gas_S0_preOpt
          :  Hamiltonian                  GFN2-xTB          :
 * total energy  :  -101.8126631 Eh     change       -0.2586475E-08 Eh
 * total energy  :  -101.8243618 Eh     change       -0.1169868E-01 Eh
 * total energy  :  -101.8270170 Eh     change       -0.2655177E-02 Eh
 * total energy  :  -101.8277387 Eh     change       -0.7217418E-03 Eh
 * total energy  :  -101.8284075 Eh     change       -0.6688155E-03 Eh
 * total energy  :  -101.8286280 Eh     change       -0.2204499E-03 Eh
 * total energy  :  -101.8287277 Eh     change       -0.9976641E-04 Eh
 * total energy  :  -101.8287904 Eh     change       -0.6268392E-04 Eh
 * total energy  :  -101.8288537 Eh     change       -0.6323515E-04 Eh
 * total energy  :  -101.8288945 Eh     change       -0.4083243E-04 Eh
 * total energy  :  -101.8292745 Eh     change       -0.4590374E-06 Eh
 * total energy  :  -101.8292750 Eh     change       -0.4083998E-06 Eh
 * total energy  :  -101.8292752 Eh     change       -0.2521953E-06 Eh
 * total energy  :  -101.8292754 Eh     change       -0.2141764E-06 Eh
 * total energy  :  -101.8292757 Eh     change       -0.2746900E-06 Eh
 * total energy  :  -101.8292761 Eh     change       -0.3627797E-06 Eh
 * total energy  :  -101.8292765 Eh     change       -0.4067312E-06 Eh
 * total energy  :  -101.8292769 Eh     change       -0.4132933E-06 Eh
 * total energy  :  -101.8292769 Eh     change       -0.5254961E-08 Eh
   *** GEOMETRY OPTIMIZATION CONVERGED AFTER 68 ITERATIONS ***

 final structure:
================
67
 xtb: 6.7.1 (edcfbbe)
C           -6.72890665984737        2.15392054523905        1.16680571998333
C           -6.81212088132828        1.23502267791818       -0.05605280877483
C           -6.71034599661844        2.05224503256018       -1.34745192575417
C           -8.07572399530173        0.40498284888012       -0.03024036261730
C           -9.38796565002225        0.82510386697798       -0.05981394715600
C          -10.39752110982837       -0.12779786323225       -0.02571628710236
C          -10.09669202795647       -1.47978931791472        0.03728132977481
C           -8.78089808798748       -1.91137692856798        0.06746375192557
C           -7.77105349699775       -0.96322077408031        0.03334293949353
C           -6.32664775913324       -1.11341970100402        0.05064511493076
C           -5.53157287460649       -2.24880494693177        0.10759248274539
C           -4.15858764441043       -2.09971501137903        0.10907057103404
C           -3.57493995488834       -0.83177552202371        0.05348603107477
C           -2.12254208018316       -0.69787114399845        0.05242811263584
N           -1.60640168857892        0.53029568872781       -0.03507263584944
C           -0.29722606705028        0.64743730961977       -0.03350826310777
C            0.56562413093677       -0.44973700304425        0.04456667266588
C            2.02011774537308       -0.31783585702705        0.03719124268474
C            2.64468400346042        0.63461099289362       -0.76769760280303
C            4.01898918144788        0.75120109994157       -0.78691242319790
C            4.80407097558427       -0.07425109432329        0.01509838135523
N            6.19772670126719        0.04331904527817        0.00080380153115
C            7.09437218975058       -0.99776657657023       -0.14834042089442
C            6.85505022792989       -2.34739669946668       -0.36320504323308
C            7.94724643055229       -3.18139571080887       -0.50811403197761
C            9.24987489380878       -2.69115756721258       -0.45157252974863
C            9.49383719703575       -1.34531451588830       -0.26476168676359
C            8.41215666827999       -0.48737207749662       -0.11644524327011
C            8.29625200389750        0.93243584575595        0.06674179673283
C            9.22470809264803        1.95735397792440        0.19127435945562
C            8.76646454522283        3.24485809985864        0.38639152386173
C            7.40247894481712        3.51354421582599        0.47417371976648
C            6.45971240936966        2.51051560227017        0.35315261309348
C            6.91333381654604        1.21840061987545        0.13047479931960
C            4.18668342619038       -1.02040285146813        0.83041866808226
C            2.81302874291269       -1.14441412878217        0.83294902748693
C           -0.08171909541247       -1.68630221076918        0.12868604305379
N           -1.38978656880986       -1.81031244940764        0.13793450564883
C           -4.37946079121884        0.31155205113625       -0.00293127436353
C           -5.74520099418061        0.16410265780884       -0.00341100602678
H           -7.53846959621113        2.87993805310133        1.14986904611937
H           -6.80490059334299        1.56986005646200        2.08158902474010
H           -5.78120664902181        2.68676747835783        1.17255802508279
H           -7.51918382617200        2.77730204034370       -1.40074158469496
H           -6.77369424466078        1.39645599950061       -2.21325303460266
H           -5.76211742524465        2.58303578272574       -1.38226957480979
H           -9.63520280045038        1.87571801485493       -0.10879079730539
H          -11.43038178880346        0.18804402642121       -0.04854968321354
H          -10.89853373278183       -2.20337918109698        0.06289158920407
H           -8.54805147689330       -2.96471367867601        0.11633204412554
H           -5.97695543061135       -3.23168316684736        0.14950622876807
H           -3.50888381085672       -2.95973994401047        0.15174568952235
H            0.08549986719251        1.66047350974674       -0.07838512957426
H            2.04733067647116        1.26699646803727       -1.40781088147188
H            4.49506654731159        1.46949746064489       -1.43733945831545
H            5.84975271533931       -2.73549607735558       -0.42867751164094
H            7.78665051940804       -4.23667956747163       -0.67282281714111
H           10.07676996354779       -3.37609219643261       -0.56612114233468
H           10.50268420821854       -0.96195567742789       -0.23847680441248
H           10.28207499954358        1.74562370052699        0.14056826292136
H            9.47151271721309        4.05701445187165        0.48298382974244
H            7.07397850229929        4.52824762077683        0.64454098641444
H            5.40591680803882        2.72751626640681        0.44245653556444
H            4.79051171156788       -1.64384718475605        1.47255105417513
H            2.34474538358783       -1.86989983692598        1.48166131571737
H            0.47978845874865       -2.61227596666699        0.17145057951191
H           -3.90580260610401        1.27980332079234       -0.04419450777459

          :  Hamiltonian                  GFN2-xTB          :
         :: gradient norm              0.000053058398 Eh/a0 ::
         :: HOMO-LUMO gap              2.139923991159 eV    ::
         :: SCC energy              -103.703737862893 Eh    ::
         :: -> dispersion             -0.087336214361 Eh    ::
         :: repulsion energy           1.874460978417 Eh    ::

    * Orbital Energies and Occupations

         #    Occupation            Energy/Eh            Energy/eV
      -------------------------------------------------------------
         1        2.0000           -0.6774113             -18.4333
       ...           ...                  ...                  ...
        83        2.0000           -0.4186443             -11.3919
        84        2.0000           -0.4172440             -11.3538
        85        2.0000           -0.4135251             -11.2526
        86        2.0000           -0.4115615             -11.1992
        87        2.0000           -0.4055473             -11.0355
        88        2.0000           -0.4049529             -11.0193
        89        2.0000           -0.4020864             -10.9413
        90        2.0000           -0.4014284             -10.9234
        91        2.0000           -0.3967210             -10.7953
        92        2.0000           -0.3788703             -10.3096
        93        2.0000           -0.3766148             -10.2482
        94        2.0000           -0.3640040              -9.9051
        95        2.0000           -0.3594716              -9.7817 (HOMO)
        96                         -0.2808309              -7.6418 (LUMO)
        97                         -0.2607909              -7.0965
        98                         -0.2487478              -6.7688
        99                         -0.2429674              -6.6115
       100                         -0.2377784              -6.4703
       101                         -0.2227246              -6.0606
       102                         -0.2221097              -6.0439
       103                         -0.2217176              -6.0332
       104                         -0.2172042              -5.9104
       105                         -0.1924667              -5.2373
       106                         -0.1861866              -5.0664
       ...                                ...                  ...
       187                          0.7457054              20.2917
      -------------------------------------------------------------
                  HL-Gap            0.0786408 Eh            2.1399 eV

     #   Z          covCN         q      C6AA      α(0)
     1   6 C        3.759    -0.100    22.452     6.755
     2   6 C        3.936     0.018    20.200     6.387
     3   6 C        3.758    -0.100    22.454     6.756
     4   6 C        3.055     0.000    27.970     8.673
     5   6 C        2.915    -0.033    28.828     8.804
     6   6 C        2.922    -0.032    28.797     8.800
     7   6 C        2.921    -0.033    28.817     8.803
     8   6 C        2.914    -0.033    28.824     8.804
     9   6 C        3.037     0.001    27.980     8.676
    10   6 C        3.037     0.005    27.885     8.661
    11   6 C        2.912    -0.034    28.837     8.806
    12   6 C        2.925    -0.031    28.767     8.796
    13   6 C        2.985    -0.003    28.087     8.693
    14   6 C        2.962     0.178    24.179     8.066
    15   7 N        1.839    -0.251    27.389     7.756
    16   6 C        2.926     0.075    26.330     8.415
    17   6 C        2.965    -0.016    28.419     8.744
    18   6 C        2.974     0.003    27.943     8.671
    19   6 C        2.924    -0.033    28.824     8.804
    20   6 C        2.920    -0.042    29.055     8.839
    21   6 C        2.913     0.065    26.547     8.449
    22   7 N        2.802    -0.043    22.075     6.978
    23   6 C        3.074     0.046    26.881     8.501
    24   6 C        2.910    -0.051    29.261     8.870
    25   6 C        2.924    -0.033    28.828     8.805
    26   6 C        2.920    -0.040    29.004     8.832
    27   6 C        2.913    -0.033    28.812     8.802
    28   6 C        3.068    -0.016    28.351     8.731
    29   6 C        3.068    -0.016    28.351     8.731
    30   6 C        2.913    -0.033    28.812     8.802
    31   6 C        2.920    -0.040    29.005     8.832
    32   6 C        2.924    -0.033    28.829     8.805
    33   6 C        2.910    -0.051    29.261     8.870
    34   6 C        3.074     0.046    26.881     8.501
    35   6 C        2.921    -0.042    29.054     8.839
    36   6 C        2.924    -0.033    28.824     8.804
    37   6 C        2.926     0.075    26.323     8.414
    38   7 N        1.839    -0.250    27.374     7.754
    39   6 C        2.919    -0.032    28.799     8.800
    40   6 C        3.053     0.000    27.977     8.675
    41   1 H        0.925     0.041     2.430     2.438
    42   1 H        0.925     0.036     2.498     2.472
    43   1 H        0.925     0.044     2.400     2.423
    44   1 H        0.925     0.041     2.430     2.438
    45   1 H        0.925     0.036     2.497     2.471
    46   1 H        0.925     0.044     2.399     2.422
    47   1 H        0.926     0.029     2.608     2.525
    48   1 H        0.926     0.030     2.588     2.516
    49   1 H        0.926     0.030     2.591     2.517
    50   1 H        0.926     0.031     2.569     2.506
    51   1 H        0.926     0.035     2.511     2.478
    52   1 H        0.926     0.056     2.247     2.344
    53   1 H        0.925     0.036     2.503     2.474
    54   1 H        0.926     0.038     2.481     2.463
    55   1 H        0.926     0.043     2.405     2.425
    56   1 H        0.926     0.027     2.628     2.535
    57   1 H        0.926     0.030     2.593     2.518
    58   1 H        0.926     0.029     2.606     2.525
    59   1 H        0.926     0.031     2.566     2.505
    60   1 H        0.926     0.031     2.566     2.505
    61   1 H        0.926     0.029     2.607     2.525
    62   1 H        0.926     0.029     2.595     2.519
    63   1 H        0.926     0.027     2.630     2.536
    64   1 H        0.926     0.043     2.403     2.424
    65   1 H        0.926     0.038     2.478     2.462
    66   1 H        0.925     0.037     2.494     2.470
    67   1 H        0.926     0.054     2.270     2.356

molecular dipole:
                 x           y           z       tot (Debye)
 q only:       -0.547       0.289      -0.012
   full:       -0.156       0.297      -0.012       0.853

 projected vibrational frequencies (cm⁻¹)
eigval :       -0.00    -0.00    -0.00    -0.00     0.00     0.00
eigval :       10.12    12.25    16.97    32.36    47.67    49.46
eigval :       53.31    83.77    86.64    96.11   105.65   109.26
eigval :      114.86   118.53   145.55   150.10   183.13   189.81
eigval :      201.93   212.69   217.46   241.86   248.30   252.82
eigval :      271.78   290.21   309.09   310.92   319.32   362.08
eigval :      363.28   378.76   384.78   387.31   396.88   410.61
eigval :      425.06   435.12   439.89   447.31   464.93   487.85
eigval :      496.77   517.49   521.75   528.41   537.29   541.12
eigval :      542.23   562.58   573.69   582.44   595.94   604.97
eigval :      607.68   617.43   632.32   655.73   674.00   691.57
eigval :      694.95   705.69   711.80   725.06   726.20   755.95
eigval :      759.29   769.70   770.72   779.76   780.96   796.89
eigval :      817.66   837.08   865.88   870.21   872.79   874.51
eigval :      879.24   879.66   891.07   898.13   902.52   903.01
eigval :      910.71   918.99   919.29   920.61   923.82   926.92
eigval :      927.87   931.75   934.62   960.77   966.96   985.63
eigval :     1003.23  1012.08  1013.28  1028.76  1068.72  1070.73
eigval :     1074.35  1077.90  1085.89  1102.00  1116.09  1118.46
eigval :     1137.54  1147.49  1153.07  1153.93  1175.59  1176.74
eigval :     1181.31  1182.70  1183.96  1204.28  1204.87  1217.69
eigval :     1224.13  1236.51  1245.01  1245.20  1252.88  1268.82
eigval :     1272.22  1277.60  1289.81  1300.79  1302.21  1315.30
eigval :     1329.54  1336.29  1357.38  1361.88  1364.44  1369.43
eigval :     1383.64  1395.03  1409.66  1411.68  1414.32  1427.95
eigval :     1428.71  1434.97  1439.24  1456.74  1474.14  1476.16
eigval :     1485.80  1488.07  1488.81  1496.40  1501.55  1502.17
eigval :     1513.49  1558.14  1560.34  1575.52  1576.61  1589.31
eigval :     1593.22  1595.21  1599.28  1599.52  1608.18  1615.07
eigval :     3029.67  3032.40  3032.95  3034.20  3035.50  3036.15
eigval :     3039.96  3041.84  3070.87  3075.37  3076.60  3076.97
eigval :     3081.45  3081.51  3082.58  3082.65  3084.16  3084.37
eigval :     3088.67  3090.27  3091.20  3095.55  3096.10  3096.66
eigval :     3097.36  3103.19  3108.03

   temp. (K)  partition function   enthalpy   heat capacity  entropy
                                   cal/mol     cal/K/mol   cal/K/mol   J/K/mol
 298.15  VIB  0.603E+14            18343.203    118.637    113.120
         ROT  0.668E+08              888.752      2.981     38.785
         INT  0.403E+22            19231.956    121.618    151.906
         TR   0.113E+29             1481.254      4.968     44.575
         TOT                       20713.2096   126.5861   196.4809   822.0762

       T/K    H(0)-H(T)+PV         H(T)/Eh          T*S/Eh         G(T)/Eh
   ------------------------------------------------------------------------
    298.15    0.330086E-01    0.555463E+00    0.933544E-01    0.462109E+00
   ------------------------------------------------------------------------

         :::::::::::::::::::::::::::::::::::::::::::::::::::::
         ::                  THERMODYNAMIC                  ::
         :::::::::::::::::::::::::::::::::::::::::::::::::::::
         :: total free energy        -101.367167885195 Eh   ::
         ::.................................................::
         :: total energy             -101.829276884476 Eh   ::
         :: zero point energy           0.522454829915 Eh   ::
         :: G(RRHO) w/o ZPVE           -0.060345830633 Eh   ::
         :: G(RRHO) contrib.            0.462108999282 Eh   ::
         :::::::::::::::::::::::::::::::::::::::::::::::::::::

           -------------------------------------------------
          | TOTAL ENERGY             -101.829276884476 Eh   |
          | TOTAL ENTHALPY           -101.273813454015 Eh   |
          | TOTAL FREE ENERGY        -101.367167885195 Eh   |
          | GRADIENT NORM               0.000053056663 Eh/α |
          | HOMO-LUMO GAP               2.139924063744 eV   |
           -------------------------------------------------

 * finished run on 2025/09/03 at 18:14:58.206
