   * xtb version 6.7.1 (edcfbbe) compiled by 'albert@albert-system' on 2024-07-22

   ID    Z sym.   atoms
    1    6 C      1-14, 16-21, 23-37, 39, 40
    2    7 N      15, 22, 38
    3    1 H      41-67

          program call               : xtb data2507/gas/FlCz/FlCz_gas_S0_crest.xyz --gfn 2 --ohess vtight --parallel 40 --molden --ceasefiles --namespace data2507/gas/FlCz/FlCz_gas_S0_finalOpt
          :  Hamiltonian                  GFN2-xTB          :
 * total energy  :  -101.8292573 Eh     change       -0.1536165E-08 Eh
 * total energy  :  -101.8292580 Eh     change       -0.6476631E-06 Eh
 * total energy  :  -101.8292587 Eh     change       -0.6634514E-06 Eh
 * total energy  :  -101.8292608 Eh     change       -0.2152485E-05 Eh
 * total energy  :  -101.8292619 Eh     change       -0.1081459E-05 Eh
 * total energy  :  -101.8292626 Eh     change       -0.7597816E-06 Eh
 * total energy  :  -101.8292639 Eh     change       -0.1271492E-05 Eh
 * total energy  :  -101.8292656 Eh     change       -0.1678015E-05 Eh
 * total energy  :  -101.8292664 Eh     change       -0.8349891E-06 Eh
 * total energy  :  -101.8292669 Eh     change       -0.4328193E-06 Eh
 * total energy  :  -101.8292699 Eh     change       -0.6185205E-06 Eh
 * total energy  :  -101.8292704 Eh     change       -0.5398491E-06 Eh
 * total energy  :  -101.8292711 Eh     change       -0.6866678E-06 Eh
 * total energy  :  -101.8292720 Eh     change       -0.9382629E-06 Eh
 * total energy  :  -101.8292730 Eh     change       -0.9081057E-06 Eh
 * total energy  :  -101.8292737 Eh     change       -0.7355638E-06 Eh
 * total energy  :  -101.8292744 Eh     change       -0.6885619E-06 Eh
 * total energy  :  -101.8292751 Eh     change       -0.7724731E-06 Eh
 * total energy  :  -101.8292752 Eh     change       -0.3615114E-08 Eh
   *** GEOMETRY OPTIMIZATION CONVERGED AFTER 22 ITERATIONS ***

 final structure:
================
67
 xtb: 6.7.1 (edcfbbe)
C           -6.99576353228827        2.48673808068614        1.01969251010695
C           -7.08093546673975        1.50865494608499       -0.15619438546609
C           -6.94518676616848        2.25703411464553       -1.48566271769133
C           -8.36147920067411        0.70605360850002       -0.10722821311424
C           -9.66430808516408        1.14987546706294       -0.17823052504016
C          -10.69350883132702        0.21996590075192       -0.11181651023658
C          -10.42128906505873       -1.13274209837929        0.02395918825057
C           -9.11515848697212       -1.58803114160266        0.09635080085629
C           -8.08575690238217       -0.66286924194155        0.03005598837844
C           -6.64509121845352       -0.84042153893013        0.07622299483085
C           -5.87428145515495       -1.98702180868463        0.20129729586987
C           -4.49864338466815       -1.86549442354297        0.21275278128214
C           -3.88833302082299       -0.61388883356257        0.10111916480645
C           -2.43347331563992       -0.51004234790450        0.10736944436823
N           -1.89093777039787        0.70360422164629       -0.01554545261581
C           -0.57957028848127        0.79273445184437       -0.01492079994751
C            0.25983838793450       -0.31995676021374        0.09505985677233
C            1.71677945841512       -0.22025044562982        0.07598880619970
C            2.35539888944926        0.70118054939286       -0.75381987593327
C            3.73160388735011        0.78722805456081       -0.78657944070382
C            4.50550172749094       -0.03930280567170        0.02511281173236
N            5.90121908811645        0.04828689325489       -0.00361740258457
C            6.77516880920435       -1.01285621412307       -0.14547794912727
C            6.50664243603866       -2.36073460160640       -0.33527919583553
C            7.58036792093690       -3.21850373706225       -0.47971636517181
C            8.89301338743569       -2.75346597710113       -0.44671941181381
C            9.16578389341440       -1.41003113783523       -0.28398874662320
C            8.10313460290265       -0.52847517463740       -0.13663104787913
C            8.01760853173237        0.89608335474435        0.02506939958547
C            8.96748742949564        1.90408631402787        0.12356017801855
C            8.53695591951377        3.20339197231832        0.30294733616255
C            7.17957274069198        3.50074808521422        0.40037321077329
C            6.21586756758152        2.51498582381274        0.30525651049823
C            6.64146152525347        1.21068063596747        0.09895229911107
C            3.87469938808611       -0.95503422741881        0.86444194423306
C            2.49860023107009       -1.04767528331611        0.88190470695848
C           -0.41425389495030       -1.53872178668063        0.22020137232738
N           -1.72467689524187       -1.63423800867031        0.23244744816229
C           -4.66849200131305        0.54104807787060       -0.02217636975848
C           -6.03688819659752        0.42095667107191       -0.03391307971762
H           -7.79000645707110        3.22677256769484        0.95409398578483
H           -7.09624867038921        1.95155748224037        1.96160623946583
H           -6.03752061079865        3.00037013799080        1.01248533968754
H           -7.74000391485783        2.99221055841652       -1.58842632213509
H           -7.00749707952327        1.55910103115954       -2.31794307646798
H           -5.98718497777613        2.76901329763682       -1.53249306703832
H           -9.88930527235349        2.20130314438286       -0.28407872785253
H          -11.71926608229836        0.55447786991645       -0.16672318667320
H          -11.23802393424412       -1.83821612468872        0.07346337839894
H           -8.90464495239352       -2.64192471592830        0.20182337462073
H           -6.34025049156980       -2.95743322857595        0.28699309326449
H           -3.86735052660199       -2.73510588087512        0.30662259679176
H           -0.17563256830260        1.79583942317104       -0.08788029605404
H            1.76686086559474        1.33310772027096       -1.40244360931383
H            4.21763313869493        1.48180326109253       -1.45517475202661
H            5.49311782166879       -2.72967439002185       -0.38221029323181
H            7.39706488067681       -4.27287607973532       -0.62548507857107
H            9.70478575226707       -3.45639327935575       -0.56050355750935
H           10.18224214121086       -1.04645787018815       -0.27573212807328
H           10.01985253122317        1.67048746692462        0.06528289966098
H            9.25897157207470        4.00268566668752        0.37945512030427
H            6.87310055945284        4.52439894416371        0.55778202314151
H            5.16753481716203        2.75430767290099        0.40170961191396
H            4.47041067698292       -1.57942291367115        1.51323731185950
H            2.02070294818103       -1.74894200225128        1.54990790433052
H            0.12676210198333       -2.47484938553983        0.29415639222704
H           -4.17461616010875        1.49638201304008       -0.10578716032881

          :  Hamiltonian                  GFN2-xTB          :
         :: gradient norm              0.000047454938 Eh/a0 ::
         :: HOMO-LUMO gap              2.137030902641 eV    ::
         :: SCC energy              -103.703631857350 Eh    ::
         :: -> dispersion             -0.087331964498 Eh    ::
         :: repulsion energy           1.874356705313 Eh    ::

    * Orbital Energies and Occupations

         #    Occupation            Energy/Eh            Energy/eV
      -------------------------------------------------------------
         1        2.0000           -0.6774015             -18.4330
       ...           ...                  ...                  ...
        83        2.0000           -0.4186523             -11.3921
        84        2.0000           -0.4172530             -11.3540
        85        2.0000           -0.4135341             -11.2528
        86        2.0000           -0.4115696             -11.1994
        87        2.0000           -0.4055372             -11.0352
        88        2.0000           -0.4048896             -11.0176
        89        2.0000           -0.4020772             -10.9411
        90        2.0000           -0.4014450             -10.9239
        91        2.0000           -0.3967279             -10.7955
        92        2.0000           -0.3788550             -10.3092
        93        2.0000           -0.3766145             -10.2482
        94        2.0000           -0.3639664              -9.9040
        95        2.0000           -0.3594793              -9.7819 (HOMO)
        96                         -0.2809449              -7.6449 (LUMO)
        97                         -0.2607745              -7.0960
        98                         -0.2487680              -6.7693
        99                         -0.2430070              -6.6126
       100                         -0.2378045              -6.4710
       101                         -0.2226700              -6.0592
       102                         -0.2220924              -6.0434
       103                         -0.2216915              -6.0325
       104                         -0.2172047              -5.9104
       105                         -0.1924926              -5.2380
       106                         -0.1861748              -5.0661
       ...                                ...                  ...
       187                          0.7457183              20.2920
      -------------------------------------------------------------
                  HL-Gap            0.0785344 Eh            2.1370 eV

     #   Z          covCN         q      C6AA      α(0)
     1   6 C        3.759    -0.100    22.452     6.755
     2   6 C        3.936     0.018    20.200     6.387
     3   6 C        3.758    -0.100    22.454     6.756
     4   6 C        3.055     0.000    27.970     8.673
     5   6 C        2.915    -0.033    28.828     8.804
     6   6 C        2.922    -0.032    28.797     8.800
     7   6 C        2.921    -0.033    28.817     8.803
     8   6 C        2.914    -0.033    28.824     8.804
     9   6 C        3.037     0.001    27.980     8.676
    10   6 C        3.037     0.005    27.885     8.661
    11   6 C        2.912    -0.034    28.837     8.806
    12   6 C        2.925    -0.031    28.767     8.796
    13   6 C        2.985    -0.003    28.087     8.693
    14   6 C        2.962     0.178    24.179     8.066
    15   7 N        1.839    -0.251    27.390     7.756
    16   6 C        2.926     0.075    26.330     8.415
    17   6 C        2.965    -0.017    28.420     8.744
    18   6 C        2.974     0.004    27.942     8.671
    19   6 C        2.924    -0.033    28.824     8.804
    20   6 C        2.920    -0.042    29.053     8.839
    21   6 C        2.913     0.065    26.547     8.449
    22   7 N        2.802    -0.043    22.076     6.978
    23   6 C        3.074     0.047    26.880     8.501
    24   6 C        2.910    -0.051    29.261     8.870
    25   6 C        2.924    -0.033    28.827     8.805
    26   6 C        2.920    -0.040    29.005     8.832
    27   6 C        2.913    -0.033    28.812     8.802
    28   6 C        3.068    -0.016    28.351     8.731
    29   6 C        3.068    -0.016    28.351     8.731
    30   6 C        2.913    -0.033    28.812     8.802
    31   6 C        2.920    -0.040    29.005     8.832
    32   6 C        2.924    -0.033    28.829     8.805
    33   6 C        2.910    -0.051    29.261     8.870
    34   6 C        3.074     0.046    26.880     8.501
    35   6 C        2.920    -0.042    29.052     8.839
    36   6 C        2.924    -0.033    28.824     8.804
    37   6 C        2.926     0.075    26.323     8.414
    38   7 N        1.839    -0.250    27.376     7.754
    39   6 C        2.919    -0.032    28.799     8.800
    40   6 C        3.053     0.000    27.978     8.675
    41   1 H        0.925     0.041     2.430     2.438
    42   1 H        0.925     0.036     2.497     2.471
    43   1 H        0.925     0.044     2.400     2.422
    44   1 H        0.925     0.041     2.430     2.438
    45   1 H        0.925     0.036     2.498     2.471
    46   1 H        0.925     0.044     2.400     2.422
    47   1 H        0.926     0.028     2.608     2.525
    48   1 H        0.926     0.030     2.588     2.516
    49   1 H        0.926     0.030     2.591     2.517
    50   1 H        0.926     0.031     2.569     2.506
    51   1 H        0.926     0.035     2.511     2.478
    52   1 H        0.926     0.056     2.246     2.344
    53   1 H        0.925     0.036     2.503     2.474
    54   1 H        0.926     0.038     2.480     2.463
    55   1 H        0.926     0.043     2.405     2.425
    56   1 H        0.926     0.027     2.629     2.535
    57   1 H        0.926     0.030     2.593     2.518
    58   1 H        0.926     0.029     2.606     2.525
    59   1 H        0.926     0.031     2.566     2.505
    60   1 H        0.926     0.031     2.566     2.505
    61   1 H        0.926     0.029     2.607     2.525
    62   1 H        0.926     0.029     2.595     2.519
    63   1 H        0.926     0.027     2.630     2.536
    64   1 H        0.926     0.043     2.403     2.424
    65   1 H        0.926     0.038     2.477     2.461
    66   1 H        0.925     0.037     2.494     2.470
    67   1 H        0.926     0.054     2.270     2.356

molecular dipole:
                 x           y           z       tot (Debye)
 q only:       -0.542       0.299      -0.033
   full:       -0.152       0.297      -0.032       0.852

 projected vibrational frequencies (cm⁻¹)
eigval :       -0.00    -0.00    -0.00    -0.00     0.00     0.00
eigval :       10.22    12.31    17.12    32.18    47.90    49.33
eigval :       53.27    83.79    86.46    96.23   105.78   109.25
eigval :      114.91   118.41   145.42   150.13   183.41   189.61
eigval :      202.08   212.35   217.45   242.10   248.63   252.75
eigval :      271.75   290.23   309.04   311.03   319.33   362.13
eigval :      363.24   378.67   384.65   387.39   396.94   410.59
eigval :      425.03   435.14   439.78   447.58   464.83   487.30
eigval :      496.87   517.49   521.69   528.40   537.22   541.13
eigval :      542.23   562.57   573.68   582.43   595.94   604.97
eigval :      607.70   617.36   632.28   655.75   673.98   691.57
eigval :      694.97   705.70   711.80   725.07   726.21   755.95
eigval :      759.27   769.70   770.71   779.80   780.96   796.87
eigval :      817.53   837.11   865.86   870.16   872.80   874.46
eigval :      879.07   879.69   891.05   898.13   902.51   903.01
eigval :      910.75   919.02   919.28   920.60   923.62   926.76
eigval :      927.90   931.72   934.49   960.77   966.96   985.62
eigval :     1003.22  1012.07  1013.27  1028.75  1068.74  1070.65
eigval :     1074.30  1077.90  1085.76  1101.92  1116.06  1118.47
eigval :     1137.63  1147.50  1153.00  1153.92  1175.60  1176.70
eigval :     1181.32  1182.71  1184.02  1204.38  1204.96  1217.70
eigval :     1224.09  1236.52  1245.01  1245.18  1253.18  1269.04
eigval :     1272.22  1277.70  1289.84  1300.77  1302.21  1315.25
eigval :     1329.49  1336.23  1357.35  1361.88  1364.43  1369.35
eigval :     1383.54  1395.06  1409.61  1411.62  1414.28  1427.94
eigval :     1428.69  1434.94  1439.21  1456.70  1474.11  1476.16
eigval :     1485.78  1488.07  1488.79  1496.31  1501.52  1502.11
eigval :     1513.41  1558.07  1560.18  1575.49  1576.55  1589.32
eigval :     1593.19  1595.15  1599.28  1599.47  1608.12  1615.07
eigval :     3029.70  3032.51  3033.00  3034.19  3035.50  3036.30
eigval :     3039.96  3041.72  3070.81  3075.32  3076.55  3076.92
eigval :     3081.41  3081.50  3082.55  3082.78  3084.31  3084.34
eigval :     3088.59  3090.20  3091.15  3095.51  3096.05  3096.61
eigval :     3097.30  3103.20  3108.11

   temp. (K)  partition function   enthalpy   heat capacity  entropy
                                   cal/mol     cal/K/mol   cal/K/mol   J/K/mol
 298.15  VIB  0.592E+14            18343.097    118.638    113.100
         ROT  0.668E+08              888.752      2.981     38.786
         INT  0.395E+22            19231.849    121.619    151.886
         TR   0.113E+29             1481.254      4.968     44.575
         TOT                       20713.1029   126.5875   196.4618   821.9960

       T/K    H(0)-H(T)+PV         H(T)/Eh          T*S/Eh         G(T)/Eh
   ------------------------------------------------------------------------
    298.15    0.330084E-01    0.555458E+00    0.933453E-01    0.462113E+00
   ------------------------------------------------------------------------

         :::::::::::::::::::::::::::::::::::::::::::::::::::::
         ::                  THERMODYNAMIC                  ::
         :::::::::::::::::::::::::::::::::::::::::::::::::::::
         :: total free energy        -101.367162063988 Eh   ::
         ::.................................................::
         :: total energy             -101.829275152038 Eh   ::
         :: zero point energy           0.522449978565 Eh   ::
         :: G(RRHO) w/o ZPVE           -0.060336890516 Eh   ::
         :: G(RRHO) contrib.            0.462113088050 Eh   ::
         :::::::::::::::::::::::::::::::::::::::::::::::::::::

           -------------------------------------------------
          | TOTAL ENERGY             -101.829275152038 Eh   |
          | TOTAL ENTHALPY           -101.273816742883 Eh   |
          | TOTAL FREE ENERGY        -101.367162063988 Eh   |
          | GRADIENT NORM               0.000047454888 Eh/α |
          | HOMO-LUMO GAP               2.137030877394 eV   |
           -------------------------------------------------

 * finished run on 2025/09/03 at 18:17:24.651
