   * xtb version 6.7.1 (edcfbbe) compiled by 'albert@albert-system' on 2024-07-22

   ID    Z sym.   atoms
    1    6 C      1-6, 8-13, 15-38
    2    5 B      7
    3    7 N      14
    4    1 H      39-72

          program call               : xtb data2507/toluene/C3F7/C3F7_toluene_S0_finalOpt.xtbopt.xyz --gfn 2 --uhf 2 --gbsa toluene --ohess vtight --parallel 40 --molden --ceasefiles --namespace data2507/toluene/C3F7/C3F7_toluene_T1_preOpt
      * Solvation model:               GBSA
        Solvent                        toluene
        Solvent mass                       9.2140E+01 g/mol
          :  Hamiltonian                  GFN2-xTB          :
 * total energy  :   -98.5635394 Eh     change        0.1411138E-10 Eh
 * total energy  :   -98.5663081 Eh     change       -0.2768746E-02 Eh
 * total energy  :   -98.5675295 Eh     change       -0.1221396E-02 Eh
 * total energy  :   -98.5677883 Eh     change       -0.2587388E-03 Eh
 * total energy  :   -98.5681409 Eh     change       -0.3526724E-03 Eh
 * total energy  :   -98.5683291 Eh     change       -0.1881843E-03 Eh
 * total energy  :   -98.5685429 Eh     change       -0.2137489E-03 Eh
 * total energy  :   -98.5687375 Eh     change       -0.1946490E-03 Eh
 * total energy  :   -98.5688532 Eh     change       -0.1157315E-03 Eh
 * total energy  :   -98.5689108 Eh     change       -0.5758738E-04 Eh
 * total energy  :   -98.5692837 Eh     change       -0.4241774E-06 Eh
 * total energy  :   -98.5692841 Eh     change       -0.3955693E-06 Eh
 * total energy  :   -98.5692844 Eh     change       -0.3336846E-06 Eh
 * total energy  :   -98.5692846 Eh     change       -0.2422993E-06 Eh
 * total energy  :   -98.5692849 Eh     change       -0.2293875E-06 Eh
 * total energy  :   -98.5692851 Eh     change       -0.2251534E-06 Eh
 * total energy  :   -98.5692854 Eh     change       -0.2663708E-06 Eh
 * total energy  :   -98.5692856 Eh     change       -0.2430769E-06 Eh
 * total energy  :   -98.5692856 Eh     change       -0.4935274E-08 Eh
   *** GEOMETRY OPTIMIZATION CONVERGED AFTER 44 ITERATIONS ***

 final structure:
================
72
 xtb: 6.7.1 (edcfbbe)
C            3.20558183322264        3.52835082824254        0.76607215442194
C            2.00559447059974        2.63811193926515        0.72875062280996
C            1.83536959515638        1.61897388378978        1.65825055490535
C            0.72730472422909        0.79293774476370        1.63690053992652
C            0.55623503890084       -0.18995461793141        2.75499721021902
C           -0.24514577600949        0.92119391454886        0.60589953916392
B           -1.31072829458654       -0.18835040178668        0.35824516249355
C           -0.92153779718818       -1.65850263247430        0.25463002236185
C           -1.86508152772682       -2.69554646891093        0.49211446218167
C           -1.52643118382553       -4.01631931543479        0.58338368488216
C           -0.19186209980673       -4.41838434822476        0.40901240214416
C            0.76171017840514       -3.45782543527722        0.13574766476351
C            0.43138815525576       -2.11326080848705        0.01912219079481
N            1.46870980201430       -1.22649876920182       -0.28927369247873
C            2.67237631129105       -1.15690921521620        0.38138743158387
C            3.08721957039391       -1.82835400678917        1.52504476130982
C            4.35406113302826       -1.56147372866006        2.01049442922147
C            5.19653616259495       -0.64884251587135        1.37808779996462
C            4.79082072803606        0.02338626370671        0.23835995402861
C            3.52432904576507       -0.22713602534374       -0.26531273708109
C            2.80146002159109        0.25268529815083       -1.41153551612193
C            3.12232448643734        1.11335880974143       -2.44985755074846
C            2.20472785661674        1.29200583225966       -3.46946952169231
C            0.99201768547382        0.60826346036535       -3.46984867826468
C            0.64963392425521       -0.25013101034117       -2.44103972439687
C            1.54909818576993       -0.40534559351403       -1.39795941258947
C           -2.84716477979050        0.20319854463435        0.22571851606217
C           -3.44568164236483        0.99449904268019        1.22462004455279
C           -2.67325069605435        1.43348663299161        2.43291702635773
C           -4.78263398210018        1.34523376167006        1.13682646557676
C           -5.57788401028056        0.93665736686913        0.07394419148949
C           -7.02372875828911        1.33172856437609        0.00592432740195
C           -4.98881021406941        0.15805891627894       -0.90604059806291
C           -3.64892646804354       -0.21122238797395       -0.84782383923474
C           -3.12189616674365       -0.99756880965280       -2.01537875494350
C           -0.13074391618944        2.04897668190857       -0.25184528061872
C           -1.20209858080863        2.34600750310060       -1.25369114534298
C            0.98385985794769        2.85575930153955       -0.19880050149274
H            2.97974347083413        4.44274557040524        1.31824516066361
H            3.50167224966051        3.81379829564856       -0.24152787782895
H            4.03841489879218        3.03170296749178        1.25861256216082
H            2.58572644426222        1.47549814445540        2.42445470190456
H           -0.07026431761238        0.25288420812988        3.53085344958934
H            0.07009989214627       -1.10189493312769        2.42035030823746
H            1.51713809942525       -0.43280936040046        3.20317132081913
H           -2.89491084452167       -2.40251259528060        0.64150800563759
H           -2.28347126498296       -4.75937770071729        0.79277533652095
H            0.07883792524764       -5.46211327576414        0.45305033411323
H            1.78479474788127       -3.75370522605899       -0.05702996561720
H            2.44167819635782       -2.53700475595151        2.02046784996721
H            4.69859160337393       -2.07125084150917        2.89845237138440
H            6.18040745327751       -0.46795457197163        1.78576064327330
H            5.44588926991518        0.72855148449399       -0.25054282988996
H            4.07442215213841        1.62206212183433       -2.46624319086608
H            2.43691039741533        1.95760410719749       -4.28798962204354
H            0.30788322660702        0.74646142493542       -4.29398686371328
H           -0.28128349422231       -0.79162609071186       -2.45172396950413
H           -2.34685306401623        0.56274549529490        2.99991128213972
H           -3.28597449847899        2.05937166351003        3.07862998864120
H           -1.78694698817607        1.99400296452512        2.14121252413242
H           -5.22492417818060        1.94121711339642        1.92481764052470
H           -7.12123205747179        2.41740841498065       -0.01462671153267
H           -7.55971622446742        0.96667148535347        0.88230787193547
H           -7.49661672740700        0.92400430007100       -0.88460809358258
H           -5.57903719758432       -0.16543456209012       -1.75388426292321
H           -2.92889120590918       -0.32805805064489       -2.85589553936224
H           -2.20372154999116       -1.51612192382416       -1.76144333876827
H           -3.85589171200630       -1.73317509437826       -2.34113582184654
H           -2.11510140376683        2.66353947817629       -0.75083306720594
H           -0.88698677431798        3.13408932510082       -1.93397341476363
H           -1.43895777076098        1.45370448585881       -1.82697613216690
H            1.07967765977525        3.67643457542027       -0.89695988411163

          :  Hamiltonian                  GFN2-xTB          :
         :: gradient norm              0.000047941541 Eh/a0 ::
         :: HOMO-LUMO gap              0.290585805283 eV    ::
         :: SCC energy              -100.366778555150 Eh    ::
         :: -> dispersion             -0.110579492425 Eh    ::
         :: -> Gsolv                  -0.032200215188 Eh    ::
         :: repulsion energy           1.797492947757 Eh    ::

    * Orbital Energies and Occupations

         #    Occupation            Energy/Eh            Energy/eV
      -------------------------------------------------------------
         1        2.0000           -0.6768288             -18.4175
       ...           ...                  ...                  ...
        82        2.0000           -0.4075895             -11.0911
        83        2.0000           -0.4071087             -11.0780
        84        2.0000           -0.3954053             -10.7595
        85        2.0000           -0.3894253             -10.5968
        86        2.0000           -0.3879551             -10.5568
        87        2.0000           -0.3853557             -10.4861
        88        2.0000           -0.3842563             -10.4561
        89        2.0000           -0.3753569             -10.2140
        90        2.0000           -0.3736471             -10.1675
        91        2.0000           -0.3681832             -10.0188
        92        1.9988           -0.3646970              -9.9239
        93        1.0012           -0.3519141              -9.5761
        94        0.9964           -0.2579791              -7.0200 (HOMO)
        95        0.0036           -0.2472998              -6.7294 (LUMO)
        96                         -0.2262014              -6.1553
        97                         -0.2162978              -5.8858
        98                         -0.2133371              -5.8052
        99                         -0.2048155              -5.5733
       100                         -0.2035446              -5.5387
       101                         -0.2002347              -5.4487
       102                         -0.1917832              -5.2187
       103                         -0.1883613              -5.1256
       104                         -0.1475411              -4.0148
       105                         -0.0975855              -2.6554
       ...                                ...                  ...
       186                          0.7432500              20.2249
      -------------------------------------------------------------
                  HL-Gap            0.0106793 Eh            0.2906 eV

     #   Z          covCN         q      C6AA      α(0)
     1   6 C        3.757    -0.106    22.573     6.774
     2   6 C        2.962     0.015    27.677     8.629
     3   6 C        2.925    -0.055    29.378     8.889
     4   6 C        2.963     0.012    27.735     8.638
     5   6 C        3.759    -0.111    22.674     6.789
     6   6 C        2.887    -0.061    29.526     8.908
     7   5 B        2.710     0.174    18.791     7.269
     8   6 C        2.879    -0.076    29.907     8.965
     9   6 C        2.917    -0.043    29.065     8.841
    10   6 C        2.911    -0.039    28.963     8.825
    11   6 C        2.915    -0.055    29.365     8.886
    12   6 C        2.918    -0.044    29.083     8.844
    13   6 C        2.908     0.037    27.177     8.548
    14   7 N        2.799    -0.009    21.432     6.876
    15   6 C        3.080     0.050    26.801     8.487
    16   6 C        2.909    -0.041    29.024     8.834
    17   6 C        2.922    -0.036    28.888     8.814
    18   6 C        2.920    -0.037    28.913     8.818
    19   6 C        2.911    -0.032    28.791     8.799
    20   6 C        3.065    -0.012    28.240     8.714
    21   6 C        3.066    -0.013    28.275     8.719
    22   6 C        2.912    -0.032    28.797     8.800
    23   6 C        2.920    -0.036    28.907     8.817
    24   6 C        2.923    -0.033    28.812     8.802
    25   6 C        2.910    -0.044    29.090     8.844
    26   6 C        3.080     0.050    26.802     8.488
    27   6 C        2.886    -0.065    29.605     8.920
    28   6 C        2.966     0.005    27.904     8.665
    29   6 C        3.759    -0.109    22.641     6.784
    30   6 C        2.931    -0.058    29.449     8.900
    31   6 C        2.961     0.001    28.015     8.682
    32   6 C        3.757    -0.104    22.532     6.768
    33   6 C        2.932    -0.058    29.447     8.899
    34   6 C        2.965     0.006    27.895     8.663
    35   6 C        3.760    -0.107    22.590     6.776
    36   6 C        2.963     0.011    27.764     8.643
    37   6 C        3.759    -0.111    22.680     6.789
    38   6 C        2.925    -0.054    29.354     8.885
    39   1 H        0.924     0.050     2.315     2.380
    40   1 H        0.925     0.046     2.373     2.409
    41   1 H        0.925     0.043     2.407     2.426
    42   1 H        0.925     0.021     2.725     2.581
    43   1 H        0.924     0.050     2.318     2.381
    44   1 H        0.925     0.050     2.319     2.381
    45   1 H        0.925     0.039     2.467     2.456
    46   1 H        0.926     0.026     2.649     2.545
    47   1 H        0.925     0.014     2.826     2.629
    48   1 H        0.926     0.015     2.813     2.623
    49   1 H        0.925     0.020     2.728     2.583
    50   1 H        0.926     0.040     2.448     2.447
    51   1 H        0.926     0.034     2.533     2.489
    52   1 H        0.926     0.034     2.536     2.490
    53   1 H        0.926     0.037     2.491     2.468
    54   1 H        0.926     0.036     2.503     2.474
    55   1 H        0.926     0.034     2.525     2.485
    56   1 H        0.926     0.037     2.495     2.470
    57   1 H        0.926     0.042     2.423     2.434
    58   1 H        0.925     0.044     2.403     2.424
    59   1 H        0.925     0.034     2.536     2.491
    60   1 H        0.925     0.049     2.333     2.389
    61   1 H        0.925     0.017     2.777     2.606
    62   1 H        0.924     0.039     2.458     2.452
    63   1 H        0.924     0.039     2.464     2.455
    64   1 H        0.925     0.035     2.514     2.480
    65   1 H        0.925     0.017     2.775     2.605
    66   1 H        0.924     0.037     2.488     2.466
    67   1 H        0.925     0.045     2.379     2.412
    68   1 H        0.925     0.035     2.519     2.482
    69   1 H        0.925     0.050     2.322     2.383
    70   1 H        0.925     0.036     2.503     2.474
    71   1 H        0.925     0.055     2.258     2.350
    72   1 H        0.925     0.023     2.689     2.564

molecular dipole:
                 x           y           z       tot (Debye)
 q only:        0.919       0.716      -0.077
   full:        0.885       0.673      -0.028       2.828

 projected vibrational frequencies (cm⁻¹)
eigval :       -0.00    -0.00     0.00     0.00     0.00     0.00
eigval :        8.54    17.22    29.36    34.33    37.94    39.05
eigval :       41.41    48.73    55.09    69.53    75.56    82.04
eigval :       87.08   106.41   117.92   134.98   137.87   145.74
eigval :      149.51   154.45   165.82   172.94   176.87   186.36
eigval :      191.73   208.24   213.64   218.42   248.00   272.43
eigval :      274.80   276.90   290.97   298.66   308.47   323.30
eigval :      327.67   361.57   391.64   400.76   410.36   423.99
eigval :      434.00   450.12   460.17   472.20   478.80   483.87
eigval :      491.50   500.93   507.86   512.36   515.06   524.05
eigval :      535.83   537.31   549.60   562.18   580.58   590.53
eigval :      596.03   597.66   601.06   616.33   649.27   664.93
eigval :      666.37   672.60   704.36   711.59   736.68   755.19
eigval :      769.65   778.25   833.13   837.92   839.45   849.04
eigval :      863.25   868.43   870.68   872.71   876.31   886.91
eigval :      895.88   901.19   905.98   907.26   916.73   923.21
eigval :      924.03   956.75   959.97   970.91   972.26  1008.81
eigval :     1010.24  1014.74  1021.78  1023.39  1024.61  1025.62
eigval :     1027.64  1030.65  1033.57  1037.06  1039.01  1040.12
eigval :     1057.91  1064.67  1067.38  1070.23  1086.72  1118.77
eigval :     1123.85  1139.86  1156.71  1171.70  1176.64  1177.83
eigval :     1185.37  1195.45  1198.10  1224.60  1226.59  1229.57
eigval :     1235.05  1237.41  1274.89  1284.76  1290.59  1296.97
eigval :     1304.54  1319.01  1330.97  1339.66  1343.08  1365.44
eigval :     1370.07  1388.79  1392.29  1393.67  1397.05  1400.61
eigval :     1401.38  1404.39  1409.73  1414.84  1416.24  1420.25
eigval :     1426.12  1434.42  1452.75  1458.04  1463.04  1464.79
eigval :     1470.37  1471.21  1474.37  1479.24  1479.58  1480.45
eigval :     1481.77  1483.23  1486.02  1486.40  1487.70  1492.13
eigval :     1531.86  1537.90  1557.86  1563.59  1568.78  1579.10
eigval :     1581.28  1590.10  2973.77  2976.47  2982.63  2991.21
eigval :     3004.44  3005.06  3005.40  3016.04  3017.46  3023.09
eigval :     3026.13  3030.41  3030.96  3034.46  3034.74  3042.90
eigval :     3045.44  3048.20  3048.82  3051.04  3054.84  3056.43
eigval :     3058.77  3064.37  3070.17  3073.54  3074.67  3080.64
eigval :     3082.55  3085.68  3089.67  3091.44  3096.21  3123.02

   temp. (K)  partition function   enthalpy   heat capacity  entropy
                                   cal/mol     cal/K/mol   cal/K/mol   J/K/mol
 298.15  VIB  0.284E+17            21110.602    127.951    132.839
         ROT  0.239E+08              888.752      2.981     36.744
         INT  0.680E+24            21999.354    130.932    169.583
         TR   0.105E+29             1481.254      4.968     44.444
         TOT                       23480.6083   135.9000   214.0274   895.4905

       T/K    H(0)-H(T)+PV         H(T)/Eh          T*S/Eh         G(T)/Eh
   ------------------------------------------------------------------------
    298.15    0.374187E-01    0.616458E+00    0.101691E+00    0.514767E+00
   ------------------------------------------------------------------------

         :::::::::::::::::::::::::::::::::::::::::::::::::::::
         ::                  THERMODYNAMIC                  ::
         :::::::::::::::::::::::::::::::::::::::::::::::::::::
         :: total free energy         -98.054518970146 Eh   ::
         ::.................................................::
         :: total energy              -98.569285605378 Eh   ::
         :: zero point energy           0.579039214410 Eh   ::
         :: G(RRHO) w/o ZPVE           -0.064272579177 Eh   ::
         :: G(RRHO) contrib.            0.514766635232 Eh   ::
         :::::::::::::::::::::::::::::::::::::::::::::::::::::

           -------------------------------------------------
          | TOTAL ENERGY              -98.569285605378 Eh   |
          | TOTAL ENTHALPY            -97.952827659834 Eh   |
          | TOTAL FREE ENERGY         -98.054518970146 Eh   |
          | GRADIENT NORM               0.000047938013 Eh/α |
          | HOMO-LUMO GAP               0.290598729117 eV   |
           -------------------------------------------------

 * finished run on 2025/09/02 at 17:27:03.710
