   * xtb version 6.7.1 (edcfbbe) compiled by 'albert@albert-system' on 2024-07-22

   ID    Z sym.   atoms
    1    6 C      1-6, 8-13, 15-38
    2    5 B      7
    3    7 N      14
    4    1 H      39-72

          program call               : xtb data2507/toluene/C3F7/C3F7_toluene_S0_crest.xyz --gfn 2 --gbsa toluene --ohess vtight --parallel 40 --molden --ceasefiles --namespace data2507/toluene/C3F7/C3F7_toluene_S0_finalOpt
      * Solvation model:               GBSA
        Solvent                        toluene
        Solvent mass                       9.2140E+01 g/mol
          :  Hamiltonian                  GFN2-xTB          :
 * total energy  :   -98.6616150 Eh     change       -0.2468738E-08 Eh
 * total energy  :   -98.6617058 Eh     change       -0.9079202E-04 Eh
 * total energy  :   -98.6617556 Eh     change       -0.4977407E-04 Eh
 * total energy  :   -98.6617779 Eh     change       -0.2231806E-04 Eh
 * total energy  :   -98.6618034 Eh     change       -0.2549242E-04 Eh
 * total energy  :   -98.6618395 Eh     change       -0.3604429E-04 Eh
 * total energy  :   -98.6618769 Eh     change       -0.3747805E-04 Eh
 * total energy  :   -98.6618995 Eh     change       -0.2253686E-04 Eh
 * total energy  :   -98.6619099 Eh     change       -0.1040862E-04 Eh
 * total energy  :   -98.6619171 Eh     change       -0.7238252E-05 Eh
 * total energy  :   -98.6621930 Eh     change       -0.5104311E-06 Eh
 * total energy  :   -98.6621937 Eh     change       -0.7222248E-06 Eh
 * total energy  :   -98.6621940 Eh     change       -0.3345664E-06 Eh
 * total energy  :   -98.6621943 Eh     change       -0.2836126E-06 Eh
 * total energy  :   -98.6621947 Eh     change       -0.4175736E-06 Eh
 * total energy  :   -98.6621950 Eh     change       -0.2953433E-06 Eh
 * total energy  :   -98.6621952 Eh     change       -0.1779434E-06 Eh
 * total energy  :   -98.6621953 Eh     change       -0.1238448E-06 Eh
 * total energy  :   -98.6621953 Eh     change       -0.1934211E-08 Eh
   *** GEOMETRY OPTIMIZATION CONVERGED AFTER 94 ITERATIONS ***

 final structure:
================
72
 xtb: 6.7.1 (edcfbbe)
C            3.04225902661099        3.81143979374464        1.08992971095825
C            1.92471602290890        2.82408042087177        0.93976829553928
C            1.74173970996177        1.79721808283537        1.84890194491888
C            0.71264809379677        0.87580272745006        1.70910831927549
C            0.53236994293909       -0.12937618434304        2.81082568483828
C           -0.17620813232461        0.95602242786714        0.62594314601891
B           -1.27241034730479       -0.13465906410357        0.35422943595625
C           -0.86984563187747       -1.65758141488476        0.28680274605199
C           -1.82939008029489       -2.60697635252473        0.66893288136772
C           -1.55658262546874       -3.95956624830362        0.73154039389687
C           -0.29669701490495       -4.42376816784404        0.38990066531806
C            0.67339060427788       -3.52140635499218       -0.00500345510329
C            0.40184769933439       -2.15751320846409       -0.05043450028576
N            1.46634935196511       -1.30804191620829       -0.42586752762429
C            2.64166345790065       -1.18054580325685        0.28246193210552
C            3.03941083252420       -1.81090684981255        1.45323443879630
C            4.28273162761120       -1.49626333687548        1.96697310016635
C            5.11847421576240       -0.57624162482408        1.33626675526554
C            4.73229125428718        0.04670514281441        0.16630885950958
C            3.48825387909249       -0.25603121786537       -0.37167792895513
C            2.79660927724468        0.15376801700837       -1.55978781431653
C            3.13122471778863        0.97930808135139       -2.62493853726079
C            2.24973196546471        1.08916193360843       -3.68185600747128
C            1.05423669755063        0.37398579638725       -3.69268960066567
C            0.69487110231793       -0.44467213758520       -2.63909328938239
C            1.56007346772708       -0.53358584950426       -1.55918084372581
C           -2.79960845148495        0.23240144187916        0.23035118835554
C           -3.43816811527417        0.94679459220815        1.26440619800070
C           -2.68534821076466        1.36245561613278        2.49455970492840
C           -4.78849582575464        1.24357140248447        1.19150363412796
C           -5.56224984995310        0.86870321375061        0.10102019226114
C           -7.01849832351321        1.21887012986978        0.04232748588943
C           -4.93993239867224        0.17090443022645       -0.91851038636598
C           -3.59019027005018       -0.15521142778091       -0.86433070706569
C           -3.01640038137150       -0.88182422995281       -2.04646365907427
C           -0.02885778251965        2.04149570057690       -0.25821916557847
C           -0.99857251558467        2.24998969660998       -1.38471178467923
C            1.01193814510497        2.93965621653980       -0.10022149506198
H            2.66202442275161        4.75061174775407        1.49461191080997
H            3.49709373534913        4.02482103825736        0.12429745301450
H            3.80634484605079        3.43260880059893        1.76479061167400
H            2.41677480299480        1.70348709463229        2.68908205131890
H            0.04373830380012        0.35159379335622        3.65973845189597
H           -0.08102524684473       -0.96843511144794        2.49721134824241
H            1.49798389317945       -0.49581213080042        3.15257381128313
H           -2.81608763812277       -2.25571224529826        0.93438501736962
H           -2.32559197990371       -4.65199804107680        1.04128834843499
H           -0.07140750580883       -5.47954978363559        0.42508035861824
H            1.65954157578082       -3.86601189259707       -0.28326385583016
H            2.40028927356698       -2.52942141554444        1.94462865944537
H            4.61634563486024       -1.97487341810552        2.87696323546225
H            6.08345213667228       -0.35577660004724        1.76974447445797
H            5.38375964212139        0.75398282813397       -0.32553730170121
H            4.07086581456958        1.51206882264566       -2.62983879253140
H            2.49402595236270        1.72297039275953       -4.52212888541018
H            0.39775621385791        0.45730815352994       -4.54723088164827
H           -0.22071627075854       -1.01382290275941       -2.66395345452319
H           -2.33208257896927        0.48597806084590        3.03456678465096
H           -3.32464994862056        1.94104308858877        3.15809687043070
H           -1.81939889378235        1.96460814940799        2.23028789698748
H           -5.25584506526848        1.78315792900268        2.00459867615771
H           -7.14281676772766        2.29943559438068       -0.03458680113180
H           -7.52717288016895        0.89060397906385        0.94805419205321
H           -7.49741582982580        0.75443711203764       -0.81651223718029
H           -5.51710687569872       -0.13412102879655       -1.78138736658476
H           -2.69814627741358       -0.16456309459613       -2.80449731209327
H           -2.16148188580650       -1.48601893651956       -1.76124025555627
H           -3.76807722645885       -1.52770716733487       -2.49704317839242
H           -1.99627397203254        2.44033672590602       -0.99182093338160
H           -0.69821390048096        3.09798525136181       -1.99637448320131
H           -1.04756548940502        1.36848602569983       -2.01733369954046
H            1.11948604083189        3.75275660870280       -0.80581701503557

          :  Hamiltonian                  GFN2-xTB          :
         :: gradient norm              0.000029970366 Eh/a0 ::
         :: HOMO-LUMO gap              2.271929361285 eV    ::
         :: SCC energy              -100.471288076208 Eh    ::
         :: -> dispersion             -0.107670360122 Eh    ::
         :: -> Gsolv                  -0.033355275076 Eh    ::
         :: repulsion energy           1.809092732556 Eh    ::

    * Orbital Energies and Occupations

         #    Occupation            Energy/Eh            Energy/eV
      -------------------------------------------------------------
         1        2.0000           -0.6682904             -18.1851
       ...           ...                  ...                  ...
        81        2.0000           -0.4122771             -11.2186
        82        2.0000           -0.4103579             -11.1664
        83        2.0000           -0.4067912             -11.0694
        84        2.0000           -0.4053306             -11.0296
        85        2.0000           -0.4002366             -10.8910
        86        2.0000           -0.3989848             -10.8569
        87        2.0000           -0.3911791             -10.6445
        88        2.0000           -0.3796396             -10.3305
        89        2.0000           -0.3785046             -10.2996
        90        2.0000           -0.3718415             -10.1183
        91        2.0000           -0.3705181             -10.0823
        92        2.0000           -0.3676521             -10.0043
        93        2.0000           -0.3552545              -9.6670 (HOMO)
        94                         -0.2717627              -7.3950 (LUMO)
        95                         -0.2404273              -6.5424
        96                         -0.2285478              -6.2191
        97                         -0.2185925              -5.9482
        98                         -0.2169977              -5.9048
        99                         -0.2088015              -5.6818
       100                         -0.2054158              -5.5896
       101                         -0.2017335              -5.4894
       102                         -0.1873957              -5.0993
       103                         -0.1812822              -4.9329
       104                         -0.1686435              -4.5890
       ...                                ...                  ...
       186                          0.7521580              20.4673
      -------------------------------------------------------------
                  HL-Gap            0.0834919 Eh            2.2719 eV

     #   Z          covCN         q      C6AA      α(0)
     1   6 C        3.757    -0.105    22.551     6.771
     2   6 C        2.963     0.011    27.779     8.645
     3   6 C        2.930    -0.057    29.406     8.893
     4   6 C        2.967     0.011    27.778     8.645
     5   6 C        3.759    -0.109    22.642     6.784
     6   6 C        2.889    -0.083    30.069     8.990
     7   5 B        2.707     0.255    17.643     7.045
     8   6 C        2.881    -0.072    29.781     8.947
     9   6 C        2.927    -0.029    28.726     8.790
    10   6 C        2.915    -0.034    28.840     8.806
    11   6 C        2.919    -0.027    28.667     8.780
    12   6 C        2.923    -0.042    29.033     8.836
    13   6 C        2.914     0.065    26.553     8.450
    14   7 N        2.804    -0.051    22.215     7.000
    15   6 C        3.087     0.052    26.738     8.476
    16   6 C        2.910    -0.051    29.270     8.871
    17   6 C        2.924    -0.037    28.920     8.819
    18   6 C        2.920    -0.044    29.101     8.846
    19   6 C        2.912    -0.035    28.866     8.810
    20   6 C        3.069    -0.018    28.391     8.737
    21   6 C        3.071    -0.019    28.400     8.738
    22   6 C        2.913    -0.035    28.869     8.811
    23   6 C        2.920    -0.044    29.091     8.845
    24   6 C        2.924    -0.035    28.879     8.813
    25   6 C        2.910    -0.054    29.339     8.882
    26   6 C        3.083     0.052    26.755     8.480
    27   6 C        2.886    -0.083    30.077     8.991
    28   6 C        2.967     0.011    27.766     8.643
    29   6 C        3.759    -0.114    22.727     6.796
    30   6 C        2.930    -0.058    29.442     8.899
    31   6 C        2.962     0.011    27.772     8.644
    32   6 C        3.757    -0.107    22.595     6.777
    33   6 C        2.931    -0.058    29.440     8.898
    34   6 C        2.967     0.011    27.760     8.642
    35   6 C        3.760    -0.109    22.626     6.781
    36   6 C        2.967     0.010    27.789     8.647
    37   6 C        3.759    -0.111    22.673     6.788
    38   6 C        2.930    -0.056    29.404     8.893
    39   1 H        0.924     0.044     2.394     2.420
    40   1 H        0.925     0.041     2.440     2.443
    41   1 H        0.925     0.038     2.476     2.461
    42   1 H        0.925     0.019     2.752     2.594
    43   1 H        0.924     0.045     2.389     2.417
    44   1 H        0.925     0.038     2.476     2.461
    45   1 H        0.925     0.040     2.447     2.446
    46   1 H        0.926     0.040     2.447     2.446
    47   1 H        0.926     0.036     2.509     2.477
    48   1 H        0.926     0.037     2.494     2.470
    49   1 H        0.926     0.035     2.517     2.481
    50   1 H        0.926     0.028     2.612     2.527
    51   1 H        0.926     0.026     2.645     2.543
    52   1 H        0.926     0.024     2.673     2.557
    53   1 H        0.926     0.027     2.632     2.537
    54   1 H        0.926     0.026     2.641     2.541
    55   1 H        0.926     0.025     2.663     2.552
    56   1 H        0.926     0.027     2.629     2.535
    57   1 H        0.926     0.027     2.632     2.537
    58   1 H        0.925     0.044     2.398     2.422
    59   1 H        0.925     0.037     2.489     2.467
    60   1 H        0.925     0.049     2.332     2.388
    61   1 H        0.925     0.022     2.700     2.570
    62   1 H        0.924     0.044     2.396     2.421
    63   1 H        0.925     0.043     2.410     2.428
    64   1 H        0.925     0.039     2.468     2.457
    65   1 H        0.925     0.022     2.704     2.572
    66   1 H        0.924     0.042     2.425     2.435
    67   1 H        0.925     0.040     2.443     2.444
    68   1 H        0.925     0.039     2.461     2.453
    69   1 H        0.925     0.047     2.353     2.399
    70   1 H        0.925     0.034     2.529     2.487
    71   1 H        0.925     0.044     2.398     2.421
    72   1 H        0.925     0.019     2.741     2.589

molecular dipole:
                 x           y           z       tot (Debye)
 q only:       -0.756      -0.405       0.259
   full:       -0.740      -0.451       0.267       2.305

 projected vibrational frequencies (cm⁻¹)
eigval :       -0.00    -0.00    -0.00    -0.00     0.00     0.00
eigval :       14.83    26.49    33.33    37.33    44.01    47.12
eigval :       52.92    59.32    73.48    83.28    95.85   104.51
eigval :      109.19   119.64   128.15   132.89   140.42   143.81
eigval :      147.69   156.05   167.63   174.40   183.80   184.74
eigval :      196.00   206.84   210.34   216.86   244.71   273.88
eigval :      274.46   278.48   283.28   310.77   323.55   327.45
eigval :      333.29   359.14   399.30   408.94   420.33   428.63
eigval :      436.87   461.54   478.65   483.44   489.71   493.59
eigval :      499.39   509.03   513.21   516.24   519.40   536.68
eigval :      542.10   545.36   557.46   581.71   594.56   598.72
eigval :      601.38   605.40   607.68   628.63   672.94   679.06
eigval :      679.97   705.84   706.70   718.93   756.43   767.76
eigval :      779.74   781.53   834.22   839.09   865.31   869.24
eigval :      876.21   879.91   888.51   889.15   890.37   898.36
eigval :      898.84   904.64   916.42   923.07   925.74   927.62
eigval :      934.58   963.40   964.29   976.00   977.16  1011.34
eigval :     1021.98  1023.74  1029.01  1029.94  1031.09  1033.68
eigval :     1034.76  1036.18  1041.91  1042.47  1043.55  1044.20
eigval :     1067.73  1070.16  1072.06  1097.68  1110.57  1135.55
eigval :     1149.51  1159.39  1174.92  1178.60  1180.98  1183.23
eigval :     1193.79  1209.18  1218.68  1235.83  1236.06  1237.05
eigval :     1241.41  1251.05  1290.38  1298.60  1301.25  1302.58
eigval :     1305.25  1333.49  1337.15  1352.54  1361.71  1364.73
eigval :     1397.47  1398.64  1400.11  1401.97  1404.08  1407.45
eigval :     1408.36  1424.24  1427.98  1428.62  1432.62  1448.18
eigval :     1453.69  1458.97  1473.81  1475.73  1476.98  1477.37
eigval :     1478.92  1481.71  1482.97  1484.85  1485.89  1486.37
eigval :     1488.57  1489.19  1493.18  1499.20  1552.61  1557.56
eigval :     1559.54  1572.98  1579.89  1590.70  1598.41  1600.81
eigval :     1603.27  1616.53  2984.14  2984.68  2987.26  2994.90
eigval :     3013.20  3013.91  3017.60  3022.01  3022.14  3029.22
eigval :     3030.70  3031.31  3035.58  3037.32  3038.84  3050.24
eigval :     3053.90  3054.86  3057.16  3058.55  3059.18  3063.98
eigval :     3065.55  3066.58  3070.35  3072.02  3073.11  3073.68
eigval :     3080.61  3080.88  3083.95  3088.04  3090.10  3105.82

   temp. (K)  partition function   enthalpy   heat capacity  entropy
                                   cal/mol     cal/K/mol   cal/K/mol   J/K/mol
 298.15  VIB  0.122E+16            20660.474    127.670    128.611
         ROT  0.245E+08              888.752      2.981     36.789
         INT  0.299E+23            21549.227    130.651    165.399
         TR   0.105E+29             1481.254      4.968     44.444
         TOT                       23030.4805   135.6195   209.8434   877.9849

       T/K    H(0)-H(T)+PV         H(T)/Eh          T*S/Eh         G(T)/Eh
   ------------------------------------------------------------------------
    298.15    0.367014E-01    0.620401E+00    0.997034E-01    0.520698E+00
   ------------------------------------------------------------------------

         :::::::::::::::::::::::::::::::::::::::::::::::::::::
         ::                  THERMODYNAMIC                  ::
         :::::::::::::::::::::::::::::::::::::::::::::::::::::
         :: total free energy         -98.141497430657 Eh   ::
         ::.................................................::
         :: total energy              -98.662195341030 Eh   ::
         :: zero point energy           0.583699883729 Eh   ::
         :: G(RRHO) w/o ZPVE           -0.063001973356 Eh   ::
         :: G(RRHO) contrib.            0.520697910372 Eh   ::
         :::::::::::::::::::::::::::::::::::::::::::::::::::::

           -------------------------------------------------
          | TOTAL ENERGY              -98.662195341030 Eh   |
          | TOTAL ENTHALPY            -98.041794050489 Eh   |
          | TOTAL FREE ENERGY         -98.141497430657 Eh   |
          | GRADIENT NORM               0.000029973326 Eh/α |
          | HOMO-LUMO GAP               2.271929422740 eV   |
           -------------------------------------------------

 * finished run on 2025/09/02 at 17:26:44.591
