   * xtb version 6.7.1 (edcfbbe) compiled by 'albert@albert-system' on 2024-07-22

   ID    Z sym.   atoms
    1    6 C      1-6, 8-13, 15-38
    2    5 B      7
    3    7 N      14
    4    1 H      39-72

          program call               : xtb data2507/toluene/C3F7/C3F7_toluene_T1_crest.xyz --gfn 2 --uhf 2 --gbsa toluene --ohess vtight --parallel 40 --molden --ceasefiles --namespace data2507/toluene/C3F7/C3F7_toluene_T1_finalOpt
      * Solvation model:               GBSA
        Solvent                        toluene
        Solvent mass                       9.2140E+01 g/mol
          :  Hamiltonian                  GFN2-xTB          :
 * total energy  :   -98.5690269 Eh     change       -0.8965813E-08 Eh
 * total energy  :   -98.5691297 Eh     change       -0.1027745E-03 Eh
 * total energy  :   -98.5691782 Eh     change       -0.4854313E-04 Eh
 * total energy  :   -98.5691925 Eh     change       -0.1427459E-04 Eh
 * total energy  :   -98.5692166 Eh     change       -0.2405484E-04 Eh
 * total energy  :   -98.5692286 Eh     change       -0.1209262E-04 Eh
 * total energy  :   -98.5692473 Eh     change       -0.1861354E-04 Eh
 * total energy  :   -98.5692580 Eh     change       -0.1070087E-04 Eh
 * total energy  :   -98.5692646 Eh     change       -0.6632872E-05 Eh
 * total energy  :   -98.5692698 Eh     change       -0.5164010E-05 Eh
 * total energy  :   -98.5693148 Eh     change       -0.7383529E-06 Eh
 * total energy  :   -98.5693152 Eh     change       -0.4186989E-06 Eh
 * total energy  :   -98.5693158 Eh     change       -0.5801143E-06 Eh
 * total energy  :   -98.5693161 Eh     change       -0.3508484E-06 Eh
 * total energy  :   -98.5693166 Eh     change       -0.4724330E-06 Eh
 * total energy  :   -98.5693170 Eh     change       -0.3457058E-06 Eh
 * total energy  :   -98.5693171 Eh     change       -0.1792045E-06 Eh
 * total energy  :   -98.5693172 Eh     change       -0.1072438E-06 Eh
 * total energy  :   -98.5693173 Eh     change       -0.2067100E-07 Eh
   *** GEOMETRY OPTIMIZATION CONVERGED AFTER 44 ITERATIONS ***

 final structure:
================
72
 xtb: 6.7.1 (edcfbbe)
C            3.10902484661013        3.32944715092957        1.57929214710072
C            1.92864612238467        2.44979057473897        1.32067278847328
C            1.78987135959800        1.24032041411082        1.99546141717503
C            0.70783041952420        0.41097195097341        1.78171007233911
C            0.55778411335583       -0.82179642986810        2.61639805578109
C           -0.27039052010328        0.74460562704130        0.79906882653632
B           -1.30228599259843       -0.31916381888812        0.32254483646903
C           -0.84856695353067       -1.72237877553067       -0.06892182967199
C           -1.73179216518230       -2.83302081299312       -0.00842368655027
C           -1.32552438567805       -4.12822599201799       -0.17083996712123
C            0.02040360460435       -4.41766556871327       -0.44859929231745
C            0.91682583164251       -3.37402843069300       -0.56106408042398
C            0.51755056193601       -2.05045706177288       -0.41194584307721
N            1.49866236801890       -1.06494144726072       -0.57654248608287
C            2.72344503028387       -1.05065234052656        0.05983721618808
C            3.22608912059669       -1.90019348405422        1.03808445174085
C            4.49298094045587       -1.64780696551454        1.53033480066790
C            5.25493144132687       -0.57905589522067        1.06234298261362
C            4.76475259953153        0.26871481458062        0.08461636955977
C            3.49469221910378        0.03777193430115       -0.41959026688648
C            2.70152965357610        0.68113044856754       -1.43079656136397
C            2.93259520828396        1.74264879528336       -2.29192188024693
C            1.96632905501183        2.05573856010220       -3.23100897668118
C            0.79458130561709        1.31069227320680       -3.32820321639776
C            0.54126767356939        0.25236768654348       -2.47447496901402
C            1.48931753509672       -0.04333364578547       -1.50783282091061
C           -2.85076071702282        0.03645080466732        0.26375460094467
C           -3.47589893668257        0.63143892257440        1.37721488076655
C           -2.72962872792336        0.90460855371626        2.64986399291213
C           -4.82796410622821        0.93451173740081        1.34774685083031
C           -5.61392315756545        0.67363429895982        0.23369769141374
C           -7.07759301332380        1.00270906440391        0.23332466769452
C           -4.99864214165020        0.09397617979424       -0.86158252529521
C           -3.64476002151046       -0.22271509753009       -0.86546868455020
C           -3.09500803453301       -0.76814004300518       -2.15380338974080
C           -0.19032248402187        2.03850968641611        0.21874294659154
C           -1.27506268346270        2.52193335783710       -0.69152011729328
C            0.90284275102550        2.84239097514856        0.45836698431620
H            3.17994138636957        4.11751893121050        0.83345115102314
H            4.02572164230233        2.74151645541785        1.56869689116312
H            3.02588199926608        3.79466482158114        2.56314856116941
H            2.54570934981627        0.95301771823084        2.71435634877091
H            0.57843272350719       -1.72074251674115        2.00273478724800
H            1.35304335323138       -0.88442788248480        3.35584839718318
H           -0.40269255995412       -0.81446144076884        3.12862281701606
H           -2.76946991609293       -2.62827756290058        0.21571188144935
H           -2.03724321055418       -4.93755486077712       -0.08484627377324
H            0.34306650340404       -5.43555305696870       -0.60493361148234
H            1.94557393813728       -3.57352635444960       -0.83174611209879
H            2.65057153199855       -2.73499059772005        1.40669246488871
H            4.90202762785954       -2.29487060310439        2.29242908779464
H            6.24244428443181       -0.41568393154077        1.46868232834616
H            5.35874465671017        1.09239393114722       -0.28228090904652
H            3.85322032166073        2.30385638730560       -2.23698665695788
H            2.12848610725897        2.87823977004130       -3.91222107247718
H            0.07172248654539        1.56083473287313       -4.09077820461211
H           -0.35760796977215       -0.33360803646809       -2.56213821462236
H           -3.31680566708773        1.53516114228320        3.31442973938022
H           -1.78026346934006        1.39524428477971        2.44815186154934
H           -2.52162050067449       -0.03304219056773        3.16637847864036
H           -5.28801883905317        1.37516202260751        2.22296966348572
H           -7.49624298768388        0.91113169037809       -0.76637807585387
H           -7.24257048949880        2.01823050527243        0.59146210177489
H           -7.61752926999396        0.32417756938160        0.89535788670377
H           -5.58055849267395       -0.10514254751913       -1.75240192754366
H           -2.19577161683139       -1.35140780285774       -1.98872144204685
H           -3.83276697274937       -1.40133109953000       -2.64409576209128
H           -2.86206613193288        0.05503196207101       -2.83220126962792
H           -0.98270784168138        3.44534993988163       -1.18624783923999
H           -1.49819720157083        1.76894671528149       -1.44316453171674
H           -2.19046964306466        2.70203556814770       -0.12839244081515
H            0.97355451167524        3.80210211118715       -0.03576921847011

          :  Hamiltonian                  GFN2-xTB          :
         :: gradient norm              0.000045054347 Eh/a0 ::
         :: HOMO-LUMO gap              0.313196065398 eV    ::
         :: SCC energy              -100.366299635237 Eh    ::
         :: -> dispersion             -0.110604151482 Eh    ::
         :: -> Gsolv                  -0.032285712234 Eh    ::
         :: repulsion energy           1.796982372121 Eh    ::

    * Orbital Energies and Occupations

         #    Occupation            Energy/Eh            Energy/eV
      -------------------------------------------------------------
         1        2.0000           -0.6767067             -18.4141
       ...           ...                  ...                  ...
        82        2.0000           -0.4077867             -11.0964
        83        2.0000           -0.4071650             -11.0795
        84        2.0000           -0.3960337             -10.7766
        85        2.0000           -0.3900814             -10.6147
        86        2.0000           -0.3879739             -10.5573
        87        2.0000           -0.3855141             -10.4904
        88        2.0000           -0.3843189             -10.4578
        89        2.0000           -0.3752513             -10.2111
        90        2.0000           -0.3737629             -10.1706
        91        2.0000           -0.3680793             -10.0159
        92        1.9993           -0.3649773              -9.9315
        93        1.0007           -0.3512318              -9.5575
        94        0.9977           -0.2588039              -7.0424 (HOMO)
        95        0.0023           -0.2472936              -6.7292 (LUMO)
        96                         -0.2259244              -6.1477
        97                         -0.2169301              -5.9030
        98                         -0.2140710              -5.8252
        99                         -0.2048375              -5.5739
       100                         -0.2039012              -5.5484
       101                         -0.2004447              -5.4544
       102                         -0.1915782              -5.2131
       103                         -0.1881323              -5.1193
       104                         -0.1474778              -4.0131
       105                         -0.0977664              -2.6604
       ...                                ...                  ...
       186                          0.7434624              20.2306
      -------------------------------------------------------------
                  HL-Gap            0.0115103 Eh            0.3132 eV

     #   Z          covCN         q      C6AA      α(0)
     1   6 C        3.757    -0.106    22.578     6.775
     2   6 C        2.962     0.015    27.686     8.631
     3   6 C        2.924    -0.055    29.378     8.889
     4   6 C        2.963     0.012    27.752     8.641
     5   6 C        3.759    -0.111    22.670     6.788
     6   6 C        2.888    -0.062    29.534     8.910
     7   5 B        2.710     0.173    18.807     7.272
     8   6 C        2.879    -0.074    29.845     8.956
     9   6 C        2.917    -0.041    29.028     8.835
    10   6 C        2.911    -0.039    28.961     8.825
    11   6 C        2.915    -0.054    29.342     8.883
    12   6 C        2.918    -0.044    29.104     8.847
    13   6 C        2.907     0.037    27.173     8.547
    14   7 N        2.799    -0.012    21.483     6.884
    15   6 C        3.078     0.050    26.803     8.488
    16   6 C        2.910    -0.041    29.020     8.833
    17   6 C        2.922    -0.035    28.870     8.811
    18   6 C        2.920    -0.037    28.912     8.817
    19   6 C        2.911    -0.032    28.800     8.800
    20   6 C        3.066    -0.012    28.246     8.715
    21   6 C        3.065    -0.013    28.283     8.721
    22   6 C        2.912    -0.032    28.794     8.799
    23   6 C        2.920    -0.037    28.913     8.818
    24   6 C        2.923    -0.032    28.808     8.802
    25   6 C        2.911    -0.045    29.118     8.848
    26   6 C        3.080     0.050    26.796     8.486
    27   6 C        2.885    -0.065    29.613     8.922
    28   6 C        2.966     0.005    27.913     8.666
    29   6 C        3.759    -0.108    22.618     6.780
    30   6 C        2.931    -0.058    29.444     8.899
    31   6 C        2.961     0.001    28.015     8.682
    32   6 C        3.757    -0.104    22.532     6.768
    33   6 C        2.933    -0.058    29.442     8.899
    34   6 C        2.965     0.005    27.897     8.664
    35   6 C        3.760    -0.107    22.601     6.777
    36   6 C        2.962     0.011    27.762     8.642
    37   6 C        3.759    -0.111    22.674     6.789
    38   6 C        2.924    -0.054    29.338     8.883
    39   1 H        0.925     0.042     2.419     2.432
    40   1 H        0.925     0.047     2.352     2.398
    41   1 H        0.924     0.050     2.325     2.384
    42   1 H        0.925     0.021     2.723     2.581
    43   1 H        0.925     0.053     2.281     2.362
    44   1 H        0.925     0.037     2.488     2.467
    45   1 H        0.925     0.050     2.325     2.385
    46   1 H        0.926     0.026     2.638     2.540
    47   1 H        0.926     0.015     2.812     2.622
    48   1 H        0.926     0.015     2.805     2.619
    49   1 H        0.925     0.020     2.729     2.583
    50   1 H        0.926     0.038     2.469     2.457
    51   1 H        0.926     0.034     2.524     2.484
    52   1 H        0.926     0.033     2.537     2.491
    53   1 H        0.926     0.036     2.506     2.475
    54   1 H        0.926     0.036     2.500     2.472
    55   1 H        0.926     0.034     2.528     2.486
    56   1 H        0.926     0.036     2.504     2.475
    57   1 H        0.926     0.044     2.402     2.424
    58   1 H        0.925     0.034     2.527     2.486
    59   1 H        0.925     0.052     2.296     2.370
    60   1 H        0.924     0.038     2.476     2.461
    61   1 H        0.925     0.017     2.778     2.607
    62   1 H        0.925     0.036     2.509     2.477
    63   1 H        0.925     0.038     2.470     2.458
    64   1 H        0.924     0.040     2.455     2.450
    65   1 H        0.925     0.017     2.776     2.605
    66   1 H        0.925     0.046     2.365     2.405
    67   1 H        0.925     0.035     2.523     2.484
    68   1 H        0.924     0.037     2.485     2.465
    69   1 H        0.925     0.036     2.502     2.474
    70   1 H        0.925     0.054     2.270     2.356
    71   1 H        0.925     0.051     2.310     2.377
    72   1 H        0.925     0.022     2.697     2.568

molecular dipole:
                 x           y           z       tot (Debye)
 q only:        0.852       0.685       0.049
   full:        0.832       0.604       0.095       2.625

 projected vibrational frequencies (cm⁻¹)
eigval :       -0.00    -0.00    -0.00    -0.00     0.00     0.00
eigval :      -34.47    20.69    29.65    33.60    42.48    49.98
eigval :       54.31    67.29    76.25    79.51    83.67    85.33
eigval :       98.82   108.64   124.85   133.20   138.18   146.18
eigval :      149.82   158.46   161.59   172.86   179.22   187.63
eigval :      191.89   212.00   216.27   218.90   250.73   274.10
eigval :      276.44   279.97   292.89   299.29   308.25   324.42
eigval :      331.89   360.31   392.54   402.08   409.88   425.64
eigval :      434.40   450.62   461.04   474.77   479.89   486.97
eigval :      491.35   499.63   506.97   512.36   515.45   522.43
eigval :      536.07   538.92   550.10   561.10   580.38   591.53
eigval :      595.90   597.68   601.67   616.27   649.89   664.85
eigval :      666.53   672.72   704.54   711.41   738.09   755.01
eigval :      768.69   776.93   832.85   835.04   841.98   848.81
eigval :      866.04   867.61   869.76   871.50   873.96   887.63
eigval :      896.21   900.90   906.25   907.33   917.21   919.63
eigval :      920.89   957.83   959.60   971.69   973.93  1007.58
eigval :     1009.77  1013.80  1019.51  1023.31  1023.87  1025.72
eigval :     1029.68  1029.82  1032.71  1037.03  1039.19  1041.71
eigval :     1058.57  1066.35  1069.34  1071.33  1088.25  1118.93
eigval :     1126.16  1141.07  1156.88  1169.90  1174.68  1180.01
eigval :     1186.44  1194.65  1199.45  1224.85  1226.74  1228.13
eigval :     1235.35  1237.65  1275.11  1283.10  1289.84  1298.13
eigval :     1304.61  1320.50  1327.12  1340.53  1343.24  1365.54
eigval :     1372.52  1390.91  1394.27  1396.03  1397.37  1400.09
eigval :     1400.66  1405.78  1410.23  1415.44  1416.12  1420.24
eigval :     1423.67  1432.73  1453.14  1458.35  1461.88  1464.38
eigval :     1465.14  1470.24  1474.54  1478.27  1480.40  1481.09
eigval :     1481.69  1482.91  1485.10  1488.14  1489.93  1490.89
eigval :     1532.13  1536.30  1559.90  1565.30  1568.38  1580.31
eigval :     1581.41  1592.36  2973.30  2981.05  2986.33  2987.21
eigval :     3002.40  3002.53  3010.87  3015.38  3018.69  3024.13
eigval :     3025.03  3029.35  3031.30  3032.54  3032.86  3036.77
eigval :     3038.24  3044.96  3048.41  3052.31  3054.70  3057.38
eigval :     3057.58  3067.87  3070.27  3073.09  3073.83  3079.75
eigval :     3081.09  3086.85  3088.34  3091.16  3096.00  3130.45

   temp. (K)  partition function   enthalpy   heat capacity  entropy
                                   cal/mol     cal/K/mol   cal/K/mol   J/K/mol
 298.15  VIB  0.203E+15            20358.222    128.140    125.885
         ROT  0.238E+08              888.752      2.981     36.739
         INT  0.485E+22            21246.974    131.121    162.624
         TR   0.105E+29             1481.254      4.968     44.444
         TOT                       22728.2282   136.0888   207.0680   866.3724

       T/K    H(0)-H(T)+PV         H(T)/Eh          T*S/Eh         G(T)/Eh
   ------------------------------------------------------------------------
    298.15    0.362197E-01    0.615574E+00    0.983847E-01    0.517189E+00
   ------------------------------------------------------------------------

         :::::::::::::::::::::::::::::::::::::::::::::::::::::
         ::                  THERMODYNAMIC                  ::
         :::::::::::::::::::::::::::::::::::::::::::::::::::::
         :: total free energy         -98.052128379065 Eh   ::
         ::.................................................::
         :: total energy              -98.569317264274 Eh   ::
         :: zero point energy           0.579353826195 Eh   ::
         :: G(RRHO) w/o ZPVE           -0.062164940985 Eh   ::
         :: G(RRHO) contrib.            0.517188885210 Eh   ::
         :::::::::::::::::::::::::::::::::::::::::::::::::::::

           -------------------------------------------------
          | TOTAL ENERGY              -98.569317264274 Eh   |
          | TOTAL ENTHALPY            -97.953743700920 Eh   |
          | TOTAL FREE ENERGY         -98.052128379065 Eh   |
          | GRADIENT NORM               0.000045565905 Eh/α |
          | HOMO-LUMO GAP               0.313210537846 eV   |
           -------------------------------------------------

 * finished run on 2025/09/02 at 17:33:57.014
