   * xtb version 6.7.1 (edcfbbe) compiled by 'albert@albert-system' on 2024-07-22

   ID    Z sym.   atoms
    1    6 C      1-6, 8-13, 15-38
    2    5 B      7
    3    7 N      14
    4    1 H      39-72

          program call               : xtb data2507/toluene/C3F7/C3F7.xyz --gfn 2 --gbsa toluene --ohess vtight --parallel 40 --molden --ceasefiles --namespace data2507/toluene/C3F7/C3F7_toluene_S0_preOpt
      * Solvation model:               GBSA
        Solvent                        toluene
        Solvent mass                       9.2140E+01 g/mol
          :  Hamiltonian                  GFN2-xTB          :
 * total energy  :   -98.6168701 Eh     change       -0.1822073E-08 Eh
 * total energy  :   -98.6492308 Eh     change       -0.3236075E-01 Eh
 * total energy  :   -98.6565912 Eh     change       -0.7360347E-02 Eh
 * total energy  :   -98.6582607 Eh     change       -0.1669541E-02 Eh
 * total energy  :   -98.6592025 Eh     change       -0.9418266E-03 Eh
 * total energy  :   -98.6596255 Eh     change       -0.4229775E-03 Eh
 * total energy  :   -98.6598953 Eh     change       -0.2697644E-03 Eh
 * total energy  :   -98.6601036 Eh     change       -0.2083565E-03 Eh
 * total energy  :   -98.6603029 Eh     change       -0.1993021E-03 Eh
 * total energy  :   -98.6605103 Eh     change       -0.2073059E-03 Eh
 * total energy  :   -98.6621382 Eh     change       -0.6978170E-06 Eh
 * total energy  :   -98.6621387 Eh     change       -0.5406723E-06 Eh
 * total energy  :   -98.6621389 Eh     change       -0.2199159E-06 Eh
 * total energy  :   -98.6621394 Eh     change       -0.4563108E-06 Eh
 * total energy  :   -98.6621398 Eh     change       -0.4367140E-06 Eh
 * total energy  :   -98.6621403 Eh     change       -0.4696988E-06 Eh
 * total energy  :   -98.6621409 Eh     change       -0.5731254E-06 Eh
 * total energy  :   -98.6621413 Eh     change       -0.4295925E-06 Eh
 * total energy  :   -98.6621413 Eh     change       -0.5640992E-07 Eh
   *** GEOMETRY OPTIMIZATION CONVERGED AFTER 128 ITERATIONS ***

 final structure:
================
72
 xtb: 6.7.1 (edcfbbe)
C            3.37544615095271        3.52050521760772       -1.07660108169558
C            2.22793927372107        2.64142959941455       -0.68040412091142
C            2.02421873894458        2.26879025134059        0.63629775676565
C            0.96558434263455        1.44985160908042        1.00613684897164
C            0.76971341754067        1.19990215616568        2.47452932407889
C            0.06711425579126        0.96495685595754        0.04344938857716
B           -1.07161747076076       -0.05781081498276        0.39386102086896
C           -0.72712428058302       -1.38786937637076        1.16669794248945
C           -1.71435747539174       -1.93854640390657        1.99746044541860
C           -1.49052464389564       -3.05090235425642        2.78511710802368
C           -0.25464173204548       -3.67654473406510        2.75649197800679
C            0.74118960761221       -3.17238337512217        1.94079645232119
C            0.51958367339499       -2.04085678216028        1.16193475131326
N            1.60767130922195       -1.57290515663568        0.39229998922364
C            2.80120750750076       -1.13535789672364        0.92480717081211
C            3.19910028776957       -1.05542861114615        2.25208023676955
C            4.46427417255622       -0.56922692258813        2.51997159541910
C            5.32103935125912       -0.16847996306410        1.49626969295763
C            4.93418745667682       -0.25383676768924        0.17372163578491
C            3.66833213099337       -0.74324395576040       -0.12102793803798
C            2.96815139542774       -1.00527992833576       -1.34537857359765
C            3.31154160380244       -0.89536381548168       -2.68634033233120
C            2.41355850230717       -1.33303346581086       -3.63932593910290
C            1.19264622467160       -1.89187307417881       -3.26787667836792
C            0.82427235946135       -2.00035917837034       -1.94057164246385
C            1.70720234832009       -1.53199972285823       -0.97945916753524
C           -2.58446646344795        0.24403591637234        0.07441738784565
C           -3.17644347728809        1.43722028472839        0.53641171120171
C           -2.38832335092981        2.42832277488585        1.34254160401184
C           -4.51315717302692        1.70519155262885        0.29489293993217
C           -5.31837914645469        0.82620081162489       -0.41725120230153
C           -6.75700063092832        1.15143119592382       -0.68383123109745
C           -4.74243954215564       -0.34576629886378       -0.87407660249458
C           -3.40748570660360       -0.64747251101139       -0.63406331670518
C           -2.88475223345210       -1.92994446703300       -1.21464782820795
C            0.23964683356215        1.39836746681929       -1.28477286907920
C           -0.73610205570345        1.00152150955027       -2.35404692443221
C            1.30824955046332        2.20823254124637       -1.62644994595243
H            3.84365090286645        3.15098896385545       -1.98730550655038
H            4.12239923913688        3.56245433964302       -0.28731687484812
H            3.02309083332573        4.53464256942555       -1.27050956182882
H            2.70498906572934        2.61941563569989        1.40054322766674
H            1.72703205542090        1.02248652806726        2.96005800988211
H            0.32722929049141        2.08522796507069        2.93413596764430
H            0.11130132439083        0.35652753309473        2.65838522738928
H           -2.68300387394515       -1.46041078332056        2.02360153810004
H           -2.27879397041417       -3.43326924161443        3.41689740016886
H           -0.06782864936931       -4.55289174124475        3.35963431549510
H            1.70887349205934       -3.65251948349050        1.89942378609288
H            2.54346520354349       -1.36906150393843        3.05084216516066
H            4.79838696590082       -0.49920181091651        3.54558722448312
H            6.30254536601766        0.20818394534263        1.74621019443278
H            5.60139333000970        0.05098046145259       -0.61906306054616
H            4.26961907568773       -0.48786254455886       -2.97403682948121
H            2.66424656690229       -1.26033993327307       -4.68782231178311
H            0.52307440062748       -2.25325809358504       -4.03544991780535
H           -0.11185547679780       -2.45481557336925       -1.65790887871281
H           -2.03805862088721        1.97151494719890        2.26596122341909
H           -3.00177911526646        3.29057447973362        1.59545592837582
H           -1.51783055081144        2.76986836816536        0.78732340344368
H           -4.94430749052523        2.62390112131192        0.67012388397093
H           -7.28598369229070        0.28625565707747       -1.07674789766323
H           -6.82961045024222        1.95923473277959       -1.41305777010005
H           -7.25129601603400        1.48246303910213        0.22843092753132
H           -5.34563302092422       -1.05035540355089       -1.43131881778658
H           -3.67196795743193       -2.68126584418962       -1.24634862759500
H           -2.54545414738539       -1.76265551389372       -2.23811944922709
H           -2.05455891928142       -2.31811123414807       -0.63381312101012
H           -1.70944596287925        1.44960328931972       -2.15813482715956
H           -0.39094825303915        1.33562248123849       -3.33009750867969
H           -0.86076532892528       -0.07667673388337       -2.38200454709585
H            1.43277127241124        2.51127221449670       -2.65762150181661

          :  Hamiltonian                  GFN2-xTB          :
         :: gradient norm              0.000142529897 Eh/a0 ::
         :: HOMO-LUMO gap              2.270826206667 eV    ::
         :: SCC energy              -100.471173345311 Eh    ::
         :: -> dispersion             -0.107590372633 Eh    ::
         :: -> Gsolv                  -0.033354464738 Eh    ::
         :: repulsion energy           1.809031999797 Eh    ::

    * Orbital Energies and Occupations

         #    Occupation            Energy/Eh            Energy/eV
      -------------------------------------------------------------
         1        2.0000           -0.6682778             -18.1848
       ...           ...                  ...                  ...
        81        2.0000           -0.4122679             -11.2184
        82        2.0000           -0.4103741             -11.1668
        83        2.0000           -0.4067163             -11.0673
        84        2.0000           -0.4053009             -11.0288
        85        2.0000           -0.4002327             -10.8909
        86        2.0000           -0.3989039             -10.8547
        87        2.0000           -0.3910501             -10.6410
        88        2.0000           -0.3795196             -10.3273
        89        2.0000           -0.3785000             -10.2995
        90        2.0000           -0.3719592             -10.1215
        91        2.0000           -0.3706002             -10.0845
        92        2.0000           -0.3676491             -10.0042
        93        2.0000           -0.3552754              -9.6675 (HOMO)
        94                         -0.2718238              -7.3967 (LUMO)
        95                         -0.2404330              -6.5425
        96                         -0.2284871              -6.2175
        97                         -0.2185933              -5.9482
        98                         -0.2170782              -5.9070
        99                         -0.2086620              -5.6780
       100                         -0.2053997              -5.5892
       101                         -0.2018500              -5.4926
       102                         -0.1873338              -5.0976
       103                         -0.1812734              -4.9327
       104                         -0.1683011              -4.5797
       ...                                ...                  ...
       186                          0.7520991              20.4657
      -------------------------------------------------------------
                  HL-Gap            0.0834516 Eh            2.2708 eV

     #   Z          covCN         q      C6AA      α(0)
     1   6 C        3.757    -0.105    22.553     6.771
     2   6 C        2.963     0.011    27.779     8.645
     3   6 C        2.930    -0.057    29.407     8.893
     4   6 C        2.967     0.011    27.777     8.645
     5   6 C        3.759    -0.109    22.639     6.783
     6   6 C        2.889    -0.083    30.065     8.990
     7   5 B        2.707     0.255    17.647     7.046
     8   6 C        2.881    -0.072    29.783     8.947
     9   6 C        2.926    -0.029    28.727     8.790
    10   6 C        2.915    -0.034    28.842     8.807
    11   6 C        2.919    -0.027    28.669     8.780
    12   6 C        2.923    -0.042    29.035     8.836
    13   6 C        2.914     0.065    26.553     8.450
    14   7 N        2.803    -0.050    22.211     7.000
    15   6 C        3.086     0.052    26.740     8.477
    16   6 C        2.910    -0.051    29.272     8.872
    17   6 C        2.924    -0.037    28.921     8.819
    18   6 C        2.920    -0.044    29.100     8.846
    19   6 C        2.912    -0.035    28.867     8.810
    20   6 C        3.069    -0.018    28.392     8.737
    21   6 C        3.071    -0.019    28.401     8.738
    22   6 C        2.913    -0.035    28.870     8.811
    23   6 C        2.920    -0.044    29.091     8.845
    24   6 C        2.924    -0.035    28.876     8.812
    25   6 C        2.910    -0.054    29.337     8.882
    26   6 C        3.083     0.051    26.756     8.480
    27   6 C        2.886    -0.083    30.077     8.991
    28   6 C        2.967     0.011    27.761     8.642
    29   6 C        3.759    -0.114    22.726     6.796
    30   6 C        2.930    -0.058    29.440     8.898
    31   6 C        2.962     0.011    27.769     8.643
    32   6 C        3.757    -0.107    22.595     6.777
    33   6 C        2.931    -0.058    29.440     8.898
    34   6 C        2.966     0.011    27.758     8.642
    35   6 C        3.760    -0.109    22.625     6.781
    36   6 C        2.967     0.010    27.790     8.647
    37   6 C        3.759    -0.111    22.667     6.787
    38   6 C        2.930    -0.057    29.405     8.893
    39   1 H        0.925     0.041     2.438     2.442
    40   1 H        0.925     0.038     2.478     2.461
    41   1 H        0.924     0.044     2.395     2.420
    42   1 H        0.925     0.019     2.752     2.594
    43   1 H        0.925     0.040     2.445     2.445
    44   1 H        0.924     0.044     2.393     2.419
    45   1 H        0.925     0.038     2.479     2.462
    46   1 H        0.926     0.040     2.447     2.446
    47   1 H        0.926     0.035     2.510     2.478
    48   1 H        0.926     0.037     2.495     2.470
    49   1 H        0.926     0.035     2.517     2.481
    50   1 H        0.926     0.028     2.612     2.527
    51   1 H        0.926     0.026     2.645     2.543
    52   1 H        0.926     0.024     2.672     2.556
    53   1 H        0.926     0.027     2.632     2.537
    54   1 H        0.926     0.026     2.642     2.542
    55   1 H        0.926     0.025     2.663     2.552
    56   1 H        0.926     0.027     2.628     2.535
    57   1 H        0.926     0.027     2.629     2.535
    58   1 H        0.925     0.044     2.395     2.420
    59   1 H        0.925     0.037     2.489     2.467
    60   1 H        0.925     0.049     2.334     2.389
    61   1 H        0.925     0.022     2.701     2.570
    62   1 H        0.925     0.039     2.464     2.455
    63   1 H        0.924     0.044     2.391     2.418
    64   1 H        0.925     0.042     2.416     2.431
    65   1 H        0.925     0.022     2.703     2.571
    66   1 H        0.925     0.039     2.460     2.453
    67   1 H        0.924     0.041     2.429     2.437
    68   1 H        0.925     0.040     2.442     2.444
    69   1 H        0.925     0.047     2.357     2.401
    70   1 H        0.925     0.034     2.528     2.487
    71   1 H        0.925     0.044     2.397     2.421
    72   1 H        0.925     0.019     2.741     2.589

molecular dipole:
                 x           y           z       tot (Debye)
 q only:       -0.771      -0.168       0.423
   full:       -0.756      -0.199       0.450       2.292

 projected vibrational frequencies (cm⁻¹)
eigval :       -0.00     0.00     0.00     0.00     0.00     0.00
eigval :       13.18    24.95    31.11    37.51    41.63    45.64
eigval :       57.48    72.58    82.80    90.29    99.81   105.19
eigval :      107.64   115.83   123.11   131.91   140.50   142.50
eigval :      145.61   155.75   167.48   174.52   180.84   184.70
eigval :      196.08   203.27   209.26   215.05   244.90   274.06
eigval :      274.28   278.82   283.13   309.15   323.30   327.08
eigval :      331.57   358.36   399.07   408.98   419.97   428.21
eigval :      436.88   461.25   477.48   482.53   489.62   493.71
eigval :      498.67   508.90   512.66   516.29   519.31   536.41
eigval :      542.14   544.83   556.88   581.39   594.15   598.57
eigval :      600.80   604.97   607.78   628.61   672.96   679.05
eigval :      679.85   705.93   706.37   718.73   756.50   768.33
eigval :      779.16   781.15   835.46   837.70   865.47   869.19
eigval :      875.97   879.89   886.17   887.60   890.11   898.15
eigval :      899.03   904.17   917.92   921.73   925.52   927.58
eigval :      933.61   962.96   963.65   974.78   976.97  1011.28
eigval :     1021.62  1023.97  1028.98  1029.34  1030.89  1033.90
eigval :     1034.42  1035.60  1040.46  1041.96  1043.51  1043.56
eigval :     1067.26  1069.79  1071.44  1097.20  1110.64  1135.35
eigval :     1149.42  1159.09  1174.44  1178.31  1180.24  1183.37
eigval :     1192.70  1209.17  1218.04  1235.12  1235.72  1236.82
eigval :     1240.81  1250.89  1290.32  1298.77  1300.71  1302.13
eigval :     1305.38  1333.04  1337.45  1352.57  1361.39  1364.73
eigval :     1396.26  1397.80  1400.71  1402.12  1403.04  1406.72
eigval :     1408.31  1424.16  1427.59  1428.67  1432.53  1448.16
eigval :     1453.61  1459.06  1473.92  1475.66  1477.00  1478.68
eigval :     1479.43  1481.05  1483.76  1484.39  1485.72  1487.21
eigval :     1488.57  1489.10  1492.16  1497.35  1552.53  1557.36
eigval :     1559.81  1572.97  1579.70  1590.73  1598.59  1600.76
eigval :     1603.27  1616.53  2983.57  2984.05  2989.11  2993.03
eigval :     3010.70  3017.56  3020.35  3021.39  3021.50  3028.61
eigval :     3029.70  3030.96  3035.81  3036.09  3038.00  3053.61
eigval :     3053.96  3055.04  3056.97  3058.11  3058.95  3064.37
eigval :     3064.96  3067.13  3071.09  3071.47  3073.37  3074.48
eigval :     3080.04  3081.23  3084.22  3087.74  3090.23  3106.19

   temp. (K)  partition function   enthalpy   heat capacity  entropy
                                   cal/mol     cal/K/mol   cal/K/mol   J/K/mol
 298.15  VIB  0.121E+16            20659.062    127.911    128.527
         ROT  0.245E+08              888.752      2.981     36.789
         INT  0.295E+23            21547.815    130.892    165.317
         TR   0.105E+29             1481.254      4.968     44.444
         TOT                       23029.0687   135.8604   209.7606   877.6386

       T/K    H(0)-H(T)+PV         H(T)/Eh          T*S/Eh         G(T)/Eh
   ------------------------------------------------------------------------
    298.15    0.366992E-01    0.620327E+00    0.996641E-01    0.520663E+00
   ------------------------------------------------------------------------

         :::::::::::::::::::::::::::::::::::::::::::::::::::::
         ::                  THERMODYNAMIC                  ::
         :::::::::::::::::::::::::::::::::::::::::::::::::::::
         :: total free energy         -98.141478469665 Eh   ::
         ::.................................................::
         :: total energy              -98.662141346734 Eh   ::
         :: zero point energy           0.583627772718 Eh   ::
         :: G(RRHO) w/o ZPVE           -0.062964895649 Eh   ::
         :: G(RRHO) contrib.            0.520662877069 Eh   ::
         :::::::::::::::::::::::::::::::::::::::::::::::::::::

           -------------------------------------------------
          | TOTAL ENERGY              -98.662141346734 Eh   |
          | TOTAL ENTHALPY            -98.041814417089 Eh   |
          | TOTAL FREE ENERGY         -98.141478469665 Eh   |
          | GRADIENT NORM               0.000142458592 Eh/α |
          | HOMO-LUMO GAP               2.270833846531 eV   |
           -------------------------------------------------

 * finished run on 2025/09/02 at 17:19:45.991
