   * xtb version 6.7.1 (edcfbbe) compiled by 'albert@albert-system' on 2024-07-22

   ID    Z sym.   atoms
    1    6 C      1-5, 7-13, 15-31, 33-46, 48-72
    2    7 N      6, 14, 32, 47
    3    1 H      73-116

          program call               : xtb data2507/gas/PPI-An-NPIM/PPI-An-NPIM_gas_T1_crest.xyz --gfn 2 --spinpol --tblite --uhf 2 --ohess vtight --parallel 40 --molden --ceasefiles --namespace data2507/gas/PPI-An-NPIM/PPI-An-NPIM_gas_T1_finalOpt
 * total energy  :  -179.7576740 Eh     change        0.1091724E-06 Eh
 * total energy  :  -179.7577349 Eh     change       -0.6088335E-04 Eh
 * total energy  :  -179.7577641 Eh     change       -0.2923710E-04 Eh
 * total energy  :  -179.7577754 Eh     change       -0.1121415E-04 Eh
 * total energy  :  -179.7577871 Eh     change       -0.1173013E-04 Eh
 * total energy  :  -179.7577927 Eh     change       -0.5571161E-05 Eh
 * total energy  :  -179.7577974 Eh     change       -0.4699697E-05 Eh
 * total energy  :  -179.7578005 Eh     change       -0.3099407E-05 Eh
 * total energy  :  -179.7578035 Eh     change       -0.3027058E-05 Eh
 * total energy  :  -179.7578071 Eh     change       -0.3571953E-05 Eh
 * total energy  :  -179.7578415 Eh     change       -0.1674606E-06 Eh
 * total energy  :  -179.7578417 Eh     change       -0.1789669E-06 Eh
 * total energy  :  -179.7578418 Eh     change       -0.1571324E-06 Eh
 * total energy  :  -179.7578420 Eh     change       -0.1705914E-06 Eh
 * total energy  :  -179.7578422 Eh     change       -0.1680029E-06 Eh
 * total energy  :  -179.7578423 Eh     change       -0.1744730E-06 Eh
 * total energy  :  -179.7578425 Eh     change       -0.1222564E-06 Eh
 * total energy  :  -179.7578426 Eh     change       -0.1739317E-06 Eh
 * total energy  :  -179.7578427 Eh     change       -0.8653478E-07 Eh
   *** GEOMETRY OPTIMIZATION CONVERGED AFTER 57 ITERATIONS ***

 final structure:
================
116
 xtb: 6.7.1 (edcfbbe)
C          -13.11092096662537       -2.43453410672357       -0.70716429541185
C          -13.11748915288676       -1.20427345186243       -0.06977819136148
C          -11.93918191678745       -0.50416672659738        0.09937360054188
C          -10.73272713078989       -1.02830016258380       -0.36337224940347
C           -9.51289898168539       -0.25989498543263       -0.17015096565490
N           -9.56016832940935        1.09441488086119       -0.04168283174282
C           -8.32605140401178        1.51592429792941        0.07961559039174
C           -7.96251057937904        2.90855474536543        0.27915732647259
C           -8.77244259046184        3.89174064669346       -0.28962975420549
C           -8.46931414605012        5.22854590959381       -0.12325088345149
C           -7.35793656253586        5.60409628011951        0.61471115586891
C           -6.56356756965239        4.63419654353794        1.20311028243675
C           -6.86296942483215        3.29400939445746        1.04462548433289
N           -7.44401377533703        0.46691651824195        0.03075103422974
C           -6.04186531926937        0.51497626198913        0.07889195636200
C           -5.34053889940410        1.30935973658305       -0.82450278670161
C           -3.96298374361615        1.32715546971877       -0.79803237528344
C           -3.25111764780089        0.54149988155193        0.11399814891389
C           -1.79108165384309        0.53290661270642        0.11613210744864
C           -1.07232255287443        1.75444041269959        0.30418050336362
C           -1.73366383061626        2.95525201566914        0.57651406947406
C           -1.03337056133284        4.13490278346835        0.81410329257531
C            0.34388137008484        4.12094127985631        0.83115551885500
C            1.02825711284854        2.92905111786142        0.60437438922052
C            0.35322244180915        1.74227784418476        0.30970245870989
C            1.05600371869894        0.50950333363241        0.11281743154221
C            2.51091821397941        0.49764785610568        0.09930751208568
C            3.23238927588371       -0.34064999700928        0.95832894389009
C            4.60830260018149       -0.37295466873512        0.93772684307624
C            5.32206337149973        0.41929248562252        0.03485753290508
C            6.76670380797536        0.41614891593625       -0.06105010326920
N            7.46473657875539        1.48237509600679       -0.37206657691464
C            8.76507046359186        1.09943140602449       -0.35385379531097
C            9.91459101490408        1.90574929557874       -0.58323817872015
C            9.79655358382820        3.27179080390192       -0.85962771180267
C           10.91830256578565        4.04020857228211       -1.04669863736503
C           12.17606784518498        3.44786242932833       -0.95416904984244
C           12.30318542526586        2.10421949200785       -0.68829684895927
C           11.18082388015644        1.28325980728819       -0.50059473341089
C           11.27975914905107       -0.14522320398724       -0.25342068513032
C           12.51702819871682       -0.80408761926049       -0.24350893906809
C           12.61999218836741       -2.16211726471413       -0.05488844474913
C           11.47389720238556       -2.93160819818672        0.11673528935217
C           10.24244760699572       -2.32459674750529        0.12196692461938
C           10.11712084031011       -0.93693762497513       -0.03942917908060
C            8.86703708392879       -0.25707709002466       -0.03948767119485
N            7.57357842361144       -0.68243482590745        0.15793412917006
C            7.10832306930274       -1.96949701938624        0.49162266138020
C            6.29491141028611       -2.65782724586349       -0.40108513259233
C            5.80103115601482       -3.90300702312718       -0.05671370375297
C            6.11688403562125       -4.46367434592526        1.16963397623384
C            6.93013115812065       -3.77743886250622        2.05746451053931
C            7.42485845325114       -2.52972217757549        1.72587494103987
C            4.60949590588746        1.28442870492255       -0.80270673552340
C            3.23579028730913        1.32562337455781       -0.76900120291431
C            0.33303749418521       -0.71329740835758       -0.07601983404560
C            0.98703679343141       -1.91404114302799       -0.36252690327754
C            0.28255746346604       -3.09486694353571       -0.58482293701615
C           -1.09464652890461       -3.08427227856034       -0.57210724905541
C           -1.77438191110288       -1.89155938132905       -0.34074243000665
C           -1.09281359116184       -0.70140459409547       -0.07053790945265
C           -3.97113821695705       -0.24513163821441        1.01816293606145
C           -5.34906429342700       -0.25592222244304        1.00806426899451
C           -8.19287314262331       -0.67973707177818       -0.11885995700513
C           -7.58544025001896       -2.00273937886487       -0.18294205642659
C           -6.50364524274411       -2.25556008337007       -1.02532279791637
C           -5.91500231894354       -3.50603857003077       -1.04982269237535
C           -6.39839794789313       -4.52053980519831       -0.24089392270421
C           -7.48181248894473       -4.28125309888724        0.58942778503749
C           -8.07109269045387       -3.03223434565253        0.62252356375792
C          -10.73684109997631       -2.25697041807946       -1.02106855285959
C          -11.91908930583142       -2.95349460706432       -1.18598320349796
H          -14.03190744670938       -2.98408222117604       -0.83728403196068
H          -14.04641728805926       -0.79117294835267        0.29644869961817
H          -11.92791983185340        0.45701246982098        0.58960147230284
H           -9.63492979800980        3.58156448012148       -0.85860483941347
H           -9.09965720774110        5.98250524021237       -0.57144689621634
H           -7.11722770950036        6.64949413668347        0.73972183225843
H           -5.70786309823776        4.92250085257831        1.79646924862082
H           -6.25156505356322        2.55062035515526        1.53470006522240
H           -5.88451580379190        1.90061748936444       -1.54650142528287
H           -3.42068540314893        1.92351459272652       -1.51671893408941
H           -2.81191573333228        2.97093664246556        0.62080532844469
H           -1.57704199506019        5.04855991184331        1.00249304240365
H            0.90071109983092        5.02298292598658        1.03579209722768
H            2.10461506946822        2.92522979410618        0.67734703087650
H            2.69537844694216       -0.94129613195757        1.67832790555889
H            5.12926568162557       -0.99662803710938        1.64802018422183
H            8.80403193487391        3.69147518155093       -0.91225323706588
H           10.83255814194600        5.09565002480609       -1.25898814308134
H           13.06258210298535        4.04986779596175       -1.09282837051922
H           13.29749342394092        1.69165274637795       -0.62333452661035
H           13.42440107577454       -0.24264378035818       -0.39667771450470
H           13.59158862981142       -2.63382855878339       -0.05366600792438
H           11.55048927920094       -4.00171211292283        0.24083776446318
H            9.35629958522827       -2.92846825943335        0.23593280683908
H            6.05322593900559       -2.21001470578319       -1.35363905417901
H            5.16900694861484       -4.43706769416850       -0.75009160785654
H            5.72939594875828       -5.43551837394986        1.43511658032210
H            7.17638557792892       -4.21224051649308        3.01451233476106
H            8.05596367565465       -1.98323122120838        2.41167548905026
H            5.16497193478553        1.90868003671392       -1.48503157968074
H            2.69914092105482        1.97048469551906       -1.44965704311198
H            2.06385166233133       -1.93067265914051       -0.43061129010764
H            0.82370934472285       -4.00809226957647       -0.78308083352341
H           -1.65424206626430       -3.98888663760276       -0.75790781298413
H           -2.85264968985826       -1.88988770880612       -0.38772315584563
H           -3.43592232376377       -0.83127688950591        1.75043273909538
H           -5.89725689614972       -0.85695768554918        1.71836111064301
H           -6.13140644745990       -1.47430273588899       -1.67272347685653
H           -5.07667606659332       -3.68868927594646       -1.70661061271441
H           -5.93559400103041       -5.49610114356199       -0.25999631366761
H           -7.86538622544031       -5.07091861338476        1.21871569869353
H           -8.91157846748694       -2.84056861810611        1.27355335044856
H           -9.81564632072941       -2.66018698365216       -1.41489394617521
H          -11.91141057692520       -3.90588756246779       -1.69670878929672

 projected vibrational frequencies (cm⁻¹)
eigval :       -0.00    -0.00    -0.00     0.00     0.00     0.00
eigval :        4.56     5.51     6.56    10.67    15.88    19.14
eigval :       22.72    30.84    31.80    35.57    39.95    42.63
eigval :       47.40    48.42    55.28    56.90    60.55    67.21
eigval :       71.29    76.63    81.94    83.21    85.87    92.17
eigval :      102.86   117.12   118.89   125.26   132.36   141.31
eigval :      152.80   163.60   172.80   187.49   202.04   217.46
eigval :      221.90   223.52   230.96   239.24   241.00   243.53
eigval :      247.96   257.88   263.20   267.25   273.70   280.17
eigval :      305.25   310.14   336.84   347.07   363.43   370.23
eigval :      371.28   374.56   375.00   376.25   377.73   380.98
eigval :      385.23   387.92   396.71   397.90   403.92   411.19
eigval :      415.05   421.15   432.77   436.33   446.35   452.69
eigval :      471.76   474.15   475.71   479.83   484.51   503.31
eigval :      509.87   513.69   525.16   529.20   531.40   534.54
eigval :      567.21   575.10   580.76   583.35   585.52   586.57
eigval :      587.71   589.31   590.78   607.63   611.52   614.87
eigval :      629.20   634.08   638.88   645.19   651.61   653.20
eigval :      659.30   661.51   664.79   669.51   670.44   672.44
eigval :      675.69   677.71   681.93   686.40   693.28   695.53
eigval :      701.50   706.80   717.40   727.03   735.57   741.98
eigval :      749.98   753.53   761.75   762.60   763.25   764.89
eigval :      766.48   775.77   782.10   794.65   820.90   822.29
eigval :      846.57   851.84   861.99   869.16   874.35   874.58
eigval :      876.23   877.89   878.40   879.30   890.05   893.23
eigval :      894.88   901.51   901.79   902.67   902.81   906.12
eigval :      907.26   907.58   910.96   912.93   914.28   923.51
eigval :      923.53   926.86   928.76   929.21   929.66   930.02
eigval :      930.84   931.26   931.81   932.32   932.51   933.43
eigval :      936.88   939.02   942.79   945.67   954.93   956.58
eigval :      978.41   992.59   997.38  1015.10  1017.05  1028.62
eigval :     1035.23  1069.49  1079.24  1081.85  1082.65  1084.04
eigval :     1085.90  1104.68  1108.66  1109.11  1110.07  1115.46
eigval :     1116.83  1119.18  1120.67  1122.18  1127.62  1132.93
eigval :     1134.53  1139.68  1152.26  1164.98  1173.46  1180.34
eigval :     1181.11  1181.45  1181.72  1182.06  1182.77  1182.85
eigval :     1184.20  1186.18  1188.85  1190.50  1194.72  1196.47
eigval :     1199.93  1201.92  1202.07  1210.94  1219.52  1235.00
eigval :     1253.01  1256.05  1257.99  1262.24  1268.39  1270.86
eigval :     1272.83  1275.24  1279.58  1283.04  1284.39  1285.25
eigval :     1292.31  1298.04  1306.03  1309.63  1312.98  1316.05
eigval :     1316.65  1320.50  1322.18  1323.52  1328.40  1338.53
eigval :     1339.12  1346.06  1362.13  1365.19  1368.47  1373.25
eigval :     1377.97  1399.39  1405.14  1407.82  1409.55  1410.23
eigval :     1418.62  1426.59  1429.78  1430.55  1432.22  1433.51
eigval :     1435.15  1437.32  1451.07  1453.82  1461.83  1471.06
eigval :     1479.89  1484.75  1489.27  1491.54  1507.11  1513.12
eigval :     1522.08  1524.36  1532.23  1534.72  1542.99  1546.58
eigval :     1555.40  1557.81  1561.26  1565.97  1572.33  1577.70
eigval :     1579.69  1579.96  1581.87  1581.94  1592.83  1593.08
eigval :     1596.17  1597.15  1599.09  1602.97  3068.45  3070.90
eigval :     3072.74  3072.92  3073.22  3075.99  3076.04  3076.36
eigval :     3077.81  3078.42  3078.65  3081.04  3081.67  3082.03
eigval :     3082.51  3083.55  3084.02  3084.42  3084.48  3085.27
eigval :     3086.89  3087.05  3087.60  3087.61  3090.50  3091.60
eigval :     3092.67  3093.39  3094.22  3094.75  3095.31  3095.78
eigval :     3096.84  3097.06  3097.52  3098.93  3102.22  3102.46
eigval :     3103.75  3105.05  3105.54  3106.52  3111.43  3114.39

   temp. (K)  partition function   enthalpy   heat capacity  entropy
                                   cal/mol     cal/K/mol   cal/K/mol   J/K/mol
 298.15  VIB  0.622E+29            33953.230    210.843    216.019
         ROT  0.349E+09              888.752      2.981     42.070
         INT  0.217E+38            34841.982    213.824    258.089
         TR   0.269E+29             1481.254      4.968     46.303
         TOT                       36323.2361   218.7917   304.3913  1273.5732

       T/K    H(0)-H(T)+PV         H(T)/Eh          T*S/Eh         G(T)/Eh
   ------------------------------------------------------------------------
    298.15    0.578848E-01    0.947844E+00    0.144626E+00    0.803218E+00
   ------------------------------------------------------------------------

         :::::::::::::::::::::::::::::::::::::::::::::::::::::
         ::                  THERMODYNAMIC                  ::
         :::::::::::::::::::::::::::::::::::::::::::::::::::::
         :: total free energy        -178.954625006949 Eh   ::
         ::.................................................::
         :: total energy             -179.757842799295 Eh   ::
         :: zero point energy           0.889959158856 Eh   ::
         :: G(RRHO) w/o ZPVE           -0.086741366510 Eh   ::
         :: G(RRHO) contrib.            0.803217792346 Eh   ::
         :::::::::::::::::::::::::::::::::::::::::::::::::::::

           -------------------------------------------------
          | TOTAL ENERGY             -179.757842799295 Eh   |
          | TOTAL ENTHALPY           -178.809998879218 Eh   |
          | TOTAL FREE ENERGY        -178.954625006949 Eh   |
          | GRADIENT NORM               0.000090129910 Eh/α |
           -------------------------------------------------

 * finished run on 2025/08/24 at 17:18:59.907
