   * xtb version 6.7.1 (edcfbbe) compiled by 'albert@albert-system' on 2024-07-22

   ID    Z sym.   atoms
    1    6 C      1-5, 7-13, 15-31, 33-46, 48-72
    2    7 N      6, 14, 32, 47
    3    1 H      73-116

          program call               : xtb data2507/gas/PPI-An-NPIM/PPI-An-NPIM_gas_S0_finalOpt.xtbopt.xyz --gfn 2 --spinpol --tblite --uhf 2 --ohess vtight --parallel 40 --molden --ceasefiles --namespace data2507/gas/PPI-An-NPIM/PPI-An-NPIM_gas_T1_preOpt
 * total energy  :  -179.7487617 Eh     change       -0.4520217E-08 Eh
 * total energy  :  -179.7549465 Eh     change       -0.6184782E-02 Eh
 * total energy  :  -179.7565153 Eh     change       -0.1568765E-02 Eh
 * total energy  :  -179.7566918 Eh     change       -0.1764907E-03 Eh
 * total energy  :  -179.7569548 Eh     change       -0.2630015E-03 Eh
 * total energy  :  -179.7571162 Eh     change       -0.1614612E-03 Eh
 * total energy  :  -179.7573099 Eh     change       -0.1936914E-03 Eh
 * total energy  :  -179.7574646 Eh     change       -0.1546774E-03 Eh
 * total energy  :  -179.7575271 Eh     change       -0.6251733E-04 Eh
 * total energy  :  -179.7575595 Eh     change       -0.3236638E-04 Eh
 * total energy  :  -179.7578235 Eh     change       -0.1022614E-05 Eh
 * total energy  :  -179.7578247 Eh     change       -0.1204133E-05 Eh
 * total energy  :  -179.7578258 Eh     change       -0.1178056E-05 Eh
 * total energy  :  -179.7578270 Eh     change       -0.1165752E-05 Eh
 * total energy  :  -179.7578277 Eh     change       -0.7161222E-06 Eh
 * total energy  :  -179.7578281 Eh     change       -0.3447406E-06 Eh
 * total energy  :  -179.7578284 Eh     change       -0.3411776E-06 Eh
 * total energy  :  -179.7578287 Eh     change       -0.2636998E-06 Eh
 * total energy  :  -179.7578287 Eh     change       -0.3465632E-07 Eh
   *** GEOMETRY OPTIMIZATION CONVERGED AFTER 44 ITERATIONS ***

 final structure:
================
116
 xtb: 6.7.1 (edcfbbe)
C          -12.98018338784255       -2.69822196806632       -0.66926924720490
C          -13.04291865546581       -1.43821829372496       -0.09630175231682
C          -11.89435485296901       -0.68626356656111        0.05372705553112
C          -10.66183766750160       -1.18721615677215       -0.36376154133151
C           -9.47456001722641       -0.36474466902017       -0.19168864687566
N           -9.57316284280632        0.99142516660269       -0.13075278670186
C           -8.35740330961160        1.46426504958538       -0.01158326939056
C           -8.05085025722507        2.87793412808783        0.12379666634573
C           -8.89651396822261        3.79910102677413       -0.49492942815116
C           -8.65040206627830        5.15361870304056       -0.38962094845435
C           -7.56107074235975        5.60913990927984        0.33614898789705
C           -6.73125643842268        4.70158646467407        0.97302770925292
C           -6.97351054904111        3.34409168825843        0.87573259134960
N           -7.43719426536292        0.44767473459549        0.00508656447868
C           -6.03818197678035        0.54207985708305        0.07366009889516
C           -5.34236307434921        1.30864204502165       -0.85741864263224
C           -3.96550456770964        1.35408076573791       -0.81791540002148
C           -3.24938692225517        0.62299764708691        0.13488531701002
C           -1.78906561080178        0.62606496763975        0.14218902169107
C           -1.07787607638821        1.85809181537957        0.28113737001330
C           -1.74731538796856        3.06568835361569        0.49765942368164
C           -1.05447765968249        4.25771360372542        0.69160600365020
C            0.32260654777800        4.25114440766308        0.72114574915549
C            1.01464362323860        3.05452994603968        0.54810189293094
C            0.34768680292060        1.85367202604611        0.29559736650246
C            1.05777461091411        0.61810470691803        0.14926873908181
C            2.51246666942332        0.61029018653363        0.14047966126783
C            3.23187151353547       -0.20411594970979        1.02435818744164
C            4.60694379246265       -0.24846828452424        0.99676790891923
C            5.32118162002528        0.50953319555991        0.06549395899128
C            6.76501035533369        0.47028485269384       -0.04327826592964
N            7.49716055991045        1.51647065241937       -0.33973993976138
C            8.78364560642714        1.08633378589170       -0.33964851902661
C            9.96011481674164        1.85537748062167       -0.55979560745428
C            9.89026320323680        3.23102631701543       -0.80302457694682
C           11.03814027579569        3.96263553843104       -0.97873965656245
C           12.27411419887104        3.32322567084531       -0.90825636464353
C           12.35384611671431        1.96982461656182       -0.67565080013220
C           11.20348715726977        1.18569142169578       -0.50055651011522
C           11.25203199451085       -0.25104294129385       -0.28906729318786
C           12.46384953942741       -0.95546000972875       -0.30889440652525
C           12.51758211990711       -2.32076381203538       -0.15578935632035
C           11.34518420387468       -3.05135668508719        0.00824232052347
C           10.13747280220404       -2.39929718620211        0.04223544101643
C           10.06295390262001       -1.00425244199058       -0.08231257273191
C            8.83903379475262       -0.27898278870905       -0.05335306116668
N            7.53281936075711       -0.66113393083561        0.14764381394852
C            7.01697759648144       -1.93342102709433        0.46175135462342
C            6.14512813782673       -2.55670427071338       -0.42367252175215
C            5.59707062676416       -3.78342103097482       -0.09571211148913
C            5.91705908226094       -4.39090457796689        1.10700465114409
C            6.78902127551052       -3.77010992820212        1.98714389642175
C            7.33774537451263       -2.54075601278562        1.67229730353248
C            4.61287388920799        1.35940911899967       -0.78978412553712
C            3.23912530944852        1.41031491681608       -0.75203689164347
C            0.34191372428925       -0.61519262583234        0.00366227406054
C            1.00245790222756       -1.82223447651309       -0.23809641480074
C            0.30478732643524       -3.01498142229249       -0.41350783371981
C           -1.07237244331333       -3.01227808264826       -0.39825408490735
C           -1.75877004170412       -1.81526285396191       -0.21373984055155
C           -1.08393322392625       -0.61118536261867        0.00770688855601
C           -3.96431964058162       -0.12904835018644        1.07178285708867
C           -5.34147149351510       -0.16610087194294        1.04876764972596
C           -8.14128240012403       -0.73200420591618       -0.09995497739378
C           -7.48428865838264       -2.03292644610539       -0.09249701721798
C           -6.38507997181629       -2.28583094716136       -0.91202511928134
C           -5.74924819473003       -3.51245391176179       -0.86883558608643
C           -6.20203190365322       -4.50302157456445       -0.01384712410152
C           -7.30237750712330       -4.26442984213134        0.79406909252076
C           -7.93906761327029       -3.03889436314915        0.75927066458875
C          -10.60946365067502       -2.44711727136469       -0.95715874701782
C          -11.76218787636798       -3.19542088646356       -1.10320880018943
H          -13.87786498247193       -3.28821235100429       -0.78425542824878
H          -13.99244334156802       -1.04250678824490        0.23458562590701
H          -11.92676452652377        0.29833748830321        0.49397630689591
H           -9.74119565434992        3.42685564155695       -1.05325582861576
H           -9.30824780486097        5.85892290164557       -0.87586669278874
H           -7.36506076842934        6.66837057555674        0.41384612367842
H           -5.89245267765366        5.05270990515770        1.55656534436948
H           -6.33496347278834        2.65050625907317        1.40278547256116
H           -5.88931528417334        1.85395770661445       -1.61256942245032
H           -3.42661236066680        1.92595588677404       -1.55874066404248
H           -2.82598027370878        3.07712416292873        0.53230624359134
H           -1.60382415529061        5.17575598064590        0.83737528803239
H            0.87339807232893        5.16352080096267        0.89384520452160
H            2.09034231428153        3.05894525021262        0.63027931172725
H            2.69371026208688       -0.77791697720760        1.76501739190498
H            5.12888474255478       -0.85563908559940        1.72077908266271
H            8.91334966292533        3.68749199956200       -0.83896202244946
H           10.98961082280641        5.02534023263757       -1.16488602854759
H           13.18111321947675        3.89604497465523       -1.03773012317828
H           13.33282554696586        1.52009417983755       -0.62645209428866
H           13.39003349947543       -0.42447281858972       -0.45805099442288
H           13.47074524317954       -2.82823074759886       -0.17707406273932
H           11.38285001763699       -4.12645721855157        0.10358786214810
H            9.23018334215693       -2.97234496534471        0.14936175496200
H            5.90092946346833       -2.07332874675412       -1.35804393737484
H            4.91924321115496       -4.26614172545018       -0.78346818638684
H            5.48709059908008       -5.34808921724329        1.36003360114571
H            7.03883379321589       -4.24141510304273        2.92581263890909
H            8.01383653918590       -2.04472225378082        2.35357861504482
H            5.16919350047617        1.96026820915571       -1.49226683538369
H            2.70413402101341        2.03796561282828       -1.44983493635070
H            2.07923639473778       -1.83587604244119       -0.30749425134160
H            0.85131609112043       -3.93189630606414       -0.57701960387225
H           -1.62689545440913       -3.92689988478153       -0.54650259519974
H           -2.83707564471897       -1.82216458083539       -0.25883937400975
H           -3.42592799798640       -0.66959239396726        1.83608633407490
H           -5.88616169620773       -0.74231036746232        1.78193439096425
H           -6.03595031328322       -1.52402209898007       -1.59455066271491
H           -4.89800766622227       -3.69530890353735       -1.50876942269646
H           -5.70229617294464       -5.45978125920493        0.02021975265747
H           -7.66218807446434       -5.03584960989738        1.45900663249389
H           -8.79309622868680       -2.84750182256784        1.39252103738658
H           -9.66754946677488       -2.83475401760544       -1.31603910968057
H          -11.71073014003029       -4.17169687519438       -1.56383959225352

 projected vibrational frequencies (cm⁻¹)
eigval :       -0.00    -0.00     0.00     0.00     0.00     0.00
eigval :        4.57     5.33     6.56    10.35    16.30    19.46
eigval :       22.87    30.22    31.42    35.49    40.28    42.62
eigval :       48.43    48.62    55.58    57.07    60.56    67.25
eigval :       71.44    76.69    82.16    83.50    86.03    92.48
eigval :      102.23   116.73   118.99   125.78   131.98   141.25
eigval :      152.85   164.10   173.41   186.93   202.44   217.80
eigval :      221.99   223.78   231.19   239.53   241.13   243.49
eigval :      248.19   257.63   263.16   267.16   274.05   280.04
eigval :      305.13   310.21   337.06   346.84   363.44   369.54
eigval :      371.08   374.26   374.72   376.74   377.50   381.21
eigval :      385.00   388.43   396.73   398.09   404.01   410.78
eigval :      415.16   421.43   432.44   436.72   445.82   452.68
eigval :      471.83   474.42   475.67   479.95   484.86   503.81
eigval :      509.63   514.08   525.23   529.01   531.31   534.74
eigval :      567.19   574.96   580.61   583.29   585.52   586.58
eigval :      587.71   589.16   590.65   607.37   611.52   614.74
eigval :      629.16   633.90   639.00   645.16   652.01   653.29
eigval :      659.30   661.32   664.85   669.40   670.41   672.53
eigval :      675.67   678.08   682.08   686.28   693.41   695.49
eigval :      701.71   706.97   717.35   727.40   735.58   742.18
eigval :      749.93   753.41   761.70   762.35   763.27   764.68
eigval :      766.78   775.75   782.43   794.50   820.90   822.36
eigval :      846.31   851.64   862.53   869.20   874.55   874.76
eigval :      876.63   877.60   878.07   879.25   890.10   893.15
eigval :      894.86   901.59   901.66   902.61   902.74   906.25
eigval :      907.41   908.04   911.00   913.00   914.62   923.05
eigval :      923.91   927.23   929.00   929.26   929.52   929.64
eigval :      930.80   931.14   931.39   932.20   932.30   933.09
eigval :      937.15   939.01   942.81   945.48   955.00   956.62
eigval :      978.58   992.77   997.49  1015.28  1017.48  1028.84
eigval :     1035.34  1069.63  1079.55  1082.41  1083.09  1084.72
eigval :     1086.11  1104.41  1108.77  1108.99  1109.74  1115.90
eigval :     1116.79  1119.11  1120.83  1122.26  1127.55  1133.65
eigval :     1134.31  1139.36  1152.64  1164.47  1173.34  1179.47
eigval :     1180.42  1181.07  1181.31  1181.87  1182.24  1182.85
eigval :     1184.38  1185.52  1188.90  1190.35  1194.30  1196.06
eigval :     1199.09  1201.15  1201.22  1209.74  1219.29  1235.06
eigval :     1252.77  1256.22  1258.07  1262.12  1268.14  1270.70
eigval :     1272.65  1275.43  1279.20  1282.54  1283.73  1285.01
eigval :     1291.91  1297.90  1305.86  1309.42  1313.40  1315.64
eigval :     1316.35  1320.48  1322.29  1322.89  1328.23  1338.57
eigval :     1339.25  1345.76  1362.39  1365.56  1368.53  1372.97
eigval :     1377.93  1399.17  1404.25  1407.36  1409.48  1410.17
eigval :     1418.15  1426.87  1428.72  1430.40  1430.78  1432.66
eigval :     1434.99  1436.97  1449.50  1454.19  1460.88  1471.12
eigval :     1479.80  1484.47  1488.28  1491.45  1509.05  1513.16
eigval :     1522.04  1524.53  1532.27  1534.18  1543.15  1547.34
eigval :     1555.58  1558.06  1561.45  1566.35  1572.41  1577.64
eigval :     1579.70  1580.14  1581.97  1582.02  1592.81  1593.24
eigval :     1596.09  1597.05  1598.99  1603.01  3068.41  3070.73
eigval :     3072.43  3073.09  3073.19  3075.89  3075.93  3076.55
eigval :     3077.96  3078.36  3078.66  3081.22  3081.51  3081.76
eigval :     3082.38  3083.42  3083.87  3084.23  3084.72  3085.24
eigval :     3086.87  3087.25  3087.57  3087.66  3090.23  3091.61
eigval :     3092.63  3093.27  3094.13  3094.44  3094.73  3095.56
eigval :     3095.95  3096.75  3096.88  3098.91  3102.07  3102.29
eigval :     3103.91  3104.00  3105.48  3106.70  3111.24  3113.50

   temp. (K)  partition function   enthalpy   heat capacity  entropy
                                   cal/mol     cal/K/mol   cal/K/mol   J/K/mol
 298.15  VIB  0.618E+29            33948.834    210.875    216.011
         ROT  0.347E+09              888.752      2.981     42.062
         INT  0.215E+38            34837.587    213.856    258.073
         TR   0.269E+29             1481.254      4.968     46.303
         TOT                       36318.8407   218.8245   304.3751  1273.5055

       T/K    H(0)-H(T)+PV         H(T)/Eh          T*S/Eh         G(T)/Eh
   ------------------------------------------------------------------------
    298.15    0.578778E-01    0.947802E+00    0.144618E+00    0.803183E+00
   ------------------------------------------------------------------------

         :::::::::::::::::::::::::::::::::::::::::::::::::::::
         ::                  THERMODYNAMIC                  ::
         :::::::::::::::::::::::::::::::::::::::::::::::::::::
         :: total free energy        -178.954645490117 Eh   ::
         ::.................................................::
         :: total energy             -179.757828704992 Eh   ::
         :: zero point energy           0.889923897174 Eh   ::
         :: G(RRHO) w/o ZPVE           -0.086740682299 Eh   ::
         :: G(RRHO) contrib.            0.803183214875 Eh   ::
         :::::::::::::::::::::::::::::::::::::::::::::::::::::

           -------------------------------------------------
          | TOTAL ENERGY             -179.757828704992 Eh   |
          | TOTAL ENTHALPY           -178.810027051079 Eh   |
          | TOTAL FREE ENERGY        -178.954645490117 Eh   |
          | GRADIENT NORM               0.000058554805 Eh/α |
           -------------------------------------------------

 * finished run on 2025/08/24 at 17:10:59.638
