   * xtb version 6.7.1 (edcfbbe) compiled by 'albert@albert-system' on 2024-07-22

   ID    Z sym.   atoms
    1    6 C      1-5, 7-13, 15-31, 33-46, 48-72
    2    7 N      6, 14, 32, 47
    3    1 H      73-116

          program call               : xtb data2507/gas/PPI-An-NPIM/PPI-An-NPIM.xyz --gfn 2 --ohess vtight --parallel 40 --molden --ceasefiles --namespace data2507/gas/PPI-An-NPIM/PPI-An-NPIM_gas_S0_preOpt
          :  Hamiltonian                  GFN2-xTB          :
 * total energy  :  -179.7780547 Eh     change       -0.2862436E-08 Eh
 * total energy  :  -179.7988370 Eh     change       -0.2078233E-01 Eh
 * total energy  :  -179.8049396 Eh     change       -0.6102610E-02 Eh
 * total energy  :  -179.8063899 Eh     change       -0.1450280E-02 Eh
 * total energy  :  -179.8073565 Eh     change       -0.9666102E-03 Eh
 * total energy  :  -179.8080463 Eh     change       -0.6898584E-03 Eh
 * total energy  :  -179.8088129 Eh     change       -0.7665992E-03 Eh
 * total energy  :  -179.8096263 Eh     change       -0.8133044E-03 Eh
 * total energy  :  -179.8104128 Eh     change       -0.7865935E-03 Eh
 * total energy  :  -179.8111143 Eh     change       -0.7014615E-03 Eh
 * total energy  :  -179.8204008 Eh     change       -0.1089778E-05 Eh
 * total energy  :  -179.8204019 Eh     change       -0.1148442E-05 Eh
 * total energy  :  -179.8204030 Eh     change       -0.1091790E-05 Eh
 * total energy  :  -179.8204041 Eh     change       -0.1027108E-05 Eh
 * total energy  :  -179.8204051 Eh     change       -0.1029178E-05 Eh
 * total energy  :  -179.8204061 Eh     change       -0.9978854E-06 Eh
 * total energy  :  -179.8204070 Eh     change       -0.9094615E-06 Eh
 * total energy  :  -179.8204078 Eh     change       -0.7752477E-06 Eh
 * total energy  :  -179.8204078 Eh     change       -0.7145843E-08 Eh
   *** GEOMETRY OPTIMIZATION CONVERGED AFTER 300 ITERATIONS ***

 final structure:
================
116
 xtb: 6.7.1 (edcfbbe)
C          -12.88719813310583       -2.58296020816103       -0.19055511412345
C          -12.92861268102225       -1.26906990879723        0.24729678949251
C          -11.77150238775812       -0.51663113981097        0.29466458925397
C          -10.55181203911802       -1.07063975221557       -0.09179179033836
C           -9.35446699735838       -0.24645169543850       -0.03177138061786
N           -9.43996572857547        1.10920551719450       -0.11829383683229
C           -8.21791999302218        1.57871355309286       -0.07265683743216
C           -7.89583868689744        2.99537686576418       -0.10170430355876
C           -8.74109164138819        3.85014973557292       -0.80957863906601
C           -8.47966712051674        5.20490865443619       -0.86239932531742
C           -7.37495757550476        5.72692634173515       -0.20827662306861
C           -6.54521688814160        4.88787795238199        0.51652400149376
C           -6.80285432042285        3.53109127134745        0.57768381907731
N           -7.30684534232571        0.56063304492951        0.03983666585170
C           -5.90472558514622        0.64941716445495        0.06776141521456
C           -5.22901291197942        1.30015724389151       -0.95913350924079
C           -3.84926669769850        1.34631736537045       -0.95004056728309
C           -3.12626089933634        0.73589874820292        0.07084526790001
C           -1.64914803387791        0.74819021982491        0.05745318121629
C           -0.95602328860392        1.94181077688833        0.29910118297256
C           -1.63669910870354        3.15567409736323        0.58106681532589
C           -0.95294976951586        4.30327174050417        0.83913471336147
C            0.45612725872311        4.30390158254179        0.84957849099444
C            1.14630691987369        3.15929711334156        0.59397755698928
C            0.47352965757368        1.94466029293662        0.29716620443383
C            1.17216251482903        0.75638667418573        0.03782809585806
C            2.64795239922126        0.75079981417263        0.02865163822362
C            3.35276619354579        0.02848837829619        0.98794421464182
C            4.73119991439537       -0.02534772117537        0.95920701992412
C            5.43895927560847        0.64293303195804       -0.03801261378474
C            6.88949233465641        0.57332952614561       -0.13162936944386
N            7.66219484832518        1.59745173378807       -0.38250368319341
C            8.93414308401914        1.11571885918634       -0.37376198860018
C           10.14332575149512        1.84404393584965       -0.54938602459473
C           10.13251305566406        3.22798956381115       -0.75263808658510
C           11.31136284039780        3.91827692005937       -0.88290869440698
C           12.52002357460411        3.22884120455969       -0.80667324754661
C           12.54200931531745        1.86739379405275       -0.61370701006807
C           11.35837316872260        1.12433274123849       -0.48578760942567
C           11.34682314091980       -0.31850932571042       -0.31735479782274
C           12.53021415405769       -1.07033704286682       -0.33623778022125
C           12.52645095884591       -2.44043704839218       -0.22441992019997
C           11.32282573718921       -3.12796088120837       -0.10618117415317
C           10.14148352792940       -2.42913763017664       -0.07514187297557
C           10.12557146507949       -1.02931797539115       -0.15629020038217
C            8.93088168416223       -0.25615210671422       -0.12690441240606
N            7.60597903106798       -0.59228837838616        0.03907260855135
C            7.02392441462814       -1.84109897129565        0.32770357054135
C            6.09782617367433       -2.38452372256551       -0.55532230032100
C            5.47841982556384       -3.58222662960042       -0.24809823871013
C            5.78106872697828       -4.24099071811145        0.93176304596667
C            6.70688806447460       -3.70019031578960        1.80954549180685
C            7.32617705641020       -2.49947464221419        1.51596434318069
C            4.73846292101014        1.40483111230069       -0.97144272776697
C            3.35981630605463        1.45366636852712       -0.94043065163822
C            0.47658783896219       -0.43654334971205       -0.21341580599183
C            1.15121734373944       -1.64872789821567       -0.51754911461143
C            0.46409146600861       -2.79731649489878       -0.76300589463967
C           -0.94448389486977       -2.80414689404939       -0.73471052691135
C           -1.63055747334167       -1.65989815795649       -0.46844184798143
C           -0.95274266259778       -0.44189604207981       -0.19611126639552
C           -3.81284443844767        0.09709679913880        1.09901348165657
C           -5.19268235300108        0.05506110950887        1.10376162251580
C           -8.02345476478326       -0.61606025515648        0.07604342385475
C           -7.37984871971392       -1.91566510408546        0.21813456459203
C           -6.29737133478781       -2.27254371097170       -0.58467332736412
C           -5.67558143574270       -3.49541044114392       -0.41511299260319
C           -6.12582833193998       -4.37899986900886        0.55113485132423
C           -7.20960732389003       -4.03737052548056        1.34433591227144
C           -7.83215173315363       -2.81474155339406        1.18331636632280
C          -10.52113407602825       -2.38641962716808       -0.54976972906783
C          -11.68218141920491       -3.13487478538973       -0.59333857925486
H          -13.79150042890041       -3.17304169721302       -0.22507507658656
H          -13.86817835546911       -0.83149584727289        0.55295121378015
H          -11.78758431784805        0.50922303390355        0.62886465131612
H           -9.59780961629870        3.42689856843471       -1.31025977680710
H           -9.13745461521815        5.85811870544764       -1.41672010871112
H           -7.16671059633158        6.78565130045192       -0.25464370479015
H           -5.69414365157680        5.29319847610939        1.04454018631358
H           -6.16385188338196        2.89417445250143        1.17154707333283
H           -5.79039178760926        1.76066630773656       -1.75869563242135
H           -3.32099876088682        1.84307423452160       -1.75043443989748
H           -2.71668073775314        3.15085293820837        0.59357512176137
H           -1.48409792538867        5.21976150664136        1.05016587607273
H            0.98308163562866        5.21983175546031        1.07253514162322
H            2.22550099010179        3.15827294136943        0.62269085116583
H            2.80935436471252       -0.49115869184533        1.76402425075902
H            5.25721142771440       -0.57744972713916        1.72367310454357
H            9.17512308647327        3.72370372901390       -0.79442820539147
H           11.30830380523023        4.98716013747736       -1.03771056914382
H           13.45110101609274        3.76920415758806       -0.90006028765291
H           13.50137925089128        1.37783414514724       -0.55802170591088
H           13.47949854501240       -0.57275597712427       -0.45174473711023
H           13.45892905261494       -2.98516605789549       -0.24308067574912
H           11.31603575165015       -4.20619151640122       -0.04414958335739
H            9.20963107643224       -2.96778376714368       -0.00477371965293
H            5.86852771392628       -1.86315033339010       -1.47294873191264
H            4.75849814724206       -4.00211883493810       -0.93440230979046
H            5.29574136764946       -5.17557388496193        1.16868840672764
H            6.94344507396304       -4.21130032670473        2.73068474179063
H            8.04353615948070       -2.06519168979129        2.19724706574881
H            5.29367553668441        1.94292495590490       -1.72407888662318
H            2.82082162650294        2.02520839313065       -1.68230161699751
H            2.23033764777451       -1.64407210835663       -0.55807983784012
H            0.99275518061910       -3.71123349664586       -0.99133361767085
H           -1.47335567342093       -3.72382061888714       -0.93775640191178
H           -2.71056834658598       -1.66249639802133       -0.46590154986593
H           -3.25665744401947       -0.36770344752221        1.89965959616855
H           -5.72347357123276       -0.43939494152015        1.90359581950870
H           -5.95142713738033       -1.59586569967819       -1.35321304389614
H           -4.83736718229565       -3.76013270569156       -1.04343647984644
H           -5.63689955932301       -5.33276124429995        0.68341016859005
H           -7.56744594539178       -4.72537399583927        2.09618924938414
H           -8.67339612662726       -2.54273138661445        1.80402557501307
H           -9.58963719730152       -2.81881735120542       -0.88393954233671
H          -11.64750874837393       -4.15473431888576       -0.94922638107392

          :  Hamiltonian                  GFN2-xTB          :
         :: gradient norm              0.000061203755 Eh/a0 ::
         :: HOMO-LUMO gap              1.974660187674 eV    ::
         :: SCC energy              -183.243204730397 Eh    ::
         :: -> dispersion             -0.177578737819 Eh    ::
         :: repulsion energy           3.422796956594 Eh    ::

    * Orbital Energies and Occupations

         #    Occupation            Energy/Eh            Energy/eV
      -------------------------------------------------------------
         1        2.0000           -0.6871919             -18.6994
       ...           ...                  ...                  ...
       156        2.0000           -0.4055428             -11.0354
       157        2.0000           -0.4048190             -11.0157
       158        2.0000           -0.4032110             -10.9719
       159        2.0000           -0.3996146             -10.8741
       160        2.0000           -0.3959475             -10.7743
       161        2.0000           -0.3941408             -10.7251
       162        2.0000           -0.3911100             -10.6426
       163        2.0000           -0.3798769             -10.3370
       164        2.0000           -0.3763402             -10.2407
       165        2.0000           -0.3724517             -10.1349
       166        2.0000           -0.3657319              -9.9521
       167        2.0000           -0.3615647              -9.8387
       168        2.0000           -0.3591172              -9.7721 (HOMO)
       169                         -0.2865498              -7.7974 (LUMO)
       170                         -0.2595088              -7.0616
       171                         -0.2546159              -6.9285
       172                         -0.2492372              -6.7821
       173                         -0.2442290              -6.6458
       174                         -0.2410172              -6.5584
       175                         -0.2406029              -6.5471
       176                         -0.2400695              -6.5326
       177                         -0.2396429              -6.5210
       178                         -0.2372797              -6.4567
       179                         -0.2365668              -6.4373
       ...                                ...                  ...
       332                          0.7294597              19.8496
      -------------------------------------------------------------
                  HL-Gap            0.0725674 Eh            1.9747 eV

     #   Z          covCN         q      C6AA      α(0)
     1   6 C        2.920    -0.032    28.808     8.802
     2   6 C        2.918    -0.030    28.745     8.792
     3   6 C        2.927    -0.030    28.751     8.793
     4   6 C        2.974     0.010    27.782     8.646
     5   6 C        3.165     0.052    26.501     8.413
     6   7 N        1.914    -0.290    28.375     7.898
     7   6 C        3.157     0.120    25.081     8.189
     8   6 C        2.974     0.003    27.954     8.673
     9   6 C        2.928    -0.028    28.711     8.787
    10   6 C        2.918    -0.027    28.686     8.783
    11   6 C        2.920    -0.030    28.741     8.791
    12   6 C        2.919    -0.029    28.728     8.789
    13   6 C        2.922    -0.034    28.856     8.809
    14   7 N        2.853    -0.037    21.962     6.960
    15   6 C        2.915     0.065    26.551     8.450
    16   6 C        2.920    -0.039    28.976     8.827
    17   6 C        2.924    -0.030    28.761     8.795
    18   6 C        2.978     0.016    27.642     8.624
    19   6 C        2.978    -0.007    28.194     8.710
    20   6 C        2.984     0.007    27.862     8.659
    21   6 C        2.917    -0.035    28.867     8.811
    22   6 C        2.914    -0.029    28.718     8.788
    23   6 C        2.914    -0.029    28.729     8.789
    24   6 C        2.917    -0.034    28.852     8.808
    25   6 C        2.983     0.007    27.853     8.657
    26   6 C        2.977    -0.005    28.150     8.703
    27   6 C        2.977     0.016    27.647     8.625
    28   6 C        2.924    -0.032    28.805     8.801
    29   6 C        2.921    -0.034    28.845     8.807
    30   6 C        2.975     0.001    27.993     8.679
    31   6 C        3.198     0.128    24.709     8.102
    32   7 N        1.893    -0.290    28.378     7.897
    33   6 C        3.212     0.056    26.106     8.316
    34   6 C        2.986     0.003    27.953     8.673
    35   6 C        2.922    -0.031    28.778     8.797
    36   6 C        2.917    -0.030    28.754     8.793
    37   6 C        2.917    -0.033    28.819     8.803
    38   6 C        2.922    -0.035    28.866     8.811
    39   6 C        2.979    -0.002    28.059     8.689
    40   6 C        2.980     0.002    27.977     8.676
    41   6 C        2.922    -0.034    28.839     8.807
    42   6 C        2.916    -0.033    28.830     8.805
    43   6 C        2.917    -0.032    28.795     8.799
    44   6 C        2.919    -0.040    28.999     8.831
    45   6 C        2.978    -0.002    28.066     8.690
    46   6 C        3.073     0.019    27.497     8.598
    47   7 N        2.842    -0.046    22.124     6.986
    48   6 C        2.913     0.069    26.462     8.435
    49   6 C        2.922    -0.038    28.950     8.823
    50   6 C        2.920    -0.026    28.646     8.777
    51   6 C        2.920    -0.030    28.749     8.793
    52   6 C        2.920    -0.027    28.677     8.782
    53   6 C        2.921    -0.037    28.913     8.818
    54   6 C        2.925    -0.028    28.711     8.787
    55   6 C        2.923    -0.031    28.780     8.798
    56   6 C        2.984     0.007    27.869     8.660
    57   6 C        2.917    -0.034    28.858     8.809
    58   6 C        2.914    -0.030    28.751     8.793
    59   6 C        2.914    -0.029    28.734     8.790
    60   6 C        2.917    -0.035    28.865     8.810
    61   6 C        2.984     0.006    27.870     8.660
    62   6 C        2.925    -0.031    28.766     8.796
    63   6 C        2.920    -0.039    28.971     8.827
    64   6 C        3.070     0.013    27.654     8.623
    65   6 C        2.971     0.009    27.810     8.650
    66   6 C        2.924    -0.034    28.845     8.808
    67   6 C        2.919    -0.029    28.730     8.790
    68   6 C        2.920    -0.031    28.774     8.796
    69   6 C        2.919    -0.028    28.705     8.786
    70   6 C        2.925    -0.032    28.801     8.801
    71   6 C        2.923    -0.037    28.928     8.820
    72   6 C        2.919    -0.031    28.761     8.794
    73   1 H        0.926     0.027     2.636     2.539
    74   1 H        0.926     0.029     2.606     2.524
    75   1 H        0.926     0.049     2.328     2.386
    76   1 H        0.926     0.052     2.292     2.367
    77   1 H        0.926     0.035     2.516     2.481
    78   1 H        0.926     0.032     2.555     2.500
    79   1 H        0.926     0.030     2.591     2.517
    80   1 H        0.926     0.024     2.670     2.555
    81   1 H        0.926     0.040     2.455     2.450
    82   1 H        0.926     0.040     2.453     2.449
    83   1 H        0.926     0.030     2.586     2.515
    84   1 H        0.926     0.030     2.580     2.512
    85   1 H        0.926     0.032     2.559     2.501
    86   1 H        0.926     0.036     2.507     2.476
    87   1 H        0.926     0.033     2.548     2.496
    88   1 H        0.926     0.028     2.619     2.531
    89   1 H        0.926     0.050     2.316     2.380
    90   1 H        0.926     0.030     2.588     2.516
    91   1 H        0.926     0.028     2.618     2.530
    92   1 H        0.926     0.030     2.581     2.513
    93   1 H        0.926     0.034     2.528     2.486
    94   1 H        0.926     0.028     2.609     2.526
    95   1 H        0.926     0.027     2.636     2.539
    96   1 H        0.926     0.025     2.654     2.547
    97   1 H        0.926     0.038     2.469     2.457
    98   1 H        0.926     0.039     2.460     2.453
    99   1 H        0.926     0.039     2.458     2.452
   100   1 H        0.926     0.040     2.444     2.445
   101   1 H        0.926     0.043     2.408     2.426
   102   1 H        0.926     0.050     2.323     2.384
   103   1 H        0.926     0.037     2.488     2.467
   104   1 H        0.926     0.031     2.576     2.510
   105   1 H        0.926     0.028     2.612     2.527
   106   1 H        0.926     0.029     2.599     2.521
   107   1 H        0.926     0.031     2.576     2.510
   108   1 H        0.926     0.039     2.468     2.456
   109   1 H        0.926     0.040     2.454     2.450
   110   1 H        0.926     0.023     2.681     2.561
   111   1 H        0.926     0.028     2.614     2.528
   112   1 H        0.926     0.030     2.582     2.513
   113   1 H        0.926     0.032     2.557     2.501
   114   1 H        0.926     0.034     2.533     2.489
   115   1 H        0.926     0.025     2.662     2.551
   116   1 H        0.926     0.026     2.650     2.545

molecular dipole:
                 x           y           z       tot (Debye)
 q only:        0.565      -0.622       0.226
   full:        1.034      -1.281       0.344       4.276

 projected vibrational frequencies (cm⁻¹)
eigval :       -0.00    -0.00    -0.00     0.00     0.00     0.00
eigval :        4.61     5.35     6.99    10.22    14.63    18.28
eigval :       22.90    30.54    31.46    33.30    39.35    43.31
eigval :       47.72    51.61    54.59    59.80    64.43    66.09
eigval :       71.88    75.33    79.00    83.60    84.53    86.76
eigval :       95.70   112.03   121.04   124.48   131.10   138.41
eigval :      145.92   164.08   171.67   184.01   200.02   213.01
eigval :      213.46   220.98   227.69   238.47   240.01   242.63
eigval :      246.37   257.33   262.48   267.21   273.91   279.19
eigval :      305.84   312.68   339.30   348.22   365.40   371.33
eigval :      373.77   375.27   377.48   377.57   378.62   380.61
eigval :      389.73   396.28   397.85   405.25   411.19   414.93
eigval :      417.48   436.69   443.19   444.70   449.29   453.07
eigval :      459.01   474.21   476.20   479.92   487.51   506.38
eigval :      511.92   516.05   526.54   529.18   532.31   535.42
eigval :      579.66   582.88   584.23   585.41   587.03   587.51
eigval :      589.64   591.32   593.14   613.14   619.44   621.88
eigval :      632.92   638.68   640.86   645.48   653.37   653.92
eigval :      659.25   661.49   667.19   669.96   671.00   676.03
eigval :      679.29   683.12   686.74   692.01   694.41   698.40
eigval :      706.71   709.68   728.71   735.45   741.12   743.88
eigval :      754.18   762.70   763.74   765.10   767.37   774.96
eigval :      776.19   776.84   782.85   795.22   818.55   821.94
eigval :      863.19   872.08   874.64   875.03   875.45   877.42
eigval :      877.72   878.58   879.06   880.20   898.39   901.88
eigval :      902.08   902.62   902.70   908.28   913.35   914.48
eigval :      914.90   915.67   918.18   918.59   922.87   924.15
eigval :      926.42   927.47   929.06   929.25   929.48   929.89
eigval :      930.07   930.49   931.45   931.92   932.17   932.51
eigval :      932.76   933.28   939.30   943.14   956.19   958.05
eigval :      978.56   994.70  1000.33  1017.13  1018.31  1032.21
eigval :     1037.05  1068.88  1079.72  1081.56  1082.41  1082.65
eigval :     1083.80  1084.74  1085.91  1108.24  1110.48  1116.05
eigval :     1119.01  1120.46  1121.89  1132.58  1134.45  1135.16
eigval :     1136.13  1146.67  1153.03  1165.05  1174.45  1180.54
eigval :     1181.28  1181.88  1182.09  1182.33  1183.04  1186.03
eigval :     1186.06  1189.10  1189.87  1195.19  1196.01  1199.48
eigval :     1201.98  1209.45  1212.10  1218.98  1227.09  1230.58
eigval :     1253.51  1258.00  1260.09  1261.83  1266.95  1271.06
eigval :     1272.33  1276.15  1279.91  1283.28  1284.20  1286.01
eigval :     1301.57  1308.50  1312.80  1314.99  1316.34  1320.08
eigval :     1322.28  1323.44  1328.99  1333.40  1339.27  1347.31
eigval :     1350.35  1365.64  1374.11  1376.88  1384.97  1398.71
eigval :     1401.53  1407.35  1408.29  1418.75  1419.89  1429.15
eigval :     1430.07  1431.26  1432.58  1434.12  1435.54  1438.08
eigval :     1444.52  1450.80  1462.16  1469.01  1479.48  1487.48
eigval :     1489.35  1500.10  1514.98  1518.87  1526.97  1530.02
eigval :     1535.95  1542.19  1548.62  1557.82  1558.13  1564.90
eigval :     1565.26  1572.05  1578.44  1580.62  1582.79  1583.27
eigval :     1594.59  1594.92  1596.69  1597.84  1597.93  1598.03
eigval :     1600.21  1605.27  1608.56  1622.67  3068.12  3070.35
eigval :     3072.11  3072.48  3072.94  3073.28  3075.48  3075.59
eigval :     3075.93  3077.29  3078.34  3079.76  3080.25  3081.41
eigval :     3081.99  3082.12  3083.01  3083.09  3083.55  3083.95
eigval :     3084.87  3085.92  3086.52  3087.41  3089.66  3089.95
eigval :     3090.95  3091.20  3092.11  3092.36  3094.05  3094.36
eigval :     3094.43  3094.70  3096.29  3096.79  3097.38  3101.68
eigval :     3102.59  3103.52  3104.97  3106.66  3110.20  3111.00

   temp. (K)  partition function   enthalpy   heat capacity  entropy
                                   cal/mol     cal/K/mol   cal/K/mol   J/K/mol
 298.15  VIB  0.796E+29            33880.699    209.936    216.150
         ROT  0.344E+09              888.752      2.981     42.042
         INT  0.274E+38            34769.451    212.917    258.192
         TR   0.269E+29             1481.254      4.968     46.303
         TOT                       36250.7048   217.8847   304.4949  1274.0068

       T/K    H(0)-H(T)+PV         H(T)/Eh          T*S/Eh         G(T)/Eh
   ------------------------------------------------------------------------
    298.15    0.577692E-01    0.950269E+00    0.144675E+00    0.805594E+00
   ------------------------------------------------------------------------

         :::::::::::::::::::::::::::::::::::::::::::::::::::::
         ::                  THERMODYNAMIC                  ::
         :::::::::::::::::::::::::::::::::::::::::::::::::::::
         :: total free energy        -179.014814061513 Eh   ::
         ::.................................................::
         :: total energy             -179.820407773801 Eh   ::
         :: zero point energy           0.892499900513 Eh   ::
         :: G(RRHO) w/o ZPVE           -0.086906188226 Eh   ::
         :: G(RRHO) contrib.            0.805593712287 Eh   ::
         :::::::::::::::::::::::::::::::::::::::::::::::::::::

           -------------------------------------------------
          | TOTAL ENERGY             -179.820407773801 Eh   |
          | TOTAL ENTHALPY           -178.870138698011 Eh   |
          | TOTAL FREE ENERGY        -179.014814061513 Eh   |
          | GRADIENT NORM               0.000061205968 Eh/α |
          | HOMO-LUMO GAP               1.974659442242 eV   |
           -------------------------------------------------

 * finished run on 2025/08/24 at 17:03:39.905
