   * xtb version 6.7.1 (edcfbbe) compiled by 'albert@albert-system' on 2024-07-22

   ID    Z sym.   atoms
    1    6 C      1-5, 7-13, 15-31, 33-46, 48-72
    2    7 N      6, 14, 32, 47
    3    1 H      73-116

          program call               : xtb data2507/gas/PPI-An-NPIM/PPI-An-NPIM_gas_S0_crest.xyz --gfn 2 --ohess vtight --parallel 40 --molden --ceasefiles --namespace data2507/gas/PPI-An-NPIM/PPI-An-NPIM_gas_S0_finalOpt
          :  Hamiltonian                  GFN2-xTB          :
 * total energy  :  -179.8204099 Eh     change       -0.1773884E-08 Eh
 * total energy  :  -179.8204112 Eh     change       -0.1220909E-05 Eh
 * total energy  :  -179.8204125 Eh     change       -0.1371297E-05 Eh
 * total energy  :  -179.8204163 Eh     change       -0.3792432E-05 Eh
 * total energy  :  -179.8204177 Eh     change       -0.1351318E-05 Eh
 * total energy  :  -179.8204188 Eh     change       -0.1120539E-05 Eh
 * total energy  :  -179.8204206 Eh     change       -0.1839520E-05 Eh
 * total energy  :  -179.8204225 Eh     change       -0.1855418E-05 Eh
 * total energy  :  -179.8204237 Eh     change       -0.1190422E-05 Eh
 * total energy  :  -179.8204247 Eh     change       -0.1046500E-05 Eh
 * total energy  :  -179.8204749 Eh     change       -0.3780464E-06 Eh
 * total energy  :  -179.8204753 Eh     change       -0.3482108E-06 Eh
 * total energy  :  -179.8204756 Eh     change       -0.3863904E-06 Eh
 * total energy  :  -179.8204760 Eh     change       -0.4033494E-06 Eh
 * total energy  :  -179.8204764 Eh     change       -0.3580397E-06 Eh
 * total energy  :  -179.8204767 Eh     change       -0.3145733E-06 Eh
 * total energy  :  -179.8204770 Eh     change       -0.2774118E-06 Eh
 * total energy  :  -179.8204772 Eh     change       -0.2210783E-06 Eh
 * total energy  :  -179.8204773 Eh     change       -0.6379946E-07 Eh
   *** GEOMETRY OPTIMIZATION CONVERGED AFTER 82 ITERATIONS ***

 final structure:
================
116
 xtb: 6.7.1 (edcfbbe)
C          -12.95278418885735       -2.73680510260584       -0.63989226958187
C          -13.02193822715658       -1.46974875996420       -0.08352613779493
C          -11.87707485104110       -0.71028402535955        0.05732678476617
C          -10.64216450665461       -1.21076720212184       -0.35289077367679
C           -9.45782118096976       -0.38140967038552       -0.19164905111903
N           -9.55877156663021        0.97537935659101       -0.15827043741417
C           -8.34392115283538        1.45217938549561       -0.04273417564688
C           -8.03897045475615        2.86882747298975        0.06260336566591
C           -8.88666463688302        3.77573044045161       -0.57408859655485
C           -8.64189558679996        5.13246691590996       -0.49821817775540
C           -7.55156027650599        5.60460328908017        0.21528890069695
C           -6.71946602298393        4.71172857004222        0.86960244868640
C           -6.96051161594384        3.35220382642004        0.80190124480842
N           -7.42300322332049        0.43787047303383       -0.00080910806522
C           -6.02267782835163        0.53510425827283        0.06621911595366
C           -5.32954846502025        1.26339998861143       -0.89477498926357
C           -3.95050142256007        1.31073612525421       -0.85519832271261
C           -3.24527127586487        0.62760519688322        0.13187276639756
C           -1.76886956079233        0.63907517376221        0.14215119487137
C           -1.07865470407762        1.82363206603765        0.43374617290326
C           -1.76114810900449        3.02517288767299        0.76056821691928
C           -1.07933514044699        4.16403244343033        1.05961703592063
C            0.32974334062238        4.16809739757615        1.06742572557925
C            1.02185596949694        3.03418101666324        0.77273388381158
C            0.35076905619982        1.82886602905208        0.43678728353057
C            1.05229958084064        0.65083705055441        0.14274276614056
C            2.52843078192879        0.65220980055804        0.13081497432090
C            3.24211699402911       -0.07041577980351        1.08277048100046
C            4.62109696286329       -0.11370202820697        1.04845343682660
C            5.31971845377105        0.56283488882181        0.05028346686182
C            6.76943261434980        0.51001860823893       -0.05647014627710
N            7.51961505512282        1.54003842016712       -0.35053073190778
C            8.79981538644080        1.08214778773365       -0.34904535418438
C            9.99189213446308        1.82611599835967       -0.57020230069531
C            9.95142279529078        3.20217467364076       -0.81819017585051
C           11.11449790330800        3.90867446906225       -0.99499303940739
C           12.33691217124793        3.24369846198861       -0.92098147708893
C           12.38788167728655        1.89002120463898       -0.68381510432798
C           11.22093728364931        1.13063064596641       -0.50749050373755
C           11.23916545500573       -0.30591588748609       -0.29204854642370
C           12.43602357379593       -1.03618117542133       -0.30690162599860
C           12.45999634134598       -2.40177645885818       -0.15109847019319
C           11.27167591051895       -3.10703083684788        0.00963361883297
C           10.07807557404623       -2.42927711824420        0.03865872910670
C           10.03432619760572       -1.03332907206870       -0.08698572984698
C            8.82601079276214       -0.28151447231848       -0.06121407297936
N            7.51046011787431       -0.63651299876049        0.13689293473145
C            6.96057234844941       -1.88887142084095        0.47044059050333
C            6.04354463477100       -2.48465105701023       -0.38788296259547
C            5.45767449869555       -3.68730755497570       -0.03714768582428
C            5.78483618296559       -4.29885513313698        1.16148257372370
C            6.70164467251288       -3.70577435893394        2.01463756508938
C            7.28761891370845       -2.49982265623162        1.67737489742557
C            4.60905517430085        1.32468381483804       -0.87622596156088
C            3.23073318945174        1.36561327154691       -0.83755187150350
C            0.36064470874278       -0.53507574423822       -0.14738328387764
C            1.04086265175266       -1.73726321781301       -0.47738309292139
C            0.35847524999763       -2.87812701557746       -0.76771460378571
C           -1.05030894638702       -2.88485554714188       -0.76338198092142
C           -1.74113624564428       -1.74990487654831       -0.47050558504439
C           -1.06885960761914       -0.54166452160988       -0.14576166081321
C           -3.95010497948508       -0.08460423619977        1.09783180027086
C           -5.32945024166362       -0.13139019168982        1.07051589906137
C           -8.12485120648100       -0.74495145481844       -0.08682459938335
C           -7.46740660689054       -2.04476922846212       -0.04580357464225
C           -6.36112697716897       -2.31612845935909       -0.84966229743502
C           -5.72714195655419       -3.54220417259584       -0.77448059382973
C           -6.18867934708909       -4.51396737047266        0.09711280646534
C           -7.29602010023301       -4.25713550058148        0.88978056756768
C           -7.93084016678378       -3.03205400563058        0.82312245373540
C          -10.58327901659370       -2.47794118212710       -0.92973063838299
C          -11.73221546549733       -3.23376710623044       -1.06667128211392
H          -13.84756151019637       -3.33254911341654       -0.74763403895053
H          -13.97362671740079       -1.07437455718289        0.24147807351314
H          -11.91460413532904        0.27991369099600        0.48445182252363
H           -9.73213200834715        3.39067230242426       -1.12241886446420
H           -9.30159642623402        5.82651849221915       -0.99794657723704
H           -7.35642739037973        6.66543781085285        0.26984297782470
H           -5.87962489146389        5.07619059656081        1.44342658011866
H           -6.32001087651872        2.67085549221647        1.34234863172293
H           -5.87699329143950        1.78069830424948       -1.66889721176300
H           -3.40822059563101        1.86449793315868       -1.60737146177210
H           -2.84104101212052        3.01827873674418        0.77550944703110
H           -1.61240340154445        5.07077242620567        1.30513742563162
H            0.85484860050801        5.07728668880235        1.32029439887161
H            2.10115482413357        3.03369315284706        0.79956655572307
H            2.70570106209841       -0.59840239775172        1.85811685922587
H            5.15334511099663       -0.66378714343268        1.80989100554691
H            8.98435776639107        3.67898132754673       -0.85712112139245
H           11.08862911336912        4.97155679374927       -1.18498099777935
H           13.25580215962331        3.79710264405148       -1.05135526588902
H           13.35706530596826        1.41976525379965       -0.63199350102427
H           13.37375981717997       -0.52525184224865       -0.45408383791840
H           13.40216621725568       -2.92961794204843       -0.16801852067716
H           11.28616001613361       -4.18263673675873        0.10627673198184
H            9.15796484292246       -2.98240998441666        0.14257848598853
H            5.79483990029782       -1.99938798335225       -1.32014284512729
H            4.74450796387639       -4.14815321786481       -0.70390737912588
H            5.32542932744812       -5.23732189801870        1.43230717541162
H            6.95730230393869       -4.18006387841061        2.95025269824134
H            7.99815960198108       -2.02508565827110        2.33849933723274
H            5.15786799288429        1.86981231855328       -1.62837860183542
H            2.68399562974120        1.93944574950097       -1.57192519393302
H            2.12049417117205       -1.73049156299639       -0.50033918388555
H            0.89099063294780       -3.78491188745454       -1.01474471816529
H           -1.57597438752827       -3.79692880004807       -1.00536589452749
H           -2.82094921610131       -1.75385933500652       -0.48675493207384
H           -3.40850260754952       -0.60383624149879        1.87468900184976
H           -5.87463874093191       -0.68576605142459        1.81983302819242
H           -6.00560931614673       -1.56978237391277       -1.54587745830225
H           -4.87068956642572       -3.73987825886217       -1.40293380204303
H           -5.69054549825208       -5.47034968208371        0.15568210459577
H           -7.66286916396459       -5.01394677565121        1.56752324958240
H           -8.79048927342296       -2.82639550856419        1.44413040598555
H           -9.63910514210704       -2.86560881444312       -1.28271526718133
H          -11.67571971738036       -4.21572119611329       -1.51449171626364

          :  Hamiltonian                  GFN2-xTB          :
         :: gradient norm              0.000107969034 Eh/a0 ::
         :: HOMO-LUMO gap              1.972693534265 eV    ::
         :: SCC energy              -183.243316759584 Eh    ::
         :: -> dispersion             -0.177517830001 Eh    ::
         :: repulsion energy           3.422839481112 Eh    ::

    * Orbital Energies and Occupations

         #    Occupation            Energy/Eh            Energy/eV
      -------------------------------------------------------------
         1        2.0000           -0.6871422             -18.6981
       ...           ...                  ...                  ...
       156        2.0000           -0.4054468             -11.0328
       157        2.0000           -0.4047580             -11.0140
       158        2.0000           -0.4031744             -10.9709
       159        2.0000           -0.3997290             -10.8772
       160        2.0000           -0.3958806             -10.7725
       161        2.0000           -0.3941104             -10.7243
       162        2.0000           -0.3910720             -10.6416
       163        2.0000           -0.3798935             -10.3374
       164        2.0000           -0.3762833             -10.2392
       165        2.0000           -0.3723608             -10.1325
       166        2.0000           -0.3655858              -9.9481
       167        2.0000           -0.3615088              -9.8372
       168        2.0000           -0.3590172              -9.7694 (HOMO)
       169                         -0.2865221              -7.7967 (LUMO)
       170                         -0.2598539              -7.0710
       171                         -0.2543909              -6.9223
       172                         -0.2492827              -6.7833
       173                         -0.2443047              -6.6479
       174                         -0.2409753              -6.5573
       175                         -0.2407361              -6.5508
       176                         -0.2400717              -6.5327
       177                         -0.2397555              -6.5241
       178                         -0.2373978              -6.4599
       179                         -0.2364936              -6.4353
       ...                                ...                  ...
       332                          0.7294682              19.8498
      -------------------------------------------------------------
                  HL-Gap            0.0724951 Eh            1.9727 eV

     #   Z          covCN         q      C6AA      α(0)
     1   6 C        2.920    -0.032    28.808     8.802
     2   6 C        2.918    -0.030    28.745     8.792
     3   6 C        2.927    -0.030    28.751     8.793
     4   6 C        2.974     0.010    27.782     8.646
     5   6 C        3.165     0.052    26.500     8.413
     6   7 N        1.914    -0.291    28.377     7.898
     7   6 C        3.156     0.120    25.084     8.189
     8   6 C        2.974     0.003    27.955     8.673
     9   6 C        2.928    -0.028    28.712     8.787
    10   6 C        2.918    -0.027    28.686     8.783
    11   6 C        2.920    -0.030    28.741     8.791
    12   6 C        2.919    -0.029    28.729     8.790
    13   6 C        2.922    -0.035    28.861     8.810
    14   7 N        2.853    -0.038    21.963     6.960
    15   6 C        2.915     0.065    26.549     8.449
    16   6 C        2.920    -0.039    28.975     8.827
    17   6 C        2.925    -0.030    28.760     8.795
    18   6 C        2.978     0.016    27.644     8.624
    19   6 C        2.978    -0.007    28.197     8.710
    20   6 C        2.984     0.007    27.862     8.659
    21   6 C        2.917    -0.035    28.870     8.811
    22   6 C        2.914    -0.029    28.719     8.788
    23   6 C        2.914    -0.029    28.728     8.789
    24   6 C        2.917    -0.034    28.850     8.808
    25   6 C        2.983     0.007    27.854     8.657
    26   6 C        2.977    -0.005    28.147     8.703
    27   6 C        2.977     0.016    27.646     8.625
    28   6 C        2.923    -0.032    28.808     8.802
    29   6 C        2.921    -0.034    28.852     8.809
    30   6 C        2.974     0.001    27.998     8.679
    31   6 C        3.197     0.128    24.719     8.105
    32   7 N        1.893    -0.291    28.383     7.898
    33   6 C        3.211     0.057    26.110     8.317
    34   6 C        2.986     0.003    27.954     8.673
    35   6 C        2.922    -0.031    28.778     8.797
    36   6 C        2.917    -0.030    28.754     8.793
    37   6 C        2.917    -0.033    28.819     8.803
    38   6 C        2.922    -0.035    28.866     8.811
    39   6 C        2.979    -0.002    28.059     8.689
    40   6 C        2.980     0.002    27.977     8.676
    41   6 C        2.922    -0.034    28.839     8.807
    42   6 C        2.916    -0.033    28.830     8.805
    43   6 C        2.917    -0.032    28.795     8.799
    44   6 C        2.919    -0.040    29.000     8.831
    45   6 C        2.978    -0.002    28.067     8.690
    46   6 C        3.074     0.020    27.496     8.597
    47   7 N        2.841    -0.046    22.125     6.986
    48   6 C        2.913     0.069    26.459     8.435
    49   6 C        2.922    -0.038    28.946     8.823
    50   6 C        2.920    -0.026    28.644     8.777
    51   6 C        2.920    -0.030    28.748     8.792
    52   6 C        2.920    -0.027    28.676     8.782
    53   6 C        2.921    -0.037    28.912     8.818
    54   6 C        2.926    -0.028    28.710     8.787
    55   6 C        2.923    -0.031    28.779     8.797
    56   6 C        2.984     0.007    27.868     8.659
    57   6 C        2.917    -0.034    28.858     8.809
    58   6 C        2.914    -0.030    28.750     8.792
    59   6 C        2.914    -0.029    28.735     8.790
    60   6 C        2.917    -0.035    28.871     8.811
    61   6 C        2.984     0.006    27.869     8.660
    62   6 C        2.925    -0.031    28.766     8.796
    63   6 C        2.920    -0.039    28.972     8.827
    64   6 C        3.070     0.013    27.654     8.623
    65   6 C        2.971     0.009    27.811     8.650
    66   6 C        2.924    -0.034    28.848     8.808
    67   6 C        2.919    -0.029    28.732     8.790
    68   6 C        2.920    -0.031    28.774     8.796
    69   6 C        2.919    -0.028    28.706     8.786
    70   6 C        2.925    -0.032    28.800     8.801
    71   6 C        2.923    -0.037    28.927     8.820
    72   6 C        2.919    -0.030    28.761     8.794
    73   1 H        0.926     0.027     2.636     2.539
    74   1 H        0.926     0.029     2.606     2.524
    75   1 H        0.926     0.049     2.329     2.386
    76   1 H        0.926     0.052     2.289     2.366
    77   1 H        0.926     0.035     2.517     2.481
    78   1 H        0.926     0.032     2.556     2.500
    79   1 H        0.926     0.030     2.592     2.518
    80   1 H        0.926     0.024     2.669     2.555
    81   1 H        0.926     0.040     2.455     2.450
    82   1 H        0.926     0.040     2.450     2.448
    83   1 H        0.926     0.030     2.582     2.513
    84   1 H        0.926     0.030     2.580     2.512
    85   1 H        0.926     0.032     2.559     2.502
    86   1 H        0.926     0.035     2.511     2.478
    87   1 H        0.926     0.032     2.552     2.498
    88   1 H        0.926     0.028     2.620     2.531
    89   1 H        0.926     0.050     2.316     2.380
    90   1 H        0.926     0.030     2.588     2.516
    91   1 H        0.926     0.028     2.618     2.530
    92   1 H        0.926     0.030     2.581     2.513
    93   1 H        0.926     0.034     2.527     2.486
    94   1 H        0.926     0.028     2.609     2.526
    95   1 H        0.926     0.027     2.636     2.539
    96   1 H        0.926     0.025     2.654     2.548
    97   1 H        0.926     0.039     2.468     2.457
    98   1 H        0.926     0.039     2.459     2.452
    99   1 H        0.926     0.039     2.458     2.452
   100   1 H        0.926     0.040     2.444     2.445
   101   1 H        0.926     0.043     2.408     2.427
   102   1 H        0.926     0.051     2.311     2.377
   103   1 H        0.926     0.037     2.491     2.468
   104   1 H        0.926     0.031     2.577     2.510
   105   1 H        0.926     0.028     2.611     2.527
   106   1 H        0.926     0.029     2.599     2.521
   107   1 H        0.926     0.031     2.570     2.507
   108   1 H        0.926     0.039     2.464     2.455
   109   1 H        0.926     0.039     2.456     2.451
   110   1 H        0.926     0.024     2.680     2.560
   111   1 H        0.926     0.028     2.613     2.528
   112   1 H        0.926     0.030     2.584     2.514
   113   1 H        0.926     0.032     2.557     2.501
   114   1 H        0.926     0.034     2.534     2.489
   115   1 H        0.926     0.025     2.662     2.551
   116   1 H        0.926     0.026     2.649     2.545

molecular dipole:
                 x           y           z       tot (Debye)
 q only:        0.591      -0.625       0.292
   full:        1.074      -1.279       0.409       4.370

 projected vibrational frequencies (cm⁻¹)
eigval :       -0.00    -0.00    -0.00    -0.00    -0.00     0.00
eigval :        4.59     5.41     6.92    10.51    14.96    18.35
eigval :       22.96    30.55    31.14    33.15    39.25    43.25
eigval :       47.91    50.67    55.20    59.82    64.47    66.22
eigval :       71.34    75.42    79.37    83.68    84.99    86.90
eigval :       95.80   112.07   120.70   124.51   130.83   138.51
eigval :      146.66   163.94   171.43   184.41   200.40   213.02
eigval :      213.20   220.95   227.57   238.49   240.16   242.78
eigval :      246.38   257.01   262.46   267.31   273.52   279.22
eigval :      305.53   312.69   340.30   348.50   365.25   371.41
eigval :      373.63   374.94   377.52   377.62   378.52   380.87
eigval :      389.90   396.23   397.78   405.27   410.85   414.89
eigval :      417.81   436.36   443.16   444.95   449.52   452.97
eigval :      459.04   474.60   476.52   479.79   487.27   506.26
eigval :      511.89   515.80   526.42   529.27   532.32   535.36
eigval :      579.74   582.85   584.25   585.43   587.01   587.51
eigval :      589.64   591.36   593.09   613.14   619.79   621.89
eigval :      632.88   638.63   640.86   645.54   653.26   653.71
eigval :      659.23   661.40   667.16   669.98   670.99   675.93
eigval :      678.96   682.96   686.67   692.01   694.47   698.31
eigval :      706.80   709.53   728.61   735.46   741.11   743.89
eigval :      754.29   762.68   763.69   765.07   767.27   775.11
eigval :      776.20   776.76   782.79   795.30   818.52   822.22
eigval :      863.04   872.01   874.90   875.07   875.59   877.20
eigval :      877.61   878.57   879.19   880.11   898.40   901.86
eigval :      901.96   902.61   902.68   908.15   913.37   914.46
eigval :      914.93   915.67   918.55   918.84   922.87   924.12
eigval :      926.48   927.45   929.11   929.38   929.47   930.03
eigval :      930.55   930.69   931.45   931.93   932.11   932.29
eigval :      932.63   932.92   939.32   943.17   956.19   958.04
eigval :      978.55   994.73  1000.32  1017.13  1018.35  1032.11
eigval :     1037.04  1068.95  1079.61  1081.55  1082.43  1082.66
eigval :     1083.82  1084.96  1085.92  1108.31  1110.60  1115.89
eigval :     1118.99  1120.51  1121.99  1132.59  1134.25  1135.17
eigval :     1136.11  1146.74  1153.00  1165.08  1174.38  1180.49
eigval :     1181.28  1181.89  1182.14  1182.36  1183.05  1186.06
eigval :     1186.13  1189.06  1189.77  1195.11  1196.03  1199.54
eigval :     1202.06  1209.77  1212.21  1219.26  1227.23  1230.68
eigval :     1253.54  1258.01  1260.20  1261.74  1267.17  1270.95
eigval :     1272.41  1276.02  1279.91  1283.33  1284.23  1286.00
eigval :     1302.10  1308.94  1313.11  1314.71  1316.39  1320.14
eigval :     1322.34  1323.60  1329.33  1333.50  1339.22  1347.49
eigval :     1350.37  1365.96  1374.17  1377.07  1384.99  1398.85
eigval :     1401.78  1407.36  1408.21  1418.74  1419.95  1429.14
eigval :     1430.04  1431.25  1432.62  1434.09  1435.57  1438.01
eigval :     1444.44  1450.71  1462.09  1468.71  1479.43  1487.61
eigval :     1489.39  1499.76  1514.90  1518.43  1527.21  1529.73
eigval :     1535.47  1542.14  1547.25  1557.88  1558.13  1564.87
eigval :     1565.14  1571.74  1578.44  1580.60  1582.79  1583.11
eigval :     1594.47  1594.93  1596.59  1597.68  1597.78  1597.96
eigval :     1600.23  1605.21  1608.53  1622.63  3068.14  3070.41
eigval :     3072.14  3072.47  3072.99  3073.34  3075.49  3075.66
eigval :     3075.98  3077.45  3078.40  3079.98  3080.45  3081.59
eigval :     3082.09  3082.13  3082.90  3083.24  3083.57  3083.94
eigval :     3084.67  3085.95  3086.94  3087.40  3089.84  3090.23
eigval :     3091.00  3091.10  3092.49  3093.17  3094.19  3094.31
eigval :     3094.34  3094.86  3096.02  3096.85  3097.11  3101.78
eigval :     3103.38  3103.63  3104.95  3106.88  3110.52  3111.33

   temp. (K)  partition function   enthalpy   heat capacity  entropy
                                   cal/mol     cal/K/mol   cal/K/mol   J/K/mol
 298.15  VIB  0.764E+29            33879.073    209.925    216.084
         ROT  0.345E+09              888.752      2.981     42.048
         INT  0.263E+38            34767.825    212.906    258.132
         TR   0.269E+29             1481.254      4.968     46.303
         TOT                       36249.0793   217.8740   304.4347  1273.7548

       T/K    H(0)-H(T)+PV         H(T)/Eh          T*S/Eh         G(T)/Eh
   ------------------------------------------------------------------------
    298.15    0.577666E-01    0.950280E+00    0.144647E+00    0.805633E+00
   ------------------------------------------------------------------------

         :::::::::::::::::::::::::::::::::::::::::::::::::::::
         ::                  THERMODYNAMIC                  ::
         :::::::::::::::::::::::::::::::::::::::::::::::::::::
         :: total free energy        -179.014844470830 Eh   ::
         ::.................................................::
         :: total energy             -179.820477278453 Eh   ::
         :: zero point energy           0.892512979015 Eh   ::
         :: G(RRHO) w/o ZPVE           -0.086880171391 Eh   ::
         :: G(RRHO) contrib.            0.805632807624 Eh   ::
         :::::::::::::::::::::::::::::::::::::::::::::::::::::

           -------------------------------------------------
          | TOTAL ENERGY             -179.820477278453 Eh   |
          | TOTAL ENTHALPY           -178.870197714546 Eh   |
          | TOTAL FREE ENERGY        -179.014844470830 Eh   |
          | GRADIENT NORM               0.000107968245 Eh/α |
          | HOMO-LUMO GAP               1.972693361490 eV   |
           -------------------------------------------------

 * finished run on 2025/08/24 at 17:10:41.087
