   * xtb version 6.7.1 (edcfbbe) compiled by 'albert@albert-system' on 2024-07-22

   ID    Z sym.   atoms
    1    6 C      1-16, 18-39
    2    7 N      17
    3    1 H      40-68

          program call               : xtb data2507/gas/DPTPEA/DPTPEA_gas_S0_finalOpt.xtbopt.xyz --gfn 2 --spinpol --tblite --uhf 2 --ohess vtight --parallel 40 --molden --ceasefiles --namespace data2507/gas/DPTPEA/DPTPEA_gas_T1_preOpt
 * total energy  :   -98.9588820 Eh     change       -0.9032306E-08 Eh
 * total energy  :   -98.9688996 Eh     change       -0.1001758E-01 Eh
 * total energy  :   -98.9727457 Eh     change       -0.3846115E-02 Eh
 * total energy  :   -98.9741329 Eh     change       -0.1387238E-02 Eh
 * total energy  :   -98.9756764 Eh     change       -0.1543411E-02 Eh
 * total energy  :   -98.9769853 Eh     change       -0.1308927E-02 Eh
 * total energy  :   -98.9780337 Eh     change       -0.1048443E-02 Eh
 * total energy  :   -98.9787252 Eh     change       -0.6915198E-03 Eh
 * total energy  :   -98.9791969 Eh     change       -0.4716242E-03 Eh
 * total energy  :   -98.9796252 Eh     change       -0.4283314E-03 Eh
 * total energy  :   -98.9854755 Eh     change       -0.8088134E-06 Eh
 * total energy  :   -98.9854762 Eh     change       -0.7515291E-06 Eh
 * total energy  :   -98.9854770 Eh     change       -0.7669843E-06 Eh
 * total energy  :   -98.9854777 Eh     change       -0.7011854E-06 Eh
 * total energy  :   -98.9854784 Eh     change       -0.7236885E-06 Eh
 * total energy  :   -98.9854791 Eh     change       -0.6828871E-06 Eh
 * total energy  :   -98.9854798 Eh     change       -0.6744303E-06 Eh
 * total energy  :   -98.9854804 Eh     change       -0.5842735E-06 Eh
 * total energy  :   -98.9854804 Eh     change       -0.3559938E-07 Eh
   *** GEOMETRY OPTIMIZATION CONVERGED AFTER 122 ITERATIONS ***

 final structure:
================
68
 xtb: 6.7.1 (edcfbbe)
C           -6.41878931458007        0.36424750142095        2.15800459410255
C           -5.37432853755328       -0.51498987087721        2.41199220750547
C           -4.20379833166757       -0.43470876110932        1.69322253265555
C           -4.02809185943188        0.54651674649775        0.69762947593225
C           -2.82446417703477        0.59367281396809       -0.07417286071827
C           -2.04292629597989       -0.64397735946008       -0.23795902415806
C           -2.73870260321383       -1.82840001944680       -0.65865994849409
C           -2.31677462966386       -3.11237632876618       -0.26828318850069
C           -3.02654054085208       -4.23378381004290       -0.63802296595322
C           -4.17487228924286       -4.11950443029447       -1.40844359719443
C           -4.61507983314278       -2.86035893054547       -1.79254296643147
C           -3.91760272249638       -1.73338552690784       -1.42003380468752
C           -0.64348554120401       -0.59830389801554       -0.01173542528747
C            0.25161483834405       -1.49958566946969       -0.63535323139378
C            1.60882730742855       -1.36031742626136       -0.51383997646226
C            2.16014814700964       -0.32120001231343        0.24818712697325
N            3.53894516621959       -0.14824991878012        0.33268262045021
C            4.07615766193146        1.14380152583593        0.37345558126100
C            5.20267128494546        1.41616877183210        1.14980541844907
C            5.73150786967399        2.69161584767967        1.18358303681909
C            5.14565168780131        3.71413316488838        0.45504126664491
C            4.02404441472587        3.44942897557673       -0.31425275010965
C            3.49208332869021        2.17604415360407       -0.36181884407732
C            4.38903496706041       -1.25908909855337        0.33822884179690
C            4.02284369537126       -2.42242490423912        1.01587160925741
C            4.86182235621657       -3.51930423302397        1.01739224199837
C            6.07692072498029       -3.47469574670812        0.35312042383683
C            6.44651739674138       -2.32075351739187       -0.31892625251494
C            5.61171741216559       -1.22073522111909       -0.33260748178377
C            1.28866516423101        0.55998420337706        0.90286280271596
C           -0.06723903474874        0.42943388594206        0.77286732367052
C           -2.34106428924806        1.78744948065329       -0.69861046338046
C           -1.49082566512568        1.71947825148547       -1.82075983045608
C           -0.96459581201793        2.85930063556811       -2.38421864910126
C           -1.25191420636403        4.10771392585413       -1.84865051522055
C           -2.07676747130636        4.19750975323070       -0.73544095718805
C           -2.61562636471247        3.06431066980525       -0.16888429970932
C           -5.10456844856059        1.42062822419170        0.44800535529240
C           -6.27535844124787        1.32497411006669        1.16621642300306
H           -7.33826081846301        0.29506290665515        2.71970902580395
H           -5.48121596744289       -1.26847367749254        3.17920514078027
H           -3.39186395552933       -1.11427455218959        1.90665436341488
H           -1.45141523754381       -3.21221786739671        0.37078650126256
H           -2.68990183080772       -5.20932897536251       -0.31635032654081
H           -4.72640728212071       -5.00150503223556       -1.69776596226527
H           -5.51161342341838       -2.76273654258343       -2.38792971404746
H           -4.26138051027989       -0.75860863684531       -1.73427957248429
H           -0.14345738561337       -2.26686320156542       -1.28395728834020
H            2.26956156663013       -2.03541149852954       -1.03881915498178
H            5.65416589835038        0.62295650131585        1.72764642743381
H            6.60273547103325        2.89016594191307        1.79024431995008
H            5.56019523649155        4.71017505196335        0.48683509253610
H            3.56301158074402        4.23892870780108       -0.88908789791460
H            2.62352752923175        1.97097715053131       -0.97045612461113
H            3.08132375213913       -2.45346720049285        1.54430122400573
H            4.56849787267487       -4.41285447357142        1.54843443515656
H            6.73129866346400       -4.33298583011541        0.35905451604026
H            7.38922336684423       -2.27945776103088       -0.84437177325455
H            5.89656003228461       -0.32630469488025       -0.86709260607701
H            1.69993503236202        1.34679627767847        1.51862758558013
H           -0.71740370305575        1.10914497548258        1.30245285175123
H           -1.27396574182212        0.75490393722383       -2.25581334258606
H           -0.32344612891961        2.78099963922024       -3.25090769505221
H           -0.83260662096606        4.99993386303202       -2.28904151253580
H           -2.29019842347331        5.16439168269408       -0.30201502452356
H           -3.21513520332313        3.14580031863259        0.72593761636693
H           -5.02368719960143        2.14160233213949       -0.35234870562711
H           -7.09247434355810        1.99810669884659        0.94822582472627

 projected vibrational frequencies (cm⁻¹)
eigval :       -0.00    -0.00     0.00     0.00     0.00     0.00
eigval :        8.02    13.53    17.87    32.55    35.49    47.16
eigval :       49.32    56.36    61.01    64.18    66.91    81.13
eigval :       83.41    95.94   118.70   125.51   162.60   188.56
eigval :      197.27   204.41   215.07   236.05   242.77   272.93
eigval :      279.31   295.11   309.66   311.29   359.37   367.49
eigval :      370.46   372.50   377.91   380.04   383.84   387.47
eigval :      398.54   410.14   436.47   453.76   476.93   481.76
eigval :      500.55   516.78   547.72   578.63   582.16   583.58
eigval :      585.84   586.09   591.38   599.45   602.83   612.28
eigval :      618.60   655.18   658.66   659.30   660.73   665.48
eigval :      672.01   677.21   714.09   746.27   748.38   750.56
eigval :      757.02   760.56   812.00   834.03   851.61   857.65
eigval :      868.24   869.42   873.87   875.79   883.18   888.92
eigval :      890.71   893.05   895.83   896.60   909.53   911.37
eigval :      916.98   921.57   922.81   923.94   924.59   925.10
eigval :      927.45   928.71   929.45   929.69   936.29   941.17
eigval :      942.41   970.93   980.59   985.34   995.43  1004.26
eigval :     1015.34  1079.83  1080.48  1082.10  1082.76  1083.67
eigval :     1104.59  1121.92  1122.14  1124.54  1125.85  1132.91
eigval :     1148.30  1179.84  1180.09  1180.28  1180.45  1180.63
eigval :     1182.36  1192.17  1192.91  1194.55  1198.42  1207.06
eigval :     1219.79  1247.73  1268.36  1275.38  1277.51  1280.21
eigval :     1282.36  1287.13  1305.64  1312.56  1318.60  1319.93
eigval :     1323.11  1324.99  1326.97  1327.39  1329.52  1332.90
eigval :     1354.10  1420.55  1424.71  1430.24  1432.59  1437.13
eigval :     1438.04  1441.44  1447.82  1455.68  1465.46  1470.62
eigval :     1471.86  1502.39  1540.11  1542.69  1547.02  1567.37
eigval :     1569.85  1574.06  1577.23  1578.61  1584.61  1590.93
eigval :     1596.06  3066.91  3067.83  3068.49  3069.54  3070.31
eigval :     3071.31  3075.29  3077.46  3077.71  3078.32  3078.87
eigval :     3079.45  3081.02  3082.07  3083.78  3084.44  3085.82
eigval :     3086.84  3087.04  3088.36  3090.50  3091.20  3091.50
eigval :     3091.62  3092.44  3093.15  3094.87  3098.82  3099.57

   temp. (K)  partition function   enthalpy   heat capacity  entropy
                                   cal/mol     cal/K/mol   cal/K/mol   J/K/mol
 298.15  VIB  0.912E+15            18656.177    117.955    117.462
         ROT  0.420E+08              888.752      2.981     37.862
         INT  0.383E+23            19544.930    120.936    155.324
         TR   0.108E+29             1481.254      4.968     44.493
         TOT                       21026.1836   125.9044   199.8170   836.0343

       T/K    H(0)-H(T)+PV         H(T)/Eh          T*S/Eh         G(T)/Eh
   ------------------------------------------------------------------------
    298.15    0.335074E-01    0.568370E+00    0.949395E-01    0.473431E+00
   ------------------------------------------------------------------------

         :::::::::::::::::::::::::::::::::::::::::::::::::::::
         ::                  THERMODYNAMIC                  ::
         :::::::::::::::::::::::::::::::::::::::::::::::::::::
         :: total free energy         -98.512049738707 Eh   ::
         ::.................................................::
         :: total energy              -98.985480410594 Eh   ::
         :: zero point energy           0.534862812599 Eh   ::
         :: G(RRHO) w/o ZPVE           -0.061432140712 Eh   ::
         :: G(RRHO) contrib.            0.473430671887 Eh   ::
         :::::::::::::::::::::::::::::::::::::::::::::::::::::

           -------------------------------------------------
          | TOTAL ENERGY              -98.985480410594 Eh   |
          | TOTAL ENTHALPY            -98.417110241585 Eh   |
          | TOTAL FREE ENERGY         -98.512049738707 Eh   |
          | GRADIENT NORM               0.000064720297 Eh/α |
           -------------------------------------------------

 * finished run on 2025/07/18 at 16:00:09.675
