   * xtb version 6.7.1 (edcfbbe) compiled by 'albert@albert-system' on 2024-07-22

   ID    Z sym.   atoms
    1    6 C      1-16, 18-39
    2    7 N      17
    3    1 H      40-68

          program call               : xtb data2507/gas/DPTPEA/DPTPEA_gas_T1_crest.xyz --gfn 2 --spinpol --tblite --uhf 2 --ohess vtight --parallel 40 --molden --ceasefiles --namespace data2507/gas/DPTPEA/DPTPEA_gas_T1_finalOpt
 * total energy  :   -98.9854947 Eh     change        0.1072183E-07 Eh
 * total energy  :   -98.9855271 Eh     change       -0.3233907E-04 Eh
 * total energy  :   -98.9855355 Eh     change       -0.8403920E-05 Eh
 * total energy  :   -98.9855376 Eh     change       -0.2127191E-05 Eh
 * total energy  :   -98.9855406 Eh     change       -0.2953488E-05 Eh
 * total energy  :   -98.9855429 Eh     change       -0.2365887E-05 Eh
 * total energy  :   -98.9855451 Eh     change       -0.2212130E-05 Eh
 * total energy  :   -98.9855476 Eh     change       -0.2450313E-05 Eh
 * total energy  :   -98.9855504 Eh     change       -0.2796252E-05 Eh
 * total energy  :   -98.9855540 Eh     change       -0.3582435E-05 Eh
 * total energy  :   -98.9855913 Eh     change       -0.3493169E-06 Eh
 * total energy  :   -98.9855918 Eh     change       -0.5634619E-06 Eh
 * total energy  :   -98.9855924 Eh     change       -0.6273891E-06 Eh
 * total energy  :   -98.9855930 Eh     change       -0.5816401E-06 Eh
 * total energy  :   -98.9855935 Eh     change       -0.4355582E-06 Eh
 * total energy  :   -98.9855943 Eh     change       -0.8039341E-06 Eh
 * total energy  :   -98.9855948 Eh     change       -0.5617168E-06 Eh
 * total energy  :   -98.9855952 Eh     change       -0.4202420E-06 Eh
 * total energy  :   -98.9855953 Eh     change       -0.3451564E-07 Eh
   *** GEOMETRY OPTIMIZATION CONVERGED AFTER 44 ITERATIONS ***

 final structure:
================
68
 xtb: 6.7.1 (edcfbbe)
C           -6.12999233873028        0.24736042629042        2.62867733502495
C           -5.03922909043116       -0.60546948077248        2.73506403393217
C           -3.96616488540174       -0.47511097719526        1.88376713034670
C           -3.93733810745223        0.53230321276821        0.89945721333118
C           -2.83152431728743        0.63067696443320       -0.00298373965698
C           -2.04343594839245       -0.58552717643506       -0.27525424550586
C           -2.75520211789427       -1.75265802868941       -0.71711455060784
C           -2.30970948895180       -3.05319028178996       -0.41990357955862
C           -3.03656913858501       -4.15680557621070       -0.81008592461582
C           -4.22591528648995       -4.00747608737588       -1.50862364482336
C           -4.69066296799411       -2.73184039572031       -1.79765058930389
C           -3.97617826547937       -1.62307742578105       -1.40343108740032
C           -0.63668414755462       -0.53710753754481       -0.10624396168809
C            0.23932457162699       -1.41378207366427       -0.78869091699154
C            1.59954254331632       -1.29708339904978       -0.67700366924793
C            2.17357777521110       -0.30473169550780        0.12919778619237
N            3.55639565987321       -0.17766438871704        0.22845068836464
C            4.13716117809545        1.09069686452602        0.34367401872017
C            5.25929848621061        1.28280528109847        1.14986543050837
C            5.83253755250138        2.53480872094423        1.25620438838322
C            5.29605848641535        3.61299093730360        0.57119343610998
C            4.17901059605471        3.42802863658362       -0.22741216127340
C            3.60264701030442        2.17880130016767       -0.34698508561685
C            4.36990362906580       -1.31570468549884        0.19676954561671
C            3.96002363491047       -2.49306944230589        0.82307763624608
C            4.76415423263078       -3.61521718621240        0.78842332578155
C            5.98736520893557       -3.58252503056555        0.13856228839674
C            6.40043176167884       -2.41476565769410       -0.48230924797819
C            5.60062855451808       -1.28913473245870       -0.45959057891787
C            1.32151930641899        0.56961879945800        0.81751461594124
C           -0.03778916406246        0.46169582119381        0.69793694836784
C           -2.45291886736261        1.84365095210402       -0.65957546190379
C           -1.72285322344264        1.80712900388657       -1.86466015604576
C           -1.30707214887568        2.96608527985258       -2.47896786961727
C           -1.58593234591009        4.20294622318909       -1.91264641779570
C           -2.28542495698123        4.26158814823503       -0.71486195854425
C           -2.71487412016046        3.10872553671019       -0.09657590260926
C           -5.06023378085864        1.37667286014930        0.79877594783337
C           -6.13358179539711        1.23077512528086        1.64908153913538
H           -6.97285620706831        0.13966091703967        3.29479674236995
H           -5.03277230666881       -1.37763474163134        3.49104269870873
H           -3.11632217596994       -1.13477212563424        1.98093728278598
H           -1.41094614727979       -3.18348479542674        0.16511445057656
H           -2.68041510988285       -5.14642234575030       -0.56049303188994
H           -4.79035388826785       -4.87558652803704       -1.81463286074526
H           -5.61987426089719       -2.60701859117800       -2.33503833992855
H           -4.34017695471121       -0.63418706279075       -1.64213896237264
H           -0.17314493715045       -2.14606695576356       -1.46621225527673
H            2.24559779648021       -1.95725069525280       -1.23804814532663
H            5.67253406034409        0.44579306913255        1.69353334269454
H            6.69974400052658        2.67094020068697        1.88543372671648
H            5.74537102386260        4.59039904031813        0.65930410943074
H            3.75681908941143        4.26160564223397       -0.76893662878127
H            2.73809241257367        2.03531107446472       -0.97851003501699
H            3.01232328044255       -2.51558891196753        1.34077162458916
H            4.43712972455556       -4.51948998819651        1.28020287193073
H            6.61450099694649       -4.46067076498427        0.11635786671733
H            7.34997621637874       -2.38218923562690       -0.99592134482761
H            5.91964280514191       -0.38304368049395       -0.95363137620190
H            1.74952699156148        1.32910249217678        1.45577533068972
H           -0.67341797929067        1.13316923140225        1.25524553893896
H           -1.51333229047887        0.85027222396608       -2.32015669788550
H           -0.75991635899533        2.91234651230280       -3.40951236694956
H           -1.25429353288556        5.11053474935292       -2.39442763771649
H           -2.48728614876336        5.21984877042270       -0.25738494917713
H           -3.21521794541959        3.16757706632393        0.85883756165232
H           -5.09696203658834        2.11468905483248        0.01091409230652
H           -6.98962180598571        1.88250704599383        1.54553487226172

 projected vibrational frequencies (cm⁻¹)
eigval :       -0.00    -0.00     0.00     0.00     0.00     0.00
eigval :        8.42    13.31    18.13    32.29    35.08    45.95
eigval :       48.64    55.30    60.16    62.35    66.48    80.52
eigval :       82.86    94.12   118.20   125.66   159.09   187.35
eigval :      196.75   203.44   213.90   236.17   242.02   273.59
eigval :      278.85   295.12   309.80   311.01   359.02   367.13
eigval :      370.23   372.77   377.81   379.86   383.72   387.21
eigval :      397.90   409.64   436.32   453.71   477.25   481.44
eigval :      500.31   517.72   547.43   578.90   582.18   583.76
eigval :      585.83   586.22   591.55   599.57   603.42   612.77
eigval :      619.26   655.69   658.67   659.26   660.60   665.52
eigval :      672.83   677.17   714.78   746.59   748.52   750.88
eigval :      757.08   760.48   811.63   833.38   851.30   857.30
eigval :      868.26   869.55   874.02   875.74   883.18   889.50
eigval :      891.03   893.20   896.23   897.27   909.57   911.25
eigval :      916.81   921.57   922.90   924.05   924.41   925.02
eigval :      927.58   928.78   929.52   929.70   935.72   941.95
eigval :      943.89   971.43   981.04   985.79   995.03  1004.27
eigval :     1015.72  1080.19  1080.77  1081.92  1082.61  1083.57
eigval :     1104.14  1121.53  1121.95  1124.23  1125.66  1132.77
eigval :     1148.21  1180.10  1180.39  1180.54  1180.63  1180.72
eigval :     1182.14  1191.94  1193.09  1194.64  1198.30  1206.88
eigval :     1219.09  1247.17  1268.45  1275.29  1277.67  1280.05
eigval :     1282.25  1287.17  1306.25  1311.82  1318.99  1320.02
eigval :     1322.26  1325.04  1327.20  1327.47  1329.44  1332.68
eigval :     1354.30  1420.75  1424.57  1430.24  1432.78  1437.44
eigval :     1438.64  1441.74  1448.44  1455.61  1465.69  1471.11
eigval :     1472.43  1503.87  1540.98  1543.84  1547.93  1568.13
eigval :     1570.54  1574.36  1577.81  1578.90  1583.97  1591.20
eigval :     1596.22  3067.07  3068.05  3068.68  3069.69  3069.95
eigval :     3071.02  3075.13  3077.26  3077.61  3078.09  3078.72
eigval :     3079.24  3081.01  3082.35  3083.29  3083.79  3085.10
eigval :     3086.54  3086.94  3087.98  3090.33  3091.09  3091.34
eigval :     3091.60  3092.43  3092.87  3093.86  3098.61  3099.14

   temp. (K)  partition function   enthalpy   heat capacity  entropy
                                   cal/mol     cal/K/mol   cal/K/mol   J/K/mol
 298.15  VIB  0.103E+16            18676.004    117.840    117.616
         ROT  0.426E+08              888.752      2.981     37.891
         INT  0.440E+23            19564.756    120.821    155.507
         TR   0.108E+29             1481.254      4.968     44.493
         TOT                       21046.0101   125.7888   200.0005   836.8021

       T/K    H(0)-H(T)+PV         H(T)/Eh          T*S/Eh         G(T)/Eh
   ------------------------------------------------------------------------
    298.15    0.335390E-01    0.568381E+00    0.950267E-01    0.473355E+00
   ------------------------------------------------------------------------

         :::::::::::::::::::::::::::::::::::::::::::::::::::::
         ::                  THERMODYNAMIC                  ::
         :::::::::::::::::::::::::::::::::::::::::::::::::::::
         :: total free energy         -98.512240720403 Eh   ::
         ::.................................................::
         :: total energy              -98.985595269246 Eh   ::
         :: zero point energy           0.534842287342 Eh   ::
         :: G(RRHO) w/o ZPVE           -0.061487738498 Eh   ::
         :: G(RRHO) contrib.            0.473354548843 Eh   ::
         :::::::::::::::::::::::::::::::::::::::::::::::::::::

           -------------------------------------------------
          | TOTAL ENERGY              -98.985595269246 Eh   |
          | TOTAL ENTHALPY            -98.417214029945 Eh   |
          | TOTAL FREE ENERGY         -98.512240720403 Eh   |
          | GRADIENT NORM               0.000067633217 Eh/α |
           -------------------------------------------------

 * finished run on 2025/07/18 at 16:04:09.999
