   * xtb version 6.7.1 (edcfbbe) compiled by 'albert@albert-system' on 2024-07-22

   ID    Z sym.   atoms
    1    6 C      1-16, 18-39
    2    7 N      17
    3    1 H      40-68

          program call               : xtb data2507/gas/DPTPEA/DPTPEA_gas_S0_crest.xyz --gfn 2 --ohess vtight --parallel 40 --molden --ceasefiles --namespace data2507/gas/DPTPEA/DPTPEA_gas_S0_finalOpt
          :  Hamiltonian                  GFN2-xTB          :
 * total energy  :   -99.0463874 Eh     change       -0.1223597E-08 Eh
 * total energy  :   -99.0463884 Eh     change       -0.9972442E-06 Eh
 * total energy  :   -99.0463897 Eh     change       -0.1361208E-05 Eh
 * total energy  :   -99.0463904 Eh     change       -0.6510855E-06 Eh
 * total energy  :   -99.0463912 Eh     change       -0.8564204E-06 Eh
 * total energy  :   -99.0463920 Eh     change       -0.7443828E-06 Eh
 * total energy  :   -99.0463924 Eh     change       -0.4255985E-06 Eh
 * total energy  :   -99.0463927 Eh     change       -0.3267653E-06 Eh
 * total energy  :   -99.0463930 Eh     change       -0.2558013E-06 Eh
 * total energy  :   -99.0463932 Eh     change       -0.2305864E-06 Eh
 * total energy  :   -99.0463935 Eh     change       -0.2798830E-06 Eh
 * total energy  :   -99.0463938 Eh     change       -0.3003935E-06 Eh
 * total energy  :   -99.0463940 Eh     change       -0.2024374E-06 Eh
 * total energy  :   -99.0463941 Eh     change       -0.6229821E-07 Eh
   *** GEOMETRY OPTIMIZATION CONVERGED AFTER 14 ITERATIONS ***

 final structure:
================
68
 xtb: 6.7.1 (edcfbbe)
C           -7.07680073886559        0.53244616150099        0.36773311603856
C           -6.29029617986007       -0.21982158212992        1.22495908893004
C           -4.91542655853676       -0.21854563535017        1.09018398427321
C           -4.30350384726665        0.53663517028776        0.09122498340539
C           -2.83920991154890        0.56544213030461       -0.04926001325458
C           -2.07934276951682       -0.55263265777395        0.00068902123542
C           -2.65357097771036       -1.90721438626021       -0.00872129180821
C           -2.14930945703303       -2.88353031672171        0.84854597168707
C           -2.66986042535310       -4.16372848407988        0.83999141866341
C           -3.69174687238399       -4.49349124713722       -0.03463279930715
C           -4.18590996661723       -3.53578878087336       -0.90524592253869
C           -3.67203060554988       -2.25342641723896       -0.89481663890546
C           -0.61208704405158       -0.48568895604556        0.05754735393120
C            0.16813224243933       -1.31051463853510       -0.75117324313814
C            1.54378952495404       -1.21784798112224       -0.74114886723251
C            2.18326500504405       -0.30902573021275        0.10210268416722
N            3.57513244875696       -0.17888030847494        0.09283564473650
C            4.15107821641089        1.08787650933080        0.24106110507986
C            5.34726774021880        1.24443457152812        0.94102150780636
C            5.91279580258992        2.49669447875971        1.08193557599101
C            5.29508709387839        3.61160328728901        0.53949265321509
C            4.10367480857692        3.46255224800906       -0.15148712739512
C            3.53504529984249        2.21370061258838       -0.30652513790486
C            4.38454695806312       -1.30521481458868       -0.08901669248627
C            4.02710396758661       -2.52905560892031        0.47685456896510
C            4.82546771634391       -3.64090771537069        0.29301123074747
C            5.99308723914643       -3.55246284247848       -0.44713595153546
C            6.35430380194003       -2.33884887764276       -1.00901782652917
C            5.55809766090630       -1.22326833129301       -0.83839614602751
C            1.40747456838345        0.47815780343384        0.95483083517763
C            0.03359074988365        0.39383215963963        0.92650046899057
C           -2.25110611203939        1.90205778645866       -0.24363666885071
C           -1.28738919227743        2.12759173684084       -1.22530305848254
C           -0.74698529564649        3.38652517570827       -1.40188530474841
C           -1.16146762759050        4.44220908616781       -0.60619052381416
C           -2.13258639320278        4.23335635561237        0.35857904572836
C           -2.67865151310663        2.97573322438259        0.53469071525835
C           -5.10244341427362        1.30538186251887       -0.75331953825424
C           -6.47796848135898        1.29669118777436       -0.61990821194871
H           -8.15175070393624        0.52733015527591        0.47272702858817
H           -6.75148062435263       -0.80803827156193        2.00506658408316
H           -4.30479483289511       -0.79648417342388        1.76833338919636
H           -1.35332425200838       -2.62581928581966        1.53320934947146
H           -2.27635039849767       -4.90812940491361        1.51716911341581
H           -4.09773015930850       -5.49434211223074       -0.04190771032692
H           -4.97451647577054       -3.79114044117740       -1.59812989340786
H           -4.05158221990967       -1.51314575308298       -1.58368776383339
H           -0.31584816744347       -2.00796892840672       -1.42007661653911
H            2.13379939718299       -1.84063734977244       -1.39763452484404
H            5.82569961983979        0.37876782388268        1.37539876537098
H            6.83867289387743        2.60336620141803        1.62800764362495
H            5.73838238862609        4.58897713593050        0.65520943017921
H            3.61567423550585        4.32521412434592       -0.58090903342263
H            2.60951452307056        2.10153938388796       -0.85220368222506
H            3.12226981703798       -2.59824415690777        1.06285093607818
H            4.53780265658806       -4.58184521693852        0.73877188730390
H            6.61658086179093       -4.42267195094492       -0.58539497253106
H            7.25964205829202       -2.26152538336467       -1.59312969105552
H            5.83693589225271       -0.28099108126013       -1.28701275082481
H            1.89435174295341        1.16004601487738        1.63646588807605
H           -0.55241046357352        1.00649279933286        1.59522564385106
H           -0.97100844426113        1.30994638709823       -1.85643194516188
H           -0.00136966320299        3.54740354081730       -2.16740923189093
H           -0.73465128790536        5.42496619910576       -0.74260795167371
H           -2.46640855070217        5.05460065158853        0.97628438018306
H           -3.43407038654960        2.81374506464016        1.29089365263004
H           -4.63611634624822        1.90122104454720       -1.52552046501544
H           -7.08580390172788        1.89006151947053       -1.28769868996657

          :  Hamiltonian                  GFN2-xTB          :
         :: gradient norm              0.000069543274 Eh/a0 ::
         :: HOMO-LUMO gap              2.249305083582 eV    ::
         :: SCC energy              -100.973330066817 Eh    ::
         :: -> dispersion             -0.095351465831 Eh    ::
         :: repulsion energy           1.926936016612 Eh    ::

    * Orbital Energies and Occupations

         #    Occupation            Energy/Eh            Energy/eV
      -------------------------------------------------------------
         1        2.0000           -0.6632478             -18.0479
       ...           ...                  ...                  ...
        81        2.0000           -0.4086569             -11.1201
        82        2.0000           -0.4065558             -11.0629
        83        2.0000           -0.4062918             -11.0558
        84        2.0000           -0.4052909             -11.0285
        85        2.0000           -0.4048037             -11.0153
        86        2.0000           -0.4037678             -10.9871
        87        2.0000           -0.4028250             -10.9614
        88        2.0000           -0.4005587             -10.8998
        89        2.0000           -0.3994961             -10.8708
        90        2.0000           -0.3973552             -10.8126
        91        2.0000           -0.3957018             -10.7676
        92        2.0000           -0.3654588              -9.9446
        93        2.0000           -0.3449147              -9.3856 (HOMO)
        94                         -0.2622542              -7.1363 (LUMO)
        95                         -0.2289924              -6.2312
        96                         -0.2287869              -6.2256
        97                         -0.2263292              -6.1587
        98                         -0.2230789              -6.0703
        99                         -0.2221661              -6.0454
       100                         -0.2205056              -6.0003
       101                         -0.2199736              -5.9858
       102                         -0.2177994              -5.9266
       103                         -0.2154807              -5.8635
       104                         -0.2096817              -5.7057
       ...                                ...                  ...
       185                          0.6946143              18.9014
      -------------------------------------------------------------
                  HL-Gap            0.0826605 Eh            2.2493 eV

     #   Z          covCN         q      C6AA      α(0)
     1   6 C        2.920    -0.032    28.787     8.798
     2   6 C        2.919    -0.030    28.739     8.791
     3   6 C        2.924    -0.032    28.801     8.801
     4   6 C        2.978     0.015    27.661     8.627
     5   6 C        2.968    -0.008    28.215     8.713
     6   6 C        2.967    -0.006    28.161     8.705
     7   6 C        2.978     0.015    27.666     8.628
     8   6 C        2.925    -0.033    28.811     8.802
     9   6 C        2.918    -0.030    28.751     8.793
    10   6 C        2.920    -0.031    28.782     8.798
    11   6 C        2.919    -0.029    28.736     8.791
    12   6 C        2.924    -0.032    28.795     8.800
    13   6 C        2.979     0.007    27.865     8.659
    14   6 C        2.924    -0.033    28.820     8.804
    15   6 C        2.920    -0.049    29.217     8.864
    16   6 C        2.925     0.063    26.583     8.455
    17   7 N        2.752    -0.075    22.688     7.074
    18   6 C        2.925     0.065    26.543     8.449
    19   6 C        2.922    -0.048    29.189     8.860
    20   6 C        2.920    -0.029    28.737     8.791
    21   6 C        2.919    -0.039    28.963     8.825
    22   6 C        2.920    -0.029    28.726     8.789
    23   6 C        2.922    -0.047    29.177     8.858
    24   6 C        2.923     0.065    26.540     8.448
    25   6 C        2.923    -0.048    29.181     8.859
    26   6 C        2.919    -0.029    28.732     8.790
    27   6 C        2.919    -0.039    28.962     8.825
    28   6 C        2.920    -0.029    28.733     8.790
    29   6 C        2.922    -0.048    29.187     8.859
    30   6 C        2.921    -0.048    29.194     8.861
    31   6 C        2.923    -0.032    28.806     8.802
    32   6 C        2.978     0.016    27.658     8.627
    33   6 C        2.924    -0.032    28.807     8.802
    34   6 C        2.919    -0.030    28.739     8.791
    35   6 C        2.920    -0.031    28.785     8.798
    36   6 C        2.918    -0.030    28.747     8.792
    37   6 C        2.925    -0.032    28.809     8.802
    38   6 C        2.925    -0.033    28.814     8.803
    39   6 C        2.918    -0.030    28.750     8.793
    40   1 H        0.926     0.028     2.608     2.525
    41   1 H        0.926     0.029     2.608     2.525
    42   1 H        0.926     0.028     2.611     2.527
    43   1 H        0.926     0.027     2.625     2.533
    44   1 H        0.926     0.028     2.609     2.526
    45   1 H        0.926     0.029     2.605     2.524
    46   1 H        0.926     0.029     2.604     2.524
    47   1 H        0.926     0.029     2.605     2.524
    48   1 H        0.926     0.031     2.579     2.511
    49   1 H        0.926     0.032     2.563     2.504
    50   1 H        0.926     0.031     2.566     2.505
    51   1 H        0.926     0.031     2.572     2.508
    52   1 H        0.926     0.030     2.591     2.517
    53   1 H        0.926     0.031     2.573     2.508
    54   1 H        0.926     0.031     2.565     2.505
    55   1 H        0.926     0.031     2.570     2.507
    56   1 H        0.926     0.031     2.571     2.507
    57   1 H        0.926     0.030     2.590     2.517
    58   1 H        0.926     0.031     2.572     2.508
    59   1 H        0.926     0.031     2.565     2.505
    60   1 H        0.926     0.032     2.560     2.502
    61   1 H        0.926     0.031     2.569     2.506
    62   1 H        0.926     0.028     2.621     2.532
    63   1 H        0.926     0.027     2.626     2.534
    64   1 H        0.926     0.028     2.610     2.526
    65   1 H        0.926     0.029     2.607     2.525
    66   1 H        0.926     0.028     2.621     2.532
    67   1 H        0.926     0.027     2.623     2.533
    68   1 H        0.926     0.028     2.609     2.526

molecular dipole:
                 x           y           z       tot (Debye)
 q only:        0.096      -0.020       0.007
   full:        0.088      -0.016       0.005       0.227

 projected vibrational frequencies (cm⁻¹)
eigval :       -0.00     0.00     0.00     0.00     0.00     0.00
eigval :       12.71    14.39    21.12    36.14    37.46    47.49
eigval :       49.75    53.63    61.12    65.61    67.70    70.51
eigval :       74.28    80.49   108.99   125.86   154.89   183.82
eigval :      185.55   202.67   228.60   235.61   240.75   249.40
eigval :      271.05   299.78   308.12   317.88   357.21   362.56
eigval :      371.63   375.35   376.65   378.48   381.53   390.80
eigval :      398.45   424.35   445.78   470.90   484.18   492.66
eigval :      511.54   553.13   556.91   580.00   585.17   585.84
eigval :      587.71   591.19   593.00   601.11   609.89   618.01
eigval :      641.18   659.28   659.78   668.79   671.66   677.27
eigval :      678.20   691.19   717.91   751.69   756.71   759.42
eigval :      761.40   762.48   813.33   843.25   870.41   874.13
eigval :      875.12   876.74   877.53   878.11   879.24   891.41
eigval :      893.35   900.99   901.87   902.76   910.32   917.33
eigval :      919.33   927.03   927.29   928.55   929.59   929.78
eigval :      929.87   930.22   930.28   931.44   932.09   932.20
eigval :      948.34   980.49   986.73   995.72  1004.88  1015.48
eigval :     1035.30  1083.46  1084.20  1084.56  1085.00  1085.98
eigval :     1121.72  1122.29  1122.79  1124.01  1124.98  1143.01
eigval :     1164.89  1180.68  1180.82  1182.15  1182.18  1182.35
eigval :     1187.30  1195.88  1196.65  1198.83  1199.78  1204.13
eigval :     1216.35  1242.55  1271.30  1278.96  1280.61  1282.21
eigval :     1282.83  1284.69  1294.32  1304.93  1314.91  1316.99
eigval :     1318.27  1321.57  1322.16  1327.44  1327.58  1335.00
eigval :     1412.35  1430.06  1431.32  1432.12  1436.52  1443.58
eigval :     1467.09  1472.33  1474.80  1476.72  1477.15  1486.86
eigval :     1554.62  1576.95  1578.03  1578.61  1579.78  1580.92
eigval :     1584.14  1594.03  1595.03  1595.34  1599.19  1601.56
eigval :     1612.46  3068.57  3068.65  3069.24  3070.21  3072.30
eigval :     3072.88  3074.46  3075.27  3075.73  3076.44  3076.85
eigval :     3078.69  3079.20  3079.38  3081.12  3085.11  3085.54
eigval :     3085.72  3086.41  3086.49  3087.89  3088.93  3089.55
eigval :     3090.96  3092.03  3092.38  3093.51  3096.93  3097.42

   temp. (K)  partition function   enthalpy   heat capacity  entropy
                                   cal/mol     cal/K/mol   cal/K/mol   J/K/mol
 298.15  VIB  0.617E+15            18601.188    116.978    117.281
         ROT  0.417E+08              888.752      2.981     37.850
         INT  0.257E+23            19489.940    119.959    155.131
         TR   0.108E+29             1481.254      4.968     44.493
         TOT                       20971.1938   124.9274   199.6238   835.2259

       T/K    H(0)-H(T)+PV         H(T)/Eh          T*S/Eh         G(T)/Eh
   ------------------------------------------------------------------------
    298.15    0.334197E-01    0.570558E+00    0.948477E-01    0.475711E+00
   ------------------------------------------------------------------------

         :::::::::::::::::::::::::::::::::::::::::::::::::::::
         ::                  THERMODYNAMIC                  ::
         :::::::::::::::::::::::::::::::::::::::::::::::::::::
         :: total free energy         -98.570683426551 Eh   ::
         ::.................................................::
         :: total energy              -99.046394050197 Eh   ::
         :: zero point energy           0.537138595012 Eh   ::
         :: G(RRHO) w/o ZPVE           -0.061427971366 Eh   ::
         :: G(RRHO) contrib.            0.475710623646 Eh   ::
         :::::::::::::::::::::::::::::::::::::::::::::::::::::

           -------------------------------------------------
          | TOTAL ENERGY              -99.046394050197 Eh   |
          | TOTAL ENTHALPY            -98.475835730553 Eh   |
          | TOTAL FREE ENERGY         -98.570683426551 Eh   |
          | GRADIENT NORM               0.000069542123 Eh/α |
          | HOMO-LUMO GAP               2.249305566618 eV   |
           -------------------------------------------------

 * finished run on 2025/07/18 at 15:59:59.287
