   * xtb version 6.7.1 (edcfbbe) compiled by 'albert@albert-system' on 2024-07-22

   ID    Z sym.   atoms
    1    6 C      1-16, 18-39
    2    7 N      17
    3    1 H      40-68

          program call               : xtb data2507/gas/DPTPEA/DPTPEA.xyz --gfn 2 --ohess vtight --parallel 40 --molden --ceasefiles --namespace data2507/gas/DPTPEA/DPTPEA_gas_S0_preOpt
          :  Hamiltonian                  GFN2-xTB          :
 * total energy  :   -99.0231713 Eh     change       -0.1336019E-08 Eh
 * total energy  :   -99.0338261 Eh     change       -0.1065485E-01 Eh
 * total energy  :   -99.0375696 Eh     change       -0.3743444E-02 Eh
 * total energy  :   -99.0387863 Eh     change       -0.1216695E-02 Eh
 * total energy  :   -99.0395796 Eh     change       -0.7933536E-03 Eh
 * total energy  :   -99.0401332 Eh     change       -0.5535486E-03 Eh
 * total energy  :   -99.0406923 Eh     change       -0.5590774E-03 Eh
 * total energy  :   -99.0414126 Eh     change       -0.7203734E-03 Eh
 * total energy  :   -99.0421445 Eh     change       -0.7319031E-03 Eh
 * total energy  :   -99.0427977 Eh     change       -0.6531566E-03 Eh
 * total energy  :   -99.0463765 Eh     change       -0.1381783E-05 Eh
 * total energy  :   -99.0463773 Eh     change       -0.8606537E-06 Eh
 * total energy  :   -99.0463779 Eh     change       -0.5320536E-06 Eh
 * total energy  :   -99.0463783 Eh     change       -0.4419513E-06 Eh
 * total energy  :   -99.0463789 Eh     change       -0.5704786E-06 Eh
 * total energy  :   -99.0463797 Eh     change       -0.8200885E-06 Eh
 * total energy  :   -99.0463807 Eh     change       -0.9529293E-06 Eh
 * total energy  :   -99.0463815 Eh     change       -0.7984497E-06 Eh
 * total energy  :   -99.0463815 Eh     change       -0.6850982E-08 Eh
   *** GEOMETRY OPTIMIZATION CONVERGED AFTER 68 ITERATIONS ***

 final structure:
================
68
 xtb: 6.7.1 (edcfbbe)
C           -7.04548841873476        0.81730004580426        0.26254368790599
C           -6.30245588034180        0.06803056992824        1.16022645525544
C           -4.92700404596616        0.00786415852990        1.04634758825125
C           -4.27091410480000        0.69727300693535        0.02807102113885
C           -2.80507514961025        0.66012956012848       -0.09243049683270
C           -2.09258587263778       -0.48482591406881        0.01249381653211
C           -2.72033066804890       -1.81483901727325        0.05185627580822
C           -2.26449368406830       -2.77299016152284        0.95547502690215
C           -2.83525473926158       -4.03103656220637        0.99402134722778
C           -3.85959617052961       -4.35733450223769        0.12097711609887
C           -4.30578573658838       -3.41875453454825       -0.79519105118145
C           -3.74185646346063       -2.15807614863416       -0.83183771173027
C           -0.62428666159566       -0.47400817727396        0.08294267158745
C            0.12975284036304       -1.35458171525726       -0.69091214487085
C            1.50779179114673       -1.31290896496810       -0.67312095398993
C            2.17556655627040       -0.40154751071462        0.14528788635687
N            3.57098074981824       -0.32300953367857        0.14161761310973
C            4.19469736763844        0.92361279795505        0.26704972991366
C            5.39251770473950        1.04711619980230        0.97087516295610
C            6.00670938746061        2.27855059827684        1.08968172056065
C            5.43659383697905        3.40564172911594        0.52096794596080
C            4.24398091522284        3.28960452707275       -0.17427276462390
C            3.62701629561703        2.06130834591420       -0.30748908331316
C            4.34030943610944       -1.48117907366695       -0.01481391156149
C            3.94160594468744       -2.67890035963706        0.57852703286003
C            4.70122776464448       -3.82134507319787        0.41941850824178
C            5.87039060808582       -3.78965515930876       -0.32290805217888
C            6.27255637308967       -2.60207952421843       -0.91195972902505
C            5.51523715315754       -1.45633839953423       -0.76607112276611
C            1.42385570330129        0.44076107188471        0.96649339807362
C            0.04796833889322        0.40835951995557        0.92833674929155
C           -2.15917639173561        1.96236938801642       -0.33234210412001
C           -1.17740510088896        2.10827661158972       -1.31111970728610
C           -0.58311806650383        3.33567019475629       -1.53135906074688
C           -0.96054761432741        4.43858179382296       -0.78270637899731
C           -1.94858925133084        4.30884900276594        0.17876503838895
C           -2.54861750891459        3.08302717244622        0.39823870472477
C           -5.02585751492034        1.46415815884371       -0.85766113178814
C           -6.40223177623522        1.51700711844699       -0.74478272773513
H           -8.12104989034413        0.86028590279029        0.35135484105936
H           -6.79808850187869       -0.46968009243307        1.95550763428137
H           -4.35005110695494       -0.56736933343255        1.75556469741965
H           -1.46654665591977       -2.51774780726490        1.63878208117935
H           -2.47916402976320       -4.76079732559068        1.70691451451147
H           -4.30479626837371       -5.34095942578478        0.15045503177506
H           -5.09592924697927       -3.67236347938314       -1.48696030682573
H           -4.08418814512386       -1.43327336710254       -1.55578623497426
H           -0.37562679581282       -2.05538187797429       -1.34022451145185
H            2.07795506367253       -1.97820517675619       -1.30494105236015
H            5.83401981396917        0.17223962566816        1.42544316409692
H            6.93334606111559        2.35952998264667        1.63885941103880
H            5.91767402825301        4.36689005260023        0.61957346024451
H            3.79286936401910        4.16186770655564       -0.62413490221220
H            2.70083932562833        1.97483643165987       -0.85673205650685
H            3.03548158124860       -2.70382773883349        1.16608016404580
H            4.38190641849117       -4.74167663881106        0.88613710256891
H            6.46346940497798       -4.68365594687711       -0.44185723660243
H            7.17941737786963       -2.56894783726106       -1.49787995791100
H            5.82581905130032       -0.53433229169500       -1.23549524263393
H            1.93092658513366        1.12506357554701        1.63074152057567
H           -0.51924492559408        1.06513843324201        1.57093171774349
H           -0.88963945869463        1.25373330969927       -1.90599959564722
H            0.17576839120396        3.43472933303129       -2.29434921999798
H           -0.49165604420064        5.39654852468227       -0.95315065612753
H           -2.25338707061011        5.16719496247349        0.75995608643383
H           -3.31737400079945        2.98287715940016        1.15171305248653
H           -4.52492496566103        2.00938319391218       -1.64542446759495
H           -6.97591130689713        2.10781690523351       -1.44431340300968

          :  Hamiltonian                  GFN2-xTB          :
         :: gradient norm              0.000059283643 Eh/a0 ::
         :: HOMO-LUMO gap              2.255427186536 eV    ::
         :: SCC energy              -100.973342831156 Eh    ::
         :: -> dispersion             -0.095353732091 Eh    ::
         :: repulsion energy           1.926961359487 Eh    ::

    * Orbital Energies and Occupations

         #    Occupation            Energy/Eh            Energy/eV
      -------------------------------------------------------------
         1        2.0000           -0.6632756             -18.0486
       ...           ...                  ...                  ...
        81        2.0000           -0.4085488             -11.1172
        82        2.0000           -0.4065284             -11.0622
        83        2.0000           -0.4063063             -11.0562
        84        2.0000           -0.4052536             -11.0275
        85        2.0000           -0.4047255             -11.0131
        86        2.0000           -0.4038390             -10.9890
        87        2.0000           -0.4028523             -10.9622
        88        2.0000           -0.4004946             -10.8980
        89        2.0000           -0.3994367             -10.8692
        90        2.0000           -0.3973098             -10.8114
        91        2.0000           -0.3956525             -10.7663
        92        2.0000           -0.3654894              -9.9455
        93        2.0000           -0.3448951              -9.3851 (HOMO)
        94                         -0.2620096              -7.1296 (LUMO)
        95                         -0.2290175              -6.2319
        96                         -0.2288422              -6.2271
        97                         -0.2263032              -6.1580
        98                         -0.2230771              -6.0702
        99                         -0.2221225              -6.0443
       100                         -0.2204803              -5.9996
       101                         -0.2200207              -5.9871
       102                         -0.2177256              -5.9246
       103                         -0.2154380              -5.8624
       104                         -0.2096964              -5.7061
       ...                                ...                  ...
       185                          0.6947083              18.9040
      -------------------------------------------------------------
                  HL-Gap            0.0828854 Eh            2.2554 eV

     #   Z          covCN         q      C6AA      α(0)
     1   6 C        2.920    -0.032    28.787     8.798
     2   6 C        2.919    -0.030    28.739     8.791
     3   6 C        2.924    -0.032    28.801     8.801
     4   6 C        2.978     0.015    27.661     8.627
     5   6 C        2.968    -0.008    28.216     8.713
     6   6 C        2.967    -0.006    28.160     8.704
     7   6 C        2.978     0.015    27.665     8.628
     8   6 C        2.925    -0.033    28.811     8.802
     9   6 C        2.918    -0.030    28.751     8.793
    10   6 C        2.920    -0.031    28.783     8.798
    11   6 C        2.919    -0.029    28.736     8.791
    12   6 C        2.924    -0.032    28.795     8.800
    13   6 C        2.979     0.007    27.868     8.659
    14   6 C        2.924    -0.033    28.820     8.804
    15   6 C        2.920    -0.049    29.222     8.865
    16   6 C        2.925     0.063    26.583     8.455
    17   7 N        2.752    -0.075    22.686     7.074
    18   6 C        2.925     0.065    26.543     8.449
    19   6 C        2.922    -0.048    29.188     8.860
    20   6 C        2.920    -0.029    28.736     8.791
    21   6 C        2.919    -0.039    28.962     8.825
    22   6 C        2.920    -0.029    28.727     8.789
    23   6 C        2.922    -0.047    29.176     8.858
    24   6 C        2.924     0.065    26.540     8.448
    25   6 C        2.922    -0.047    29.178     8.858
    26   6 C        2.920    -0.029    28.732     8.790
    27   6 C        2.919    -0.039    28.960     8.825
    28   6 C        2.920    -0.029    28.733     8.790
    29   6 C        2.922    -0.048    29.183     8.859
    30   6 C        2.921    -0.048    29.199     8.861
    31   6 C        2.923    -0.032    28.806     8.802
    32   6 C        2.979     0.016    27.658     8.627
    33   6 C        2.924    -0.032    28.807     8.802
    34   6 C        2.919    -0.030    28.740     8.791
    35   6 C        2.920    -0.031    28.785     8.798
    36   6 C        2.918    -0.030    28.748     8.792
    37   6 C        2.925    -0.032    28.809     8.802
    38   6 C        2.925    -0.033    28.814     8.803
    39   6 C        2.918    -0.030    28.750     8.793
    40   1 H        0.926     0.028     2.608     2.526
    41   1 H        0.926     0.028     2.608     2.525
    42   1 H        0.926     0.028     2.611     2.527
    43   1 H        0.926     0.027     2.624     2.533
    44   1 H        0.926     0.028     2.610     2.526
    45   1 H        0.926     0.029     2.606     2.524
    46   1 H        0.926     0.029     2.605     2.524
    47   1 H        0.926     0.029     2.605     2.524
    48   1 H        0.926     0.030     2.581     2.512
    49   1 H        0.926     0.032     2.564     2.504
    50   1 H        0.926     0.031     2.567     2.505
    51   1 H        0.926     0.031     2.572     2.508
    52   1 H        0.926     0.030     2.590     2.517
    53   1 H        0.926     0.031     2.572     2.508
    54   1 H        0.926     0.032     2.563     2.503
    55   1 H        0.926     0.031     2.567     2.506
    56   1 H        0.926     0.031     2.570     2.507
    57   1 H        0.926     0.030     2.589     2.516
    58   1 H        0.926     0.031     2.571     2.507
    59   1 H        0.926     0.031     2.565     2.505
    60   1 H        0.926     0.032     2.561     2.502
    61   1 H        0.926     0.031     2.571     2.507
    62   1 H        0.926     0.028     2.621     2.532
    63   1 H        0.926     0.027     2.627     2.534
    64   1 H        0.926     0.028     2.610     2.526
    65   1 H        0.926     0.029     2.607     2.525
    66   1 H        0.926     0.028     2.621     2.532
    67   1 H        0.926     0.027     2.623     2.533
    68   1 H        0.926     0.028     2.610     2.526

molecular dipole:
                 x           y           z       tot (Debye)
 q only:        0.107      -0.026       0.009
   full:        0.099      -0.022       0.006       0.258

 projected vibrational frequencies (cm⁻¹)
eigval :       -0.00    -0.00    -0.00     0.00     0.00     0.00
eigval :       12.72    14.35    21.09    36.18    37.45    47.52
eigval :       49.67    53.52    61.09    65.45    67.70    70.42
eigval :       74.31    80.30   109.17   125.78   154.53   183.80
eigval :      185.34   202.79   228.59   235.90   240.66   249.28
eigval :      270.89   299.85   308.08   318.11   357.05   362.41
eigval :      371.59   375.28   376.66   378.54   381.37   390.93
eigval :      398.56   424.33   445.76   470.81   484.40   492.75
eigval :      511.68   553.13   556.90   580.02   585.17   585.81
eigval :      587.71   591.15   593.05   601.06   609.88   617.98
eigval :      641.29   659.32   659.94   668.86   671.65   677.27
eigval :      678.19   690.90   717.88   751.68   756.83   759.43
eigval :      761.45   762.48   813.22   843.29   870.32   874.34
eigval :      875.14   876.81   877.54   878.12   879.23   891.68
eigval :      893.44   900.96   901.89   902.77   910.26   917.26
eigval :      919.32   926.98   927.39   928.70   929.63   929.79
eigval :      929.86   930.22   930.32   931.44   932.11   932.25
eigval :      948.36   980.50   986.74   995.73  1004.87  1015.45
eigval :     1035.39  1083.41  1084.20  1084.55  1084.97  1085.98
eigval :     1121.72  1122.24  1122.78  1124.01  1124.94  1143.24
eigval :     1164.97  1180.65  1180.81  1182.15  1182.19  1182.35
eigval :     1187.38  1195.87  1196.68  1198.82  1199.77  1204.12
eigval :     1216.30  1242.62  1271.37  1278.92  1280.62  1282.20
eigval :     1282.82  1284.69  1294.38  1304.95  1314.90  1317.02
eigval :     1318.25  1321.30  1321.79  1327.36  1327.60  1335.28
eigval :     1412.39  1430.05  1431.33  1432.14  1436.52  1443.52
eigval :     1467.13  1472.28  1474.82  1476.71  1477.07  1487.05
eigval :     1554.65  1576.96  1578.06  1578.63  1579.85  1580.94
eigval :     1584.53  1594.08  1595.06  1595.31  1599.17  1601.58
eigval :     1612.78  3068.53  3068.61  3069.20  3070.17  3072.30
eigval :     3072.86  3074.41  3075.30  3075.78  3076.50  3076.89
eigval :     3078.67  3079.15  3079.37  3081.04  3085.19  3085.54
eigval :     3085.73  3086.42  3086.45  3087.97  3088.99  3089.57
eigval :     3090.92  3092.04  3092.33  3093.32  3096.96  3097.44

   temp. (K)  partition function   enthalpy   heat capacity  entropy
                                   cal/mol     cal/K/mol   cal/K/mol   J/K/mol
 298.15  VIB  0.624E+15            18602.169    116.971    117.295
         ROT  0.417E+08              888.752      2.981     37.849
         INT  0.260E+23            19490.921    119.952    155.144
         TR   0.108E+29             1481.254      4.968     44.493
         TOT                       20972.1749   124.9198   199.6371   835.2818

       T/K    H(0)-H(T)+PV         H(T)/Eh          T*S/Eh         G(T)/Eh
   ------------------------------------------------------------------------
    298.15    0.334213E-01    0.570562E+00    0.948540E-01    0.475708E+00
   ------------------------------------------------------------------------

         :::::::::::::::::::::::::::::::::::::::::::::::::::::
         ::                  THERMODYNAMIC                  ::
         :::::::::::::::::::::::::::::::::::::::::::::::::::::
         :: total free energy         -98.570673631082 Eh   ::
         ::.................................................::
         :: total energy              -99.046381471669 Eh   ::
         :: zero point energy           0.537140598386 Eh   ::
         :: G(RRHO) w/o ZPVE           -0.061432757799 Eh   ::
         :: G(RRHO) contrib.            0.475707840587 Eh   ::
         :::::::::::::::::::::::::::::::::::::::::::::::::::::

           -------------------------------------------------
          | TOTAL ENERGY              -99.046381471669 Eh   |
          | TOTAL ENTHALPY            -98.475819585208 Eh   |
          | TOTAL FREE ENERGY         -98.570673631082 Eh   |
          | GRADIENT NORM               0.000059277000 Eh/α |
          | HOMO-LUMO GAP               2.255427180807 eV   |
           -------------------------------------------------

 * finished run on 2025/07/18 at 15:56:37.883
