   * xtb version 6.7.1 (edcfbbe) compiled by 'albert@albert-system' on 2024-07-22

   ID    Z sym.   atoms
    1    6 C      1, 2, 4-6, 8-20, 22-33
    2   16 S      3
    3   15 P      7, 21
    4    1 H      34-59

          program call               : xtb data2507/gas/dpmt/dpmt_gas_S0_crest.xyz --gfn 2 --ohess vtight --parallel 40 --molden --ceasefiles --namespace data2507/gas/dpmt/dpmt_gas_S0_finalOpt
          :  Hamiltonian                  GFN2-xTB          :
 * total energy  :   -85.7345097 Eh     change       -0.1082086E-08 Eh
 * total energy  :   -85.7345109 Eh     change       -0.1150995E-05 Eh
 * total energy  :   -85.7345120 Eh     change       -0.1106447E-05 Eh
 * total energy  :   -85.7345138 Eh     change       -0.1856375E-05 Eh
 * total energy  :   -85.7345145 Eh     change       -0.6258090E-06 Eh
 * total energy  :   -85.7345150 Eh     change       -0.5059948E-06 Eh
 * total energy  :   -85.7345154 Eh     change       -0.4270438E-06 Eh
 * total energy  :   -85.7345157 Eh     change       -0.2828206E-06 Eh
 * total energy  :   -85.7345160 Eh     change       -0.2823270E-06 Eh
 * total energy  :   -85.7345161 Eh     change       -0.1676271E-06 Eh
 * total energy  :   -85.7345163 Eh     change       -0.1770140E-06 Eh
 * total energy  :   -85.7345165 Eh     change       -0.1717580E-06 Eh
 * total energy  :   -85.7345166 Eh     change       -0.1223886E-06 Eh
 * total energy  :   -85.7345167 Eh     change       -0.9551297E-07 Eh
   *** GEOMETRY OPTIMIZATION CONVERGED AFTER 14 ITERATIONS ***

 final structure:
================
59
 xtb: 6.7.1 (edcfbbe)
C           -2.44018497317993       -1.83890165661336       -2.03710094781177
C           -1.02855485748567       -1.66281132530294       -1.60402504463004
S            0.25793277325950       -2.32011656652018       -2.57604526690555
C            1.49051552022079       -1.72056876543107       -1.48964459668216
C            2.91420805450363       -1.98259615352807       -1.83810288266346
C            0.91670048697516       -1.07364207164310       -0.44033217503496
P            1.53941728386569       -0.22988840653330        1.05172574101596
C            1.35971396364422        1.48789670863547        0.43443542276348
C            0.88125934793059        2.44502105848644        1.32095640162787
C            0.67559286942640        3.74642944400628        0.90074582725329
C            0.94487780747834        4.09848507864625       -0.41045127000626
C            1.42678027282207        3.14962633244990       -1.29778417970738
C            1.63237691358645        1.84811754315196       -0.88056550756396
C            3.35171585360588       -0.47990980588691        0.91944010970819
C            4.27252179399660        0.53099446599701        0.67229178807113
C            5.62828578790348        0.25170928178899        0.68512889134910
C            6.07734090704201       -1.02853021959499        0.96072329985945
C            5.16564876700383       -2.03462943828012        1.24048790840283
C            3.81299772678744       -1.75767711367020        1.23190406657012
C           -0.51684054251222       -1.04171436492074       -0.50691087328041
P           -1.31499766877910       -0.16984167533984        0.87067395275439
C           -2.87208135145201       -1.13071121478679        0.99786964891282
C           -2.72275627168024       -2.48141566466054        1.30673710970661
C           -3.82978230012354       -3.28929569365278        1.47706557572294
C           -5.10199965369762       -2.75222652645937        1.35852368426875
C           -5.25703308226151       -1.40632643265288        1.07368842961563
C           -4.14989285853814       -0.59448110917778        0.89893697816617
C           -1.89654198973757        1.36646010891982        0.06498601519102
C           -1.67514400525873        1.68538043188908       -1.26774892392004
C           -2.08580981295865        2.90954024026200       -1.76496216149795
C           -2.71386252570487        3.82546366040014       -0.93931612219555
C           -2.92635663250408        3.51923133263313        0.39535451174377
C           -2.51114142563110        2.30104445432862        0.89596181940441
H           -2.49220889608735       -1.95043929479655       -3.11843431226274
H           -3.03738872867006       -0.98020827846253       -1.73605950140647
H           -2.87457167531876       -2.72962926692676       -1.57976155579111
H            3.53242818601778       -1.11154778947526       -1.63044420280019
H            3.30930507263298       -2.81724869700347       -1.25754296275628
H            2.99599821154055       -2.23248412169557       -2.89416167721956
H            0.66574555640423        2.15542567051410        2.34061926708634
H            0.29743633593525        4.48485404992537        1.59268209699753
H            0.77646469750754        5.11200991638951       -0.74397805946980
H            1.63764486885097        3.42541485756996       -2.32132585457492
H            2.00137450875589        1.10659016623012       -1.57634507675288
H            3.93085495513471        1.53515902939087        0.46360581302575
H            6.33852068877862        1.04053334093028        0.48147246202796
H            7.13647426826823       -1.24050272084225        0.96854918651035
H            5.51392527875018       -3.03101083854470        1.47264008717041
H            3.09196122439740       -2.53238034414264        1.46104657221482
H           -1.72557613068632       -2.89119629643398        1.40520209467838
H           -3.70375616283382       -4.33765596761295        1.70690987578023
H           -5.96999761650201       -3.38090880932105        1.49255741971564
H           -6.24786921951094       -0.98388990442674        0.98588786301726
H           -4.28269301172682        0.45379672884851        0.67160102483886
H           -1.17533097000191        0.98241227519798       -1.91829823708512
H           -1.91096576557570        3.14968090560517       -2.80391705979065
H           -3.03135354523230        4.78013067432482       -1.33252376371534
H           -3.40803899542897        4.23545550250322        1.04554523423289
H           -2.65464310144593        2.06104156811376        1.94188325812149

          :  Hamiltonian                  GFN2-xTB          :
         :: gradient norm              0.000043431268 Eh/a0 ::
         :: HOMO-LUMO gap              2.871819883193 eV    ::
         :: SCC energy               -87.256666584928 Eh    ::
         :: -> dispersion             -0.096612276014 Eh    ::
         :: repulsion energy           1.522149898068 Eh    ::

    * Orbital Energies and Occupations

         #    Occupation            Energy/Eh            Energy/eV
      -------------------------------------------------------------
         1        2.0000           -0.7275700             -19.7982
       ...           ...                  ...                  ...
        69        2.0000           -0.4119104             -11.2087
        70        2.0000           -0.4105816             -11.1725
        71        2.0000           -0.4091782             -11.1343
        72        2.0000           -0.4064882             -11.0611
        73        2.0000           -0.4060378             -11.0489
        74        2.0000           -0.4043811             -11.0038
        75        2.0000           -0.4021744             -10.9437
        76        2.0000           -0.3999302             -10.8827
        77        2.0000           -0.3971627             -10.8073
        78        2.0000           -0.3920723             -10.6688
        79        2.0000           -0.3788686             -10.3095
        80        2.0000           -0.3740775             -10.1792
        81        2.0000           -0.3559748              -9.6866 (HOMO)
        82                         -0.2504375              -6.8148 (LUMO)
        83                         -0.2401559              -6.5350
        84                         -0.2359210              -6.4197
        85                         -0.2326848              -6.3317
        86                         -0.2289722              -6.2306
        87                         -0.2270944              -6.1796
        88                         -0.2246578              -6.1132
        89                         -0.2233247              -6.0770
        90                         -0.2218980              -6.0382
        91                         -0.2105401              -5.7291
        92                         -0.1976837              -5.3792
       ...                                ...                  ...
       173                          1.1566654              31.4745
      -------------------------------------------------------------
                  HL-Gap            0.1055374 Eh            2.8718 eV

     #   Z          covCN         q      C6AA      α(0)
     1   6 C        3.778    -0.098    22.398     6.743
     2   6 C        2.997     0.026    27.422     8.590
     3  16 S        2.372    -0.084   144.537    20.234
     4   6 C        2.989     0.022    27.517     8.605
     5   6 C        3.782    -0.098    22.381     6.739
     6   6 C        3.212    -0.009    27.588     8.548
     7  15 P        3.820    -0.127   165.987    23.143
     8   6 C        2.919     0.026    27.419     8.587
     9   6 C        3.011    -0.023    28.572     8.768
    10   6 C        2.919    -0.028    28.707     8.786
    11   6 C        2.921    -0.028    28.695     8.784
    12   6 C        2.919    -0.030    28.739     8.791
    13   6 C        2.970    -0.024    28.607     8.773
    14   6 C        2.917     0.020    27.572     8.611
    15   6 C        2.960    -0.030    28.741     8.793
    16   6 C        2.919    -0.030    28.743     8.792
    17   6 C        2.920    -0.030    28.753     8.793
    18   6 C        2.918    -0.030    28.743     8.792
    19   6 C        3.028    -0.026    28.617     8.775
    20   6 C        3.255    -0.011    27.174     8.431
    21  15 P        3.811    -0.109   165.173    23.087
    22   6 C        2.917     0.021    27.547     8.607
    23   6 C        3.030    -0.026    28.613     8.774
    24   6 C        2.918    -0.029    28.735     8.790
    25   6 C        2.920    -0.030    28.761     8.795
    26   6 C        2.920    -0.029    28.730     8.790
    27   6 C        2.958    -0.031    28.769     8.798
    28   6 C        2.918     0.020    27.554     8.608
    29   6 C        2.964    -0.027    28.678     8.784
    30   6 C        2.920    -0.029    28.724     8.789
    31   6 C        2.920    -0.030    28.740     8.791
    32   6 C        2.918    -0.030    28.748     8.792
    33   6 C        3.028    -0.026    28.626     8.776
    34   1 H        0.925     0.051     2.304     2.374
    35   1 H        0.925     0.055     2.254     2.348
    36   1 H        0.924     0.052     2.296     2.369
    37   1 H        0.925     0.052     2.301     2.372
    38   1 H        0.924     0.052     2.297     2.370
    39   1 H        0.925     0.050     2.320     2.382
    40   1 H        0.925     0.047     2.362     2.404
    41   1 H        0.926     0.031     2.578     2.511
    42   1 H        0.926     0.029     2.595     2.519
    43   1 H        0.926     0.029     2.594     2.519
    44   1 H        0.925     0.034     2.528     2.486
    45   1 H        0.926     0.032     2.562     2.503
    46   1 H        0.926     0.029     2.607     2.525
    47   1 H        0.926     0.029     2.594     2.519
    48   1 H        0.926     0.029     2.593     2.518
    49   1 H        0.925     0.038     2.481     2.463
    50   1 H        0.925     0.040     2.455     2.450
    51   1 H        0.926     0.031     2.568     2.506
    52   1 H        0.926     0.030     2.580     2.512
    53   1 H        0.926     0.030     2.585     2.514
    54   1 H        0.926     0.033     2.541     2.493
    55   1 H        0.926     0.033     2.545     2.495
    56   1 H        0.926     0.030     2.587     2.515
    57   1 H        0.926     0.031     2.577     2.510
    58   1 H        0.926     0.031     2.566     2.505
    59   1 H        0.925     0.040     2.451     2.448

molecular dipole:
                 x           y           z       tot (Debye)
 q only:       -0.182       0.148      -0.384
   full:       -0.195       0.332      -0.690       2.009

 projected vibrational frequencies (cm⁻¹)
eigval :       -0.00    -0.00     0.00     0.00     0.00     0.00
eigval :       21.53    23.60    28.73    34.25    42.72    49.58
eigval :       50.85    56.01    63.42    66.48    72.13    81.74
eigval :      105.64   113.81   128.97   133.73   145.36   177.21
eigval :      185.78   189.88   195.40   202.02   216.09   229.28
eigval :      237.00   244.28   259.87   294.51   329.75   353.03
eigval :      361.02   361.90   365.40   368.28   392.63   405.32
eigval :      409.53   420.47   431.21   432.36   457.12   461.16
eigval :      473.86   486.18   491.79   528.65   585.22   585.73
eigval :      586.01   587.01   591.19   654.52   655.68   655.94
eigval :      657.19   680.98   682.71   694.44   695.07   715.18
eigval :      735.25   739.08   742.30   742.94   768.82   850.72
eigval :      872.64   874.50   876.74   878.11   895.82   897.19
eigval :      899.42   901.66   924.48   925.96   927.52   928.51
eigval :      930.83   931.71   932.32   933.37   967.99   968.89
eigval :      969.37   969.90  1023.91  1027.09  1032.29  1054.33
eigval :     1080.63  1081.36  1082.02  1082.39  1109.26  1111.14
eigval :     1115.21  1115.84  1117.87  1117.96  1118.43  1120.18
eigval :     1134.74  1169.45  1180.41  1181.18  1181.34  1182.59
eigval :     1194.11  1197.81  1198.39  1200.44  1269.14  1273.27
eigval :     1273.95  1276.68  1278.12  1316.34  1316.86  1318.54
eigval :     1318.82  1401.83  1404.83  1421.52  1421.70  1424.06
eigval :     1425.54  1451.86  1452.02  1453.57  1453.85  1463.67
eigval :     1467.26  1471.93  1475.23  1530.71  1560.37  1576.04
eigval :     1576.41  1578.75  1580.06  1585.49  1586.45  1588.11
eigval :     1588.55  2982.87  2989.22  3026.97  3028.37  3028.64
eigval :     3030.72  3045.20  3049.12  3049.89  3060.42  3061.51
eigval :     3066.48  3067.88  3069.51  3071.70  3072.00  3073.47
eigval :     3074.25  3077.40  3078.22  3078.83  3081.81  3088.33
eigval :     3088.68  3089.25  3089.97

   temp. (K)  partition function   enthalpy   heat capacity  entropy
                                   cal/mol     cal/K/mol   cal/K/mol   J/K/mol
 298.15  VIB  0.101E+15            18172.578    109.392    114.590
         ROT  0.233E+08              888.752      2.981     36.692
         INT  0.236E+22            19061.331    112.373    151.281
         TR   0.102E+29             1481.254      4.968     44.377
         TOT                       20542.5846   117.3412   195.6583   818.6344

       T/K    H(0)-H(T)+PV         H(T)/Eh          T*S/Eh         G(T)/Eh
   ------------------------------------------------------------------------
    298.15    0.327367E-01    0.487243E+00    0.929636E-01    0.394279E+00
   ------------------------------------------------------------------------

         :::::::::::::::::::::::::::::::::::::::::::::::::::::
         ::                  THERMODYNAMIC                  ::
         :::::::::::::::::::::::::::::::::::::::::::::::::::::
         :: total free energy         -85.340237657432 Eh   ::
         ::.................................................::
         :: total energy              -85.734516686855 Eh   ::
         :: zero point energy           0.454505917346 Eh   ::
         :: G(RRHO) w/o ZPVE           -0.060226887923 Eh   ::
         :: G(RRHO) contrib.            0.394279029424 Eh   ::
         :::::::::::::::::::::::::::::::::::::::::::::::::::::

           -------------------------------------------------
          | TOTAL ENERGY              -85.734516686855 Eh   |
          | TOTAL ENTHALPY            -85.247274077156 Eh   |
          | TOTAL FREE ENERGY         -85.340237657432 Eh   |
          | GRADIENT NORM               0.000043367602 Eh/α |
          | HOMO-LUMO GAP               2.871817997254 eV   |
           -------------------------------------------------

 * finished run on 2025/09/13 at 03:38:53.696
