   * xtb version 6.7.1 (edcfbbe) compiled by 'albert@albert-system' on 2024-07-22

   ID    Z sym.   atoms
    1    6 C      1, 2, 4-6, 8-20, 22-33
    2   16 S      3
    3   15 P      7, 21
    4    1 H      34-59

          program call               : xtb data2507/gas/dpmt/dpmt_gas_T1_crest.xyz --gfn 2 --spinpol --tblite --uhf 2 --ohess vtight --parallel 40 --molden --ceasefiles --namespace data2507/gas/dpmt/dpmt_gas_T1_finalOpt
 * total energy  :   -85.6420748 Eh     change       -0.1574378E-08 Eh
 * total energy  :   -85.6420838 Eh     change       -0.8947682E-05 Eh
 * total energy  :   -85.6420874 Eh     change       -0.3655052E-05 Eh
 * total energy  :   -85.6420887 Eh     change       -0.1217051E-05 Eh
 * total energy  :   -85.6420895 Eh     change       -0.8900463E-06 Eh
 * total energy  :   -85.6420906 Eh     change       -0.1074363E-05 Eh
 * total energy  :   -85.6420915 Eh     change       -0.8388456E-06 Eh
 * total energy  :   -85.6420920 Eh     change       -0.5122285E-06 Eh
 * total energy  :   -85.6420923 Eh     change       -0.3083317E-06 Eh
 * total energy  :   -85.6420926 Eh     change       -0.3004931E-06 Eh
 * total energy  :   -85.6420929 Eh     change       -0.2970568E-06 Eh
 * total energy  :   -85.6420932 Eh     change       -0.2823550E-06 Eh
 * total energy  :   -85.6420933 Eh     change       -0.1691801E-06 Eh
 * total energy  :   -85.6420934 Eh     change       -0.2641461E-07 Eh
   *** GEOMETRY OPTIMIZATION CONVERGED AFTER 14 ITERATIONS ***

 final structure:
================
59
 xtb: 6.7.1 (edcfbbe)
C           -2.69652274423986       -1.86141305812304       -2.28216607824623
C           -1.26964385836461       -1.67618066053862       -1.91834871738427
S            0.00685361540707       -2.21840664762586       -3.01207275984191
C            1.27942595199876       -1.67478350194160       -1.91447401192099
C            2.70754983757149       -1.85815714173763       -2.27436833264936
C            0.71704063897961       -1.12912599328877       -0.79511951834124
P            1.29194331916184       -0.21701744312569        0.63138863346975
C            1.60699339585978        1.49967245369474        0.15564701660581
C            1.56853965565585        2.49432986819739        1.14039794529676
C            1.65590440780596        3.82256535565564        0.78696876792941
C            1.75698221936715        4.18394211198608       -0.55038564271138
C            1.77752653220249        3.20156058512316       -1.53217118522947
C            1.69565389949577        1.86929120298913       -1.19014299104909
C            2.93165884913864       -0.92586932272866        1.02397736950983
C            4.01145619341157       -0.12561009139474        1.39490697129198
C            5.19733907912297       -0.71520414140466        1.78765724678887
C            5.30668001463556       -2.09646492812908        1.84856104455756
C            4.21946663199516       -2.89505148599291        1.51770677232495
C            3.03116837736083       -2.31437537810986        1.12820747500521
C           -0.71126775323688       -1.12990254864204       -0.79732822075234
P           -1.29153947006815       -0.21640677964253        0.62611855911360
C           -2.93197162116680       -0.92533441333142        1.01510747993703
C           -3.03087284104833       -2.31367406066926        1.12256929829661
C           -4.21961719584476       -2.89410577627317        1.51102324553897
C           -5.30801647494704       -2.09539291808554        1.83771653633237
C           -5.19942030448239       -0.71420909913655        1.77355410657415
C           -4.01311899764656       -0.12485038667244        1.38180244758450
C           -1.60676391045485        1.49891683368903        0.14528701205070
C           -1.68904053410988        1.86547613842613       -1.20170336406026
C           -1.77301127943934        3.19677096992368       -1.54704548806788
C           -1.76080144285346        4.18125211222055       -0.56724062276264
C           -1.66582301105678        3.82298441134439        0.77135839148177
C           -1.57644961612639        2.49573278877206        1.12810460111792
H           -3.01528597349552       -2.89157152135775       -2.10818650295872
H           -2.85542178548416       -1.63728347275706       -3.33669891637840
H           -3.31966165494167       -1.20479231649296       -1.67582974111600
H            3.02709313543498       -2.88799671382506       -2.09993431430229
H            2.86906160019675       -1.63342044108432       -3.32837876904303
H            3.32826184996245       -1.20103416721766       -1.66610494538378
H            1.48148686256386        2.20313127238999        2.17891221730967
H            1.63927714959848        4.58609848034280        1.55142094600502
H            1.81653188502613        5.22577900389623       -0.82642358588721
H            1.85488332629805        3.48288557630601       -2.57266324534329
H            1.70386239472058        1.10414792208983       -1.95370361091473
H            3.92327849741358        0.95050590054895        1.33760872898497
H            6.04265959651736       -0.09554737470815        2.05060051526460
H            6.23431862102032       -2.55121199536124        2.16266862477272
H            4.30382578246858       -3.97084199047568        1.57250009882226
H            2.17310169151371       -2.92241389618834        0.87256274623385
H           -2.17188495343299       -2.92179582145381        0.87022022849246
H           -4.30344689256470       -3.96980956645869        1.56827459662858
H           -6.23599983277884       -2.54993516517558        2.15109480456966
H           -6.04567174960784       -0.09441809264557        2.03316919488945
H           -3.92556907794413        0.95117284145242        1.32202857969645
H           -1.69082715415163        1.09879799341113       -1.96374498334099
H           -1.84561072865077        3.47562925668181       -2.58854312802482
H           -1.82221335209231        5.22231461191680       -0.84580521559925
H           -1.65568827867120        4.58816349848913        1.53427352883220
H           -1.49424889870293        2.20706770014853        2.16771249889962

 projected vibrational frequencies (cm⁻¹)
eigval :       -0.00    -0.00     0.00     0.00     0.00     0.00
eigval :       23.73    24.96    28.83    34.23    41.25    42.79
eigval :       46.47    51.09    53.74    54.24    57.59    79.75
eigval :       88.07   108.84   122.53   132.64   140.21   164.92
eigval :      165.57   173.27   180.99   188.48   210.39   217.82
eigval :      223.25   236.78   243.55   267.26   284.22   299.54
eigval :      358.64   358.81   361.66   365.21   370.08   391.27
eigval :      397.68   403.71   407.99   423.93   429.86   436.72
eigval :      441.09   461.57   462.79   515.23   537.05   581.25
eigval :      581.57   582.51   584.02   632.20   636.10   637.65
eigval :      641.01   669.95   670.35   687.55   689.67   696.34
eigval :      719.68   726.99   731.14   732.53   747.64   848.89
eigval :      857.73   862.91   864.89   865.50   872.13   876.42
eigval :      887.81   887.97   915.11   916.33   916.77   919.29
eigval :      919.81   920.95   924.92   925.04   962.56   962.67
eigval :      963.20   964.27  1026.09  1026.59  1028.65  1043.88
eigval :     1056.50  1062.67  1068.81  1072.23  1073.85  1074.24
eigval :     1081.02  1085.58  1113.26  1114.03  1114.32  1115.75
eigval :     1137.11  1155.98  1176.36  1178.33  1178.46  1179.23
eigval :     1189.44  1189.99  1192.32  1196.23  1266.20  1266.62
eigval :     1269.10  1269.91  1287.46  1323.08  1323.32  1325.75
eigval :     1327.45  1399.55  1400.25  1414.41  1417.10  1418.28
eigval :     1418.42  1430.13  1430.22  1432.41  1433.23  1458.05
eigval :     1459.67  1469.53  1471.93  1500.01  1515.03  1516.98
eigval :     1527.14  1544.90  1546.04  1550.82  1553.24  1558.47
eigval :     1574.50  2963.30  2963.73  3006.99  3008.38  3012.58
eigval :     3012.65  3050.52  3050.78  3051.05  3053.53  3065.41
eigval :     3065.53  3065.86  3067.01  3072.66  3074.31  3074.33
eigval :     3074.63  3076.41  3078.65  3078.73  3079.25  3091.50
eigval :     3091.63  3091.94  3094.20

   temp. (K)  partition function   enthalpy   heat capacity  entropy
                                   cal/mol     cal/K/mol   cal/K/mol   J/K/mol
 298.15  VIB  0.601E+15            18781.018    110.735    118.925
         ROT  0.238E+08              888.752      2.981     36.733
         INT  0.143E+23            19669.770    113.716    155.658
         TR   0.102E+29             1481.254      4.968     44.377
         TOT                       21151.0240   118.6845   200.0352   836.9471

       T/K    H(0)-H(T)+PV         H(T)/Eh          T*S/Eh         G(T)/Eh
   ------------------------------------------------------------------------
    298.15    0.337063E-01    0.483734E+00    0.950432E-01    0.388691E+00
   ------------------------------------------------------------------------

         :::::::::::::::::::::::::::::::::::::::::::::::::::::
         ::                  THERMODYNAMIC                  ::
         :::::::::::::::::::::::::::::::::::::::::::::::::::::
         :: total free energy         -85.253402706802 Eh   ::
         ::.................................................::
         :: total energy              -85.642093375069 Eh   ::
         :: zero point energy           0.450027522247 Eh   ::
         :: G(RRHO) w/o ZPVE           -0.061336853980 Eh   ::
         :: G(RRHO) contrib.            0.388690668267 Eh   ::
         :::::::::::::::::::::::::::::::::::::::::::::::::::::

           -------------------------------------------------
          | TOTAL ENERGY              -85.642093375069 Eh   |
          | TOTAL ENTHALPY            -85.158359550525 Eh   |
          | TOTAL FREE ENERGY         -85.253402706802 Eh   |
          | GRADIENT NORM               0.000043504142 Eh/α |
           -------------------------------------------------

 * finished run on 2025/09/13 at 03:41:19.316
