   * xtb version 6.7.1 (edcfbbe) compiled by 'albert@albert-system' on 2024-07-22

   ID    Z sym.   atoms
    1    6 C      1, 2, 4-6, 8-20, 22-33
    2   16 S      3
    3   15 P      7, 21
    4    1 H      34-59

          program call               : xtb data2507/gas/dpmt/dpmt.xyz --gfn 2 --ohess vtight --parallel 40 --molden --ceasefiles --namespace data2507/gas/dpmt/dpmt_gas_S0_preOpt
          :  Hamiltonian                  GFN2-xTB          :
 * total energy  :   -85.7083686 Eh     change       -0.2978169E-09 Eh
 * total energy  :   -85.7203090 Eh     change       -0.1194041E-01 Eh
 * total energy  :   -85.7246487 Eh     change       -0.4339699E-02 Eh
 * total energy  :   -85.7267422 Eh     change       -0.2093463E-02 Eh
 * total energy  :   -85.7279701 Eh     change       -0.1227951E-02 Eh
 * total energy  :   -85.7284975 Eh     change       -0.5273280E-03 Eh
 * total energy  :   -85.7287842 Eh     change       -0.2867740E-03 Eh
 * total energy  :   -85.7289692 Eh     change       -0.1849246E-03 Eh
 * total energy  :   -85.7290506 Eh     change       -0.8146170E-04 Eh
 * total energy  :   -85.7290851 Eh     change       -0.3446662E-04 Eh
 * total energy  :   -85.7312147 Eh     change       -0.2560901E-06 Eh
 * total energy  :   -85.7312153 Eh     change       -0.5744790E-06 Eh
 * total energy  :   -85.7312160 Eh     change       -0.7031041E-06 Eh
 * total energy  :   -85.7312166 Eh     change       -0.6763802E-06 Eh
 * total energy  :   -85.7312174 Eh     change       -0.7207529E-06 Eh
 * total energy  :   -85.7312180 Eh     change       -0.6803960E-06 Eh
 * total energy  :   -85.7312183 Eh     change       -0.2682667E-06 Eh
 * total energy  :   -85.7312184 Eh     change       -0.1309885E-06 Eh
 * total energy  :   -85.7312185 Eh     change       -0.9684555E-07 Eh
   *** GEOMETRY OPTIMIZATION CONVERGED AFTER 76 ITERATIONS ***

 final structure:
================
59
 xtb: 6.7.1 (edcfbbe)
C           -2.56590975189289       -0.78882101759923       -2.78288350157705
C           -1.20680538704193       -0.37874613434989       -2.33748464619078
S            0.00002202355230       -0.00096225393310       -3.54468792191207
C            1.20672336053097        0.37707946496483       -2.33745364664222
C            2.56589632638834        0.78702149283709       -2.78274492388087
C            0.68602385723167        0.21137238973319       -1.09397990338981
P            1.28563780941762        0.48630663039170        0.60093283790464
C            2.78218350354904        1.50012871097354        0.27449803905590
C            4.09671725885792        1.05811151125017        0.35428808803168
C            5.13791324679986        1.93659473609700        0.11016874998523
C            4.87954680787409        3.25917637521479       -0.20841869595812
C            3.57084754830414        3.71027938932953       -0.27539364930108
C            2.53010029418925        2.83685568644679       -0.02571300876793
C            2.01540299103489       -1.14089693287059        0.98623995913641
C            1.86727180031799       -2.26249755788728        0.18048189679816
C            2.38931961071758       -3.47919710800217        0.58388635525321
C            3.05568902160843       -3.58766508009021        1.79242971333364
C            3.19394724983908       -2.47525681842531        2.60777813644921
C            2.66875977561007       -1.26077507484830        2.21078678141668
C           -0.68623975337015       -0.21273718693984       -1.09399397932799
P           -1.28589275040743       -0.48729786207215        0.60097146166567
C           -2.78326561205605       -1.49998149724727        0.27476415773463
C           -2.53234950203100       -2.83702600680633       -0.02499977015874
C           -3.57385558109654       -3.70960176796367       -0.27449387495498
C           -4.88215696611670       -3.25730682683053       -0.20779158979425
C           -5.13937253839354       -1.93439164901905        0.11034437721551
C           -4.09741404847423       -1.05676476743683        0.35428624714769
C           -2.01448475304508        1.14042819307324        0.98634437808458
C           -1.86588855353692        2.26186961256043        0.18045002408580
C           -2.38697158424117        3.47895175352634        0.58394869508622
C           -3.05283815649956        3.58795878788027        1.79272119239318
C           -3.19158525745405        2.47569460495595        2.60818421806050
C           -2.66736359736680        1.26082781291543        2.21109126089495
H           -2.71198878805746       -1.86128031183602       -2.64657995939547
H           -2.69946271412798       -0.55341728674928       -3.83653323422191
H           -3.32850093043499       -0.27151926238385       -2.20351750492229
H            2.71186122562138        1.85956293203841       -2.64695607388872
H            3.32837412038575        0.27006568675433       -2.20292123197994
H            2.69972302016800        0.55109114104305       -3.83624244315419
H            4.30824122072806        0.02644587254928        0.59829896419679
H            6.15839718464723        1.58537682426931        0.16800042260372
H            5.69688506775170        3.93923904839274       -0.39881244984792
H            3.36576193116988        4.74378377274587       -0.51573526630268
H            1.50332481446761        3.17980860566488       -0.06352552231489
H            1.34859507587033       -2.18576849222250       -0.76488036970052
H            2.27508895625139       -4.34753869772378       -0.04952762180366
H            3.46275937158884       -4.53913990855006        2.10219505287287
H            3.70610180542809       -2.55904333113669        3.55559737624760
H            2.76119207898665       -0.38876461886323        2.84567181242076
H           -1.50587539272956       -3.18089488674434       -0.06265684488658
H           -3.36967325935854       -4.74336817513030       -0.51447829460434
H           -5.70008766976532       -3.93670934040508       -0.39799658384620
H           -6.15954769250910       -1.58225081062506        0.16800230773912
H           -4.30803537018774       -0.02483108715611        0.59794466834278
H           -1.34755103835620        2.18473871976399       -0.76506676666287
H           -2.27231003625042        4.34718571062298       -0.04953370154862
H           -3.45915559458977        4.53973078945545        2.10256092384811
H           -3.70345233783862        2.55986941544795        3.55612328483146
H           -2.76027674166370        0.38889808097012        2.84601259810038

          :  Hamiltonian                  GFN2-xTB          :
         :: gradient norm              0.000029896358 Eh/a0 ::
         :: HOMO-LUMO gap              2.955233106389 eV    ::
         :: SCC energy               -87.253353196972 Eh    ::
         :: -> dispersion             -0.090472795041 Eh    ::
         :: repulsion energy           1.522134660543 Eh    ::

    * Orbital Energies and Occupations

         #    Occupation            Energy/Eh            Energy/eV
      -------------------------------------------------------------
         1        2.0000           -0.7269950             -19.7825
       ...           ...                  ...                  ...
        69        2.0000           -0.4123196             -11.2198
        70        2.0000           -0.4075711             -11.0906
        71        2.0000           -0.4073441             -11.0844
        72        2.0000           -0.4064642             -11.0605
        73        2.0000           -0.4060252             -11.0485
        74        2.0000           -0.4047203             -11.0130
        75        2.0000           -0.4044882             -11.0067
        76        2.0000           -0.4002251             -10.8907
        77        2.0000           -0.3987233             -10.8498
        78        2.0000           -0.3902937             -10.6204
        79        2.0000           -0.3824571             -10.4072
        80        2.0000           -0.3708884             -10.0924
        81        2.0000           -0.3561860              -9.6923 (HOMO)
        82                         -0.2475833              -6.7371 (LUMO)
        83                         -0.2383542              -6.4859
        84                         -0.2351752              -6.3994
        85                         -0.2323830              -6.3235
        86                         -0.2298264              -6.2539
        87                         -0.2264704              -6.1626
        88                         -0.2238068              -6.0901
        89                         -0.2234424              -6.0802
        90                         -0.2227688              -6.0618
        91                         -0.2092863              -5.6950
        92                         -0.2043118              -5.5596
       ...                                ...                  ...
       173                          1.2287775              33.4367
      -------------------------------------------------------------
                  HL-Gap            0.1086027 Eh            2.9552 eV

     #   Z          covCN         q      C6AA      α(0)
     1   6 C        3.778    -0.098    22.396     6.742
     2   6 C        2.988     0.023    27.478     8.599
     3  16 S        2.374    -0.087   144.668    20.244
     4   6 C        2.988     0.023    27.478     8.599
     5   6 C        3.778    -0.098    22.396     6.742
     6   6 C        3.263    -0.009    27.012     8.392
     7  15 P        3.991    -0.126   165.947    23.141
     8   6 C        2.917     0.021    27.537     8.605
     9   6 C        2.954    -0.029    28.720     8.790
    10   6 C        2.920    -0.029    28.731     8.790
    11   6 C        2.920    -0.030    28.744     8.792
    12   6 C        2.918    -0.030    28.741     8.791
    13   6 C        3.038    -0.025    28.599     8.772
    14   6 C        2.918     0.029    27.365     8.578
    15   6 C        2.969    -0.023    28.583     8.770
    16   6 C        2.919    -0.029    28.718     8.788
    17   6 C        2.920    -0.029    28.720     8.788
    18   6 C        2.918    -0.029    28.720     8.788
    19   6 C        3.024    -0.024    28.576     8.769
    20   6 C        3.263    -0.009    27.013     8.392
    21  15 P        3.991    -0.126   165.947    23.141
    22   6 C        2.917     0.021    27.537     8.605
    23   6 C        3.038    -0.025    28.599     8.772
    24   6 C        2.918    -0.030    28.741     8.791
    25   6 C        2.920    -0.030    28.744     8.792
    26   6 C        2.920    -0.029    28.731     8.790
    27   6 C        2.954    -0.029    28.720     8.790
    28   6 C        2.918     0.029    27.365     8.578
    29   6 C        2.969    -0.023    28.583     8.770
    30   6 C        2.919    -0.029    28.718     8.788
    31   6 C        2.920    -0.029    28.720     8.788
    32   6 C        2.918    -0.029    28.720     8.788
    33   6 C        3.024    -0.024    28.576     8.769
    34   1 H        0.924     0.051     2.303     2.373
    35   1 H        0.925     0.051     2.305     2.374
    36   1 H        0.925     0.053     2.285     2.364
    37   1 H        0.924     0.051     2.303     2.373
    38   1 H        0.925     0.053     2.285     2.364
    39   1 H        0.925     0.051     2.305     2.374
    40   1 H        0.926     0.032     2.551     2.498
    41   1 H        0.926     0.030     2.590     2.517
    42   1 H        0.926     0.030     2.583     2.513
    43   1 H        0.926     0.030     2.586     2.514
    44   1 H        0.925     0.038     2.474     2.460
    45   1 H        0.926     0.034     2.524     2.484
    46   1 H        0.926     0.030     2.590     2.517
    47   1 H        0.926     0.030     2.581     2.512
    48   1 H        0.926     0.031     2.571     2.508
    49   1 H        0.925     0.038     2.471     2.458
    50   1 H        0.925     0.038     2.474     2.460
    51   1 H        0.926     0.030     2.586     2.514
    52   1 H        0.926     0.030     2.583     2.513
    53   1 H        0.926     0.030     2.590     2.517
    54   1 H        0.926     0.032     2.552     2.498
    55   1 H        0.926     0.034     2.524     2.484
    56   1 H        0.926     0.030     2.590     2.517
    57   1 H        0.926     0.030     2.581     2.512
    58   1 H        0.926     0.031     2.571     2.508
    59   1 H        0.925     0.038     2.471     2.458

molecular dipole:
                 x           y           z       tot (Debye)
 q only:        0.000       0.000      -0.220
   full:        0.000       0.000      -0.326       0.828

 projected vibrational frequencies (cm⁻¹)
eigval :       -0.00    -0.00    -0.00    -0.00     0.00     0.00
eigval :        7.72    14.65    21.82    25.24    26.69    37.03
eigval :       38.67    53.02    53.97    59.23    59.43    65.09
eigval :      102.96   111.30   118.80   122.03   138.34   180.66
eigval :      184.11   191.56   192.52   200.03   221.02   227.93
eigval :      240.05   241.36   263.41   269.48   332.10   351.78
eigval :      360.02   360.58   363.99   364.56   383.55   404.51
eigval :      409.40   425.41   434.43   436.87   462.81   464.41
eigval :      473.71   484.79   489.79   528.00   585.25   585.65
eigval :      586.18   586.61   594.75   655.23   655.47   656.11
eigval :      657.04   681.05   681.45   695.11   696.42   712.21
eigval :      738.40   738.41   738.52   741.27   767.84   846.23
eigval :      872.32   872.95   876.56   877.38   895.39   896.41
eigval :      899.11   900.01   925.04   925.55   927.67   928.30
eigval :      931.90   932.04   932.96   933.01   968.59   968.78
eigval :      969.74   969.86  1022.67  1027.29  1033.57  1055.63
eigval :     1081.05  1081.25  1081.54  1081.61  1110.71  1111.59
eigval :     1116.98  1117.03  1117.46  1117.57  1118.74  1119.03
eigval :     1136.78  1170.60  1181.24  1181.24  1181.42  1181.45
eigval :     1196.39  1196.99  1198.23  1199.55  1267.09  1273.77
eigval :     1273.89  1276.96  1277.32  1316.20  1316.24  1317.95
eigval :     1318.01  1402.73  1402.82  1420.96  1421.08  1423.87
eigval :     1424.08  1452.41  1452.77  1453.49  1453.74  1466.06
eigval :     1466.16  1473.33  1473.77  1540.67  1567.29  1576.61
eigval :     1576.80  1578.15  1578.16  1585.70  1585.73  1587.05
eigval :     1587.34  2989.00  2989.11  3024.52  3024.52  3034.59
eigval :     3035.77  3042.15  3042.24  3050.45  3050.51  3065.51
eigval :     3065.68  3066.66  3066.72  3072.12  3072.19  3072.54
eigval :     3072.65  3077.40  3077.56  3077.66  3077.70  3088.11
eigval :     3088.13  3088.41  3088.96

   temp. (K)  partition function   enthalpy   heat capacity  entropy
                                   cal/mol     cal/K/mol   cal/K/mol   J/K/mol
 298.15  VIB  0.453E+16            18398.751    107.871    117.697
         ROT  0.123E+08              888.752      2.981     35.418
         INT  0.556E+23            19287.503    110.852    153.115
         TR   0.102E+29             1481.254      4.968     44.377
         TOT                       20768.7574   115.8197   197.4923   826.3077

       T/K    H(0)-H(T)+PV         H(T)/Eh          T*S/Eh         G(T)/Eh
   ------------------------------------------------------------------------
    298.15    0.330971E-01    0.487155E+00    0.938349E-01    0.393320E+00
   ------------------------------------------------------------------------

         :::::::::::::::::::::::::::::::::::::::::::::::::::::
         ::                  THERMODYNAMIC                  ::
         :::::::::::::::::::::::::::::::::::::::::::::::::::::
         :: total free energy         -85.337898668217 Eh   ::
         ::.................................................::
         :: total energy              -85.731218536431 Eh   ::
         :: zero point energy           0.454057696026 Eh   ::
         :: G(RRHO) w/o ZPVE           -0.060737827813 Eh   ::
         :: G(RRHO) contrib.            0.393319868214 Eh   ::
         :::::::::::::::::::::::::::::::::::::::::::::::::::::

           -------------------------------------------------
          | TOTAL ENERGY              -85.731218536431 Eh   |
          | TOTAL ENTHALPY            -85.244063718813 Eh   |
          | TOTAL FREE ENERGY         -85.337898668217 Eh   |
          | GRADIENT NORM               0.000029896400 Eh/α |
          | HOMO-LUMO GAP               2.955230013046 eV   |
           -------------------------------------------------

 * finished run on 2025/09/13 at 03:36:47.190
