   * xtb version 6.7.1 (edcfbbe) compiled by 'albert@albert-system' on 2024-07-22

   ID    Z sym.   atoms
    1    6 C      1, 2, 4-6, 8-20, 22-33
    2   16 S      3
    3   15 P      7, 21
    4    1 H      34-59

          program call               : xtb data2507/gas/dpmt/dpmt_gas_S0_finalOpt.xtbopt.xyz --gfn 2 --spinpol --tblite --uhf 2 --ohess vtight --parallel 40 --molden --ceasefiles --namespace data2507/gas/dpmt/dpmt_gas_T1_preOpt
 * total energy  :   -85.6251678 Eh     change       -0.1873275E-09 Eh
 * total energy  :   -85.6327107 Eh     change       -0.7542889E-02 Eh
 * total energy  :   -85.6347507 Eh     change       -0.2040088E-02 Eh
 * total energy  :   -85.6353470 Eh     change       -0.5962600E-03 Eh
 * total energy  :   -85.6362302 Eh     change       -0.8831972E-03 Eh
 * total energy  :   -85.6368256 Eh     change       -0.5953526E-03 Eh
 * total energy  :   -85.6373029 Eh     change       -0.4773320E-03 Eh
 * total energy  :   -85.6376792 Eh     change       -0.3763390E-03 Eh
 * total energy  :   -85.6380271 Eh     change       -0.3479019E-03 Eh
 * total energy  :   -85.6383955 Eh     change       -0.3683237E-03 Eh
 * total energy  :   -85.6420926 Eh     change       -0.2088608E-06 Eh
 * total energy  :   -85.6420929 Eh     change       -0.2835233E-06 Eh
 * total energy  :   -85.6420929 Eh     change        0.5271676E-07 Eh
 * total energy  :   -85.6420931 Eh     change       -0.1717576E-06 Eh
 * total energy  :   -85.6420931 Eh     change        0.1058751E-08 Eh
 * total energy  :   -85.6420932 Eh     change       -0.1210011E-06 Eh
 * total energy  :   -85.6420933 Eh     change       -0.1443875E-06 Eh
 * total energy  :   -85.6420935 Eh     change       -0.1806156E-06 Eh
 * total energy  :   -85.6420936 Eh     change       -0.6375772E-07 Eh
   *** GEOMETRY OPTIMIZATION CONVERGED AFTER 52 ITERATIONS ***

 final structure:
================
59
 xtb: 6.7.1 (edcfbbe)
C           -2.37537516412516       -2.31828001226029       -2.30949820939993
C           -0.99614168651624       -1.91498787804537       -1.93833071858931
S            0.36255045318759       -2.30683411397357       -2.99667022044427
C            1.52549250743474       -1.54319684991960       -1.90841666363595
C            2.97057587295246       -1.53000300069071       -2.24647544089666
C            0.87240364999543       -1.04343719414880       -0.81720507608156
P            1.28618721251035       -0.00381037503253        0.57758188876495
C            1.35688903137235        1.72088196828240        0.03605459152963
C            1.15861038586390        2.73688748639171        0.97888520129239
C            1.05927429294197        4.04904494114672        0.57250588968889
C            1.12966277165013        4.36911630845560       -0.77727000397033
C            1.30818237449424        3.36274928573718       -1.71785300857317
C            1.41372269218393        2.04695478475634       -1.32263083008122
C            3.00478065492564       -0.45048727383076        1.01558992382965
C            3.94924625595326        0.51232635005245        1.36912153776089
C            5.20161297466492        0.11764568080754        1.79804135228072
C            5.51091109616381       -1.22952009917489        1.91195891501862
C            4.55819905068843       -2.19034545944188        1.59829525569199
C            3.30458589850560       -1.80472442563961        1.17318147071445
C           -0.54053212082776       -1.25177723838923       -0.83399513593284
P           -1.26933942742030       -0.38048943728855        0.54690046118685
C           -2.79546836244053       -1.30579043935303        0.94652929163513
C           -2.69421349948909       -2.68916968667199        1.10396827771048
C           -3.79227052814936       -3.42194106783450        1.50176571702475
C           -4.98946551970193       -2.77857955961531        1.78829333443955
C           -5.08068442237471       -1.39933697611247        1.67467943675026
C           -3.98633359811699       -0.65823297924768        1.27303285610075
C           -1.82210774249217        1.25212195717947       -0.00256576572038
C           -1.93348353900334        1.55429975437193       -1.36337870910902
C           -2.20275939000306        2.84612527317534       -1.75999621240934
C           -2.34944044286097        3.85654777395572       -0.81824647906760
C           -2.22663783818600        3.56411408156722        0.53402695406589
C           -1.95269695289789        2.27749768982699        0.94193663227165
H           -2.54748579260075       -2.16028872270638       -3.37389631721709
H           -3.09637271959428       -1.73556712771047       -1.73700377764147
H           -2.54553221927965       -3.37617470263308       -2.09727308356004
H            3.47998904245938       -0.76814394883406       -1.65723771929253
H            3.43316202206297       -2.49554000039925       -2.02996370770400
H            3.11426682323584       -1.32222067030327       -3.30653958029431
H            1.09707694793985        2.47667618112372        2.02738193986336
H            0.91991080257996        4.83119092385544        1.30491612530507
H            1.04302254767343        5.39710499909186       -1.09492314438930
H            1.36150395832336        3.61168168158289       -2.76804221410252
H            1.54499630917967        1.26208374483863       -2.05422041716277
H            3.70554549877218        1.56110603084974        1.27033361148883
H            5.94241606077176        0.86368147705922        2.04770858909203
H            6.48957052164887       -1.53165495330622        2.25392543895166
H            4.79818057226921       -3.23945194224318        1.69433971153253
H            2.54929458250056       -2.54090923166379        0.93043203524024
H           -1.75266119198316       -3.17475681798519        0.88254389102906
H           -3.72058602804139       -4.49578878412125        1.59751901871242
H           -5.84658296664756       -3.35168147304206        2.10903516723154
H           -6.01137392479189       -0.90011225978064        1.90328463144121
H           -4.05440058380829        0.41635126925196        1.17458123148119
H           -1.81158515012470        0.76858919743854       -2.09570221096558
H           -2.29695105566830        3.07399157197548       -2.81211194167585
H           -2.55550749311932        4.86708591934687       -1.13687434870805
H           -2.33993885813762        4.34960387972365        1.26738269607691
H           -1.84721515989909        2.04129761007088        1.99263721068461

 projected vibrational frequencies (cm⁻¹)
eigval :       -0.00    -0.00    -0.00     0.00     0.00     0.00
eigval :       23.74    24.92    28.40    34.58    41.10    42.41
eigval :       46.33    51.28    53.97    54.51    57.58    79.68
eigval :       87.34   108.59   122.26   132.52   140.32   164.29
eigval :      165.53   173.28   181.00   188.46   210.50   217.89
eigval :      223.30   236.82   243.48   267.38   283.63   300.03
eigval :      358.59   358.79   361.60   365.03   369.95   391.33
eigval :      398.12   404.05   407.79   423.80   429.84   436.64
eigval :      441.12   461.57   462.80   515.02   536.99   581.29
eigval :      581.61   582.52   584.02   632.29   635.91   637.66
eigval :      641.02   669.98   670.33   687.66   689.62   696.74
eigval :      720.00   726.60   730.89   732.86   748.00   849.01
eigval :      857.52   862.71   864.78   865.40   871.92   876.28
eigval :      887.71   887.91   914.91   916.14   916.63   919.17
eigval :      919.74   920.82   924.84   924.96   962.54   962.58
eigval :      963.16   964.25  1025.85  1026.91  1028.66  1044.05
eigval :     1056.38  1062.58  1068.76  1072.12  1073.92  1074.23
eigval :     1080.59  1085.80  1113.24  1114.01  1114.32  1115.73
eigval :     1137.11  1155.96  1176.43  1178.42  1178.55  1179.30
eigval :     1189.51  1190.06  1192.37  1196.30  1266.25  1266.68
eigval :     1269.16  1269.95  1287.51  1323.13  1323.36  1325.75
eigval :     1327.47  1399.57  1400.29  1414.60  1417.17  1418.36
eigval :     1418.50  1430.15  1430.47  1432.81  1433.43  1457.89
eigval :     1459.74  1469.71  1471.79  1499.69  1514.81  1517.01
eigval :     1527.16  1544.83  1545.99  1550.95  1553.52  1558.33
eigval :     1574.52  2963.15  2963.60  3006.85  3008.37  3012.50
eigval :     3012.55  3050.69  3050.96  3051.20  3053.64  3065.50
eigval :     3065.70  3066.13  3067.26  3072.86  3074.39  3074.45
eigval :     3074.78  3076.69  3078.74  3078.92  3079.52  3091.61
eigval :     3091.97  3092.12  3094.33

   temp. (K)  partition function   enthalpy   heat capacity  entropy
                                   cal/mol     cal/K/mol   cal/K/mol   J/K/mol
 298.15  VIB  0.615E+15            18783.468    110.733    118.957
         ROT  0.238E+08              888.752      2.981     36.733
         INT  0.146E+23            19672.220    113.714    155.690
         TR   0.102E+29             1481.254      4.968     44.377
         TOT                       21153.4738   118.6820   200.0670   837.0802

       T/K    H(0)-H(T)+PV         H(T)/Eh          T*S/Eh         G(T)/Eh
   ------------------------------------------------------------------------
    298.15    0.337102E-01    0.483740E+00    0.950583E-01    0.388682E+00
   ------------------------------------------------------------------------

         :::::::::::::::::::::::::::::::::::::::::::::::::::::
         ::                  THERMODYNAMIC                  ::
         :::::::::::::::::::::::::::::::::::::::::::::::::::::
         :: total free energy         -85.253411762546 Eh   ::
         ::.................................................::
         :: total energy              -85.642093591664 Eh   ::
         :: zero point energy           0.450029899314 Eh   ::
         :: G(RRHO) w/o ZPVE           -0.061348070196 Eh   ::
         :: G(RRHO) contrib.            0.388681829117 Eh   ::
         :::::::::::::::::::::::::::::::::::::::::::::::::::::

           -------------------------------------------------
          | TOTAL ENERGY              -85.642093591664 Eh   |
          | TOTAL ENTHALPY            -85.158353486032 Eh   |
          | TOTAL FREE ENERGY         -85.253411762546 Eh   |
          | GRADIENT NORM               0.000074828494 Eh/α |
           -------------------------------------------------

 * finished run on 2025/09/13 at 03:39:00.949
