   * xtb version 6.7.1 (edcfbbe) compiled by 'albert@albert-system' on 2024-07-22

   ID    Z sym.   atoms
    1    8 O      1, 22
    2    6 C      2-21, 23-30
    3    1 H      31-52

          program call               : xtb data2507/gas/m-DHMPA/m-DHMPA_gas_S0_finalOpt.xtbopt.xyz --gfn 2 --spinpol --tblite --uhf 2 --ohess vtight --parallel 40 --molden --ceasefiles --namespace data2507/gas/m-DHMPA/m-DHMPA_gas_T1_preOpt
 * total energy  :   -79.2172569 Eh     change       -0.1314025E-07 Eh
 * total energy  :   -79.2238378 Eh     change       -0.6580906E-02 Eh
 * total energy  :   -79.2252999 Eh     change       -0.1462118E-02 Eh
 * total energy  :   -79.2254130 Eh     change       -0.1130381E-03 Eh
 * total energy  :   -79.2255122 Eh     change       -0.9925818E-04 Eh
 * total energy  :   -79.2255715 Eh     change       -0.5931890E-04 Eh
 * total energy  :   -79.2256490 Eh     change       -0.7743415E-04 Eh
 * total energy  :   -79.2257582 Eh     change       -0.1091999E-03 Eh
 * total energy  :   -79.2258766 Eh     change       -0.1183917E-03 Eh
 * total energy  :   -79.2259704 Eh     change       -0.9382163E-04 Eh
 * total energy  :   -79.2263100 Eh     change       -0.1101781E-05 Eh
 * total energy  :   -79.2263109 Eh     change       -0.9700966E-06 Eh
 * total energy  :   -79.2263117 Eh     change       -0.8047733E-06 Eh
 * total energy  :   -79.2263124 Eh     change       -0.6646555E-06 Eh
 * total energy  :   -79.2263129 Eh     change       -0.5120528E-06 Eh
 * total energy  :   -79.2263133 Eh     change       -0.3536423E-06 Eh
 * total energy  :   -79.2263135 Eh     change       -0.2240607E-06 Eh
 * total energy  :   -79.2263136 Eh     change       -0.1230247E-06 Eh
 * total energy  :   -79.2263137 Eh     change       -0.7685489E-07 Eh
   *** GEOMETRY OPTIMIZATION CONVERGED AFTER 36 ITERATIONS ***

 final structure:
================
52
 xtb: 6.7.1 (edcfbbe)
O            7.34254029201499        0.24586489502481       -1.20463821697372
C            6.09004879929174        0.88562534232095       -1.15646002643449
C            5.11736118073159        0.25634452405272       -0.18819247083020
C            5.58250100912452       -0.41677889442395        0.93499323513131
C            4.68587099086375       -0.99112542346462        1.82027415079518
C            3.32641616216298       -0.89981851671204        1.59506214047855
C            2.83853385940912       -0.21939174745490        0.47684074323494
C            1.39869683536608       -0.10866518047801        0.23515224631239
C            0.61210733371873       -1.29249550322922        0.07550086204204
C            1.19458995921820       -2.56116830360009        0.06798887317051
C            0.43157081198268       -3.71346439441595       -0.12375484777868
C           -0.92120970904587       -3.60831416897499       -0.35045441688318
C           -1.52303826879803       -2.35003035615504       -0.38739545284567
C           -0.79067467614551       -1.18358815616455       -0.15963220811713
C           -1.39879967265355        0.10897731214244       -0.23370714315801
C           -2.83852417199985        0.21978685938397       -0.47600105647261
C           -3.32575876194953        0.90032161110919       -1.59444595863056
C           -4.68507362585723        0.99165993378827       -1.82045008707471
C           -5.58222414347576        0.41724588797535       -0.93573871654346
C           -5.11774543243831       -0.25594565989250        0.18767815978646
C           -6.09101474926242       -0.88530712048676        1.15531098016503
O           -7.34361012572468       -0.24569043773222        1.20263731878624
C           -3.75329326981269       -0.35252373326992        0.40822947096456
C           -0.61222755671463        1.29280134625782       -0.07390717625383
C           -1.19471608548392        2.56147135288673       -0.06632601533390
C           -0.43168599998608        3.71376298984176        0.12542884729759
C            0.92110439970121        3.60860877517245        0.35207881543538
C            1.52293363209805        2.35032257558549        0.38897469602455
C            0.79055163277437        1.18389187100105        0.16120280316571
C            3.75278351202368        0.35289344131510       -0.40794393178772
H            7.20683280889841       -0.68063235647318       -1.43278732205965
H            6.30479410827301        1.91292222135129       -0.84140625567058
H            5.63672822691205        0.92832804481285       -2.15857340604792
H            6.64626909964578       -0.48225930446350        1.10942888913420
H            5.05214473855181       -1.50915575433301        2.69458965253656
H            2.62749560285431       -1.33161495865641        2.29651493928915
H            2.26135298674237       -2.65652467307668        0.20028842946959
H            0.91388623943022       -4.67939972342489       -0.10675390109502
H           -1.52243549833721       -4.48990395235618       -0.51527473004781
H           -2.57639784887272       -2.28099581041628       -0.61146810160390
H           -2.62641946777029        1.33216554180024       -2.29545179508099
H           -5.05083063783103        1.50980471686298       -2.69491469692342
H           -6.64588952391144        0.48276317148408       -1.11078360841673
H           -6.30543489101300       -1.91263492287823        0.84013393324603
H           -5.63836239771933       -0.92794131670282        2.15772922375321
H           -7.20816376380781        0.68082881520983        1.43085408567827
H           -3.38713503038206       -0.86000376189369        1.29003300394759
H           -2.26148092425932        2.65683222237174       -0.19860781162393
H           -0.91399919094573        4.67969916166268        0.10846153363436
H            1.52233655044973        4.49019590979312        0.51688653890947
H            2.57630662145565        2.28127154143391        0.61298170096428
H            3.38609385113682        0.86031296061590       -1.28956134235672

 projected vibrational frequencies (cm⁻¹)
eigval :       -0.00    -0.00    -0.00     0.00     0.00     0.00
eigval :       14.93    23.56    34.92    41.38    46.74    54.62
eigval :       59.61    77.63    80.21   105.94   137.45   164.41
eigval :      171.11   188.41   194.47   202.70   221.52   239.54
eigval :      245.63   250.05   267.98   335.28   335.71   356.37
eigval :      374.63   375.89   384.99   392.28   408.96   413.74
eigval :      420.58   425.83   437.65   470.49   490.56   510.98
eigval :      561.43   572.19   572.73   581.98   590.21   600.48
eigval :      619.42   624.89   666.42   669.40   669.96   679.30
eigval :      713.98   714.04   746.29   759.13   790.35   791.67
eigval :      807.18   829.48   841.64   841.88   881.72   883.95
eigval :      891.86   897.38   900.72   905.35   905.73   907.36
eigval :      909.33   931.02   931.21   943.26   948.83   948.90
eigval :      965.76   973.95   992.52  1002.70  1085.93  1087.43
eigval :     1101.29  1104.74  1112.39  1123.98  1130.34  1133.32
eigval :     1151.87  1152.32  1169.00  1171.22  1182.02  1183.18
eigval :     1187.66  1188.06  1217.39  1219.59  1231.94  1254.30
eigval :     1254.77  1263.45  1264.52  1292.02  1300.42  1300.44
eigval :     1301.67  1317.36  1321.15  1335.12  1337.31  1341.13
eigval :     1369.78  1375.04  1378.65  1406.85  1425.68  1428.61
eigval :     1429.95  1456.78  1457.88  1464.19  1466.59  1479.04
eigval :     1482.14  1514.04  1532.45  1562.98  1568.09  1568.14
eigval :     1584.46  1584.97  2862.43  2862.46  2941.72  2941.73
eigval :     3071.32  3071.39  3075.14  3075.21  3077.63  3077.77
eigval :     3085.86  3085.93  3086.69  3086.93  3093.68  3093.81
eigval :     3096.70  3097.26  3099.43  3100.19  3546.45  3546.60

   temp. (K)  partition function   enthalpy   heat capacity  entropy
                                   cal/mol     cal/K/mol   cal/K/mol   J/K/mol
 298.15  VIB  0.643E+11            14495.387     91.753     89.518
         ROT  0.200E+08              888.752      2.981     36.385
         INT  0.128E+19            15384.140     94.734    125.903
         TR   0.747E+28             1481.254      4.968     43.759
         TOT                       16865.3936    99.7019   169.6615   709.8637

       T/K    H(0)-H(T)+PV         H(T)/Eh          T*S/Eh         G(T)/Eh
   ------------------------------------------------------------------------
    298.15    0.268767E-01    0.430915E+00    0.806117E-01    0.350303E+00
   ------------------------------------------------------------------------

         :::::::::::::::::::::::::::::::::::::::::::::::::::::
         ::                  THERMODYNAMIC                  ::
         :::::::::::::::::::::::::::::::::::::::::::::::::::::
         :: total free energy         -78.876010315164 Eh   ::
         ::.................................................::
         :: total energy              -79.226313649200 Eh   ::
         :: zero point energy           0.404038271313 Eh   ::
         :: G(RRHO) w/o ZPVE           -0.053734937278 Eh   ::
         :: G(RRHO) contrib.            0.350303334035 Eh   ::
         :::::::::::::::::::::::::::::::::::::::::::::::::::::

           -------------------------------------------------
          | TOTAL ENERGY              -79.226313649200 Eh   |
          | TOTAL ENTHALPY            -78.795398662437 Eh   |
          | TOTAL FREE ENERGY         -78.876010315164 Eh   |
          | GRADIENT NORM               0.000038204088 Eh/α |
           -------------------------------------------------

 * finished run on 2025/07/18 at 20:21:49.982
