   * xtb version 6.7.1 (edcfbbe) compiled by 'albert@albert-system' on 2024-07-22

   ID    Z sym.   atoms
    1    8 O      1, 22
    2    6 C      2-21, 23-30
    3    1 H      31-52

          program call               : xtb data2507/gas/m-DHMPA/m-DHMPA_gas_T1_crest.xyz --gfn 2 --spinpol --tblite --uhf 2 --ohess vtight --parallel 40 --molden --ceasefiles --namespace data2507/gas/m-DHMPA/m-DHMPA_gas_T1_finalOpt
 * total energy  :   -79.2263665 Eh     change        0.2647604E-07 Eh
 * total energy  :   -79.2264001 Eh     change       -0.3362998E-04 Eh
 * total energy  :   -79.2264108 Eh     change       -0.1068356E-04 Eh
 * total energy  :   -79.2264161 Eh     change       -0.5300621E-05 Eh
 * total energy  :   -79.2264242 Eh     change       -0.8083425E-05 Eh
 * total energy  :   -79.2264343 Eh     change       -0.1012015E-04 Eh
 * total energy  :   -79.2264452 Eh     change       -0.1090365E-04 Eh
 * total energy  :   -79.2264551 Eh     change       -0.9956803E-05 Eh
 * total energy  :   -79.2264613 Eh     change       -0.6149357E-05 Eh
 * total energy  :   -79.2264657 Eh     change       -0.4449944E-05 Eh
 * total energy  :   -79.2264694 Eh     change       -0.3641682E-05 Eh
 * total energy  :   -79.2264725 Eh     change       -0.3073969E-05 Eh
 * total energy  :   -79.2264748 Eh     change       -0.2305774E-05 Eh
 * total energy  :   -79.2264762 Eh     change       -0.1480702E-05 Eh
 * total energy  :   -79.2264772 Eh     change       -0.9952563E-06 Eh
 * total energy  :   -79.2264778 Eh     change       -0.5756158E-06 Eh
 * total energy  :   -79.2264781 Eh     change       -0.3168205E-06 Eh
 * total energy  :   -79.2264783 Eh     change       -0.1599756E-06 Eh
 * total energy  :   -79.2264783 Eh     change       -0.6507143E-07 Eh
   *** GEOMETRY OPTIMIZATION CONVERGED AFTER 19 ITERATIONS ***

 final structure:
================
52
 xtb: 6.7.1 (edcfbbe)
O            7.29361396359686       -0.70282237945205       -1.22458589072027
C            5.99046202698697       -1.23042441136958       -1.16433315572871
C            5.07874080821677       -0.50465746754090       -0.20419486051236
C            5.60400622481197        0.14865875150565        0.90408215425443
C            4.76205339344734        0.81069489778101        1.78188650943586
C            3.39854704048153        0.82673946671382        1.56430863010560
C            2.84954553249089        0.16817753028921        0.46091640638243
C            1.40496072501663        0.17052111199410        0.22777272691361
C            0.69956548778711       -1.07044364128928        0.13755587753122
C            1.33912134658751       -2.29504413732473        0.33741132987576
C            0.66230168432407       -3.50457051697486        0.17659640909560
C           -0.66363205377586       -3.50343193802240       -0.19134288472850
C           -1.33986341094173       -2.29286246741279       -0.34649597480640
C           -0.69953895800885       -1.06951772623086       -0.14136675188506
C           -1.40426617480187        0.17208985881998       -0.22610581529738
C           -2.84868773152902        0.17167029090469       -0.46101988251617
C           -3.39523043511562        0.83328780334041       -1.56374111304383
C           -4.75838591108524        0.81885951231463       -1.78361644848675
C           -5.60233228210523        0.15591744226853       -0.90841802230715
C           -5.07951196049483       -0.49993418617826        0.19949621831831
C           -5.99351609433861       -1.22571981345679        1.15740907377876
O           -7.29661435469552       -0.69769604147781        1.21504939009805
C           -3.71078764492243       -0.49037169668788        0.41394160222938
C           -0.70739058385082        1.41271379559366       -0.08393032467082
C           -1.37833384379602        2.63679212660068       -0.09038717078507
C           -0.68661635300425        3.84677298617605       -0.02404736400040
C            0.68765400381383        3.84649822961142        0.04453335338404
C            1.37932758885654        2.63613030345632        0.10447604864793
C            0.70835403371374        1.41212621691801        0.09213106272204
C            3.70976988222930       -0.49295224212059       -0.41670329344288
H            7.23836072140748        0.22789323888358       -1.46873696890362
H            5.53199712290847       -1.24894311984202       -2.16484702618086
H            6.11600334419423       -2.26759135614178       -0.83386884966800
H            6.67046030691065        0.12977745465514        1.07318252838172
H            5.17420399544197        1.31296444572952        2.64491326598962
H            2.74151092056857        1.32593903722330        2.26147779058412
H            2.37871628545443       -2.31089132086665        0.62674610304698
H            1.19017083281837       -4.43363651424833        0.33144354521224
H           -1.19191465490594       -4.43153724193598       -0.35048254661864
H           -2.37957857135548       -2.30674567220117       -0.63551483041724
H           -2.73657706278160        1.33371747029912       -2.25850047109144
H           -5.16869799838978        1.32318567642822       -2.64631655720749
H           -6.66852185446849        0.13834726589213       -1.07935828585116
H           -6.11867029532199       -2.26279448120579        0.82656973346587
H           -5.53721246342016       -1.24449675993655        2.15891302146001
H           -7.24136375389232        0.23346608791793        1.45737048504804
H           -3.30117378248222       -0.98379090967393        1.28451603858803
H           -2.45608640295911        2.65154247305150       -0.14490940101712
H           -1.23704943266867        4.77560033022189       -0.03929061421720
H            1.23818769758423        4.77517465023227        0.06461371455258
H            2.45709792441998        2.65068573927066        0.15851643293541
H            3.29839499744267       -0.98395943019958       -1.28781078463283

 projected vibrational frequencies (cm⁻¹)
eigval :       -0.00    -0.00     0.00     0.00     0.00     0.00
eigval :       14.99    24.60    35.83    41.23    44.14    49.91
eigval :       71.06    76.43    79.59   114.87   142.56   162.20
eigval :      176.23   188.59   189.44   193.76   229.96   240.21
eigval :      240.69   261.06   263.63   334.45   336.58   353.38
eigval :      373.40   377.39   392.34   394.97   406.47   414.09
eigval :      419.32   425.10   437.74   470.44   487.01   516.00
eigval :      562.86   571.38   572.65   581.69   591.62   600.60
eigval :      616.36   628.83   662.95   669.26   673.17   679.28
eigval :      713.50   714.20   746.27   759.10   789.20   793.74
eigval :      806.33   829.81   842.44   843.36   881.85   885.58
eigval :      892.24   896.93   902.28   903.46   906.45   907.87
eigval :      909.91   931.08   931.21   943.88   948.67   948.86
eigval :      965.15   974.68   992.28  1002.53  1085.71  1087.34
eigval :     1100.07  1103.20  1111.63  1123.48  1131.09  1133.39
eigval :     1151.89  1152.29  1169.50  1171.20  1181.34  1182.62
eigval :     1187.86  1188.31  1217.97  1219.28  1231.36  1252.59
eigval :     1253.67  1264.01  1264.23  1292.68  1300.39  1300.77
eigval :     1301.44  1318.76  1320.60  1335.54  1336.67  1341.38
eigval :     1369.24  1375.29  1378.51  1407.10  1426.46  1427.00
eigval :     1429.14  1456.62  1457.59  1464.09  1466.01  1479.08
eigval :     1481.36  1514.08  1531.73  1561.51  1567.28  1567.55
eigval :     1583.85  1584.57  2862.21  2862.30  2941.81  2941.99
eigval :     3071.47  3071.50  3075.02  3075.10  3077.36  3078.29
eigval :     3085.54  3085.92  3086.35  3086.73  3093.66  3093.81
eigval :     3095.41  3096.01  3098.35  3099.49  3546.32  3546.76

   temp. (K)  partition function   enthalpy   heat capacity  entropy
                                   cal/mol     cal/K/mol   cal/K/mol   J/K/mol
 298.15  VIB  0.554E+11            14470.940     91.733     89.162
         ROT  0.100E+08              888.752      2.981     35.019
         INT  0.556E+18            15359.692     94.714    124.180
         TR   0.747E+28             1481.254      4.968     43.759
         TOT                       16840.9464    99.6818   167.9389   702.6563

       T/K    H(0)-H(T)+PV         H(T)/Eh          T*S/Eh         G(T)/Eh
   ------------------------------------------------------------------------
    298.15    0.268378E-01    0.430905E+00    0.797932E-01    0.351111E+00
   ------------------------------------------------------------------------

         :::::::::::::::::::::::::::::::::::::::::::::::::::::
         ::                  THERMODYNAMIC                  ::
         :::::::::::::::::::::::::::::::::::::::::::::::::::::
         :: total free energy         -78.875366929895 Eh   ::
         ::.................................................::
         :: total energy              -79.226478373255 Eh   ::
         :: zero point energy           0.404066868685 Eh   ::
         :: G(RRHO) w/o ZPVE           -0.052955425325 Eh   ::
         :: G(RRHO) contrib.            0.351111443360 Eh   ::
         :::::::::::::::::::::::::::::::::::::::::::::::::::::

           -------------------------------------------------
          | TOTAL ENERGY              -79.226478373255 Eh   |
          | TOTAL ENTHALPY            -78.795573748252 Eh   |
          | TOTAL FREE ENERGY         -78.875366929895 Eh   |
          | GRADIENT NORM               0.000062619616 Eh/α |
           -------------------------------------------------

 * finished run on 2025/07/18 at 20:24:08.253
