   * xtb version 6.7.1 (edcfbbe) compiled by 'albert@albert-system' on 2024-07-22

   ID    Z sym.   atoms
    1    8 O      1, 22
    2    6 C      2-21, 23-30
    3    1 H      31-52

          program call               : xtb data2507/gas/m-DHMPA/m-DHMPA.xyz --gfn 2 --ohess vtight --parallel 40 --molden --ceasefiles --namespace data2507/gas/m-DHMPA/m-DHMPA_gas_S0_preOpt
          :  Hamiltonian                  GFN2-xTB          :
 * total energy  :   -79.2722213 Eh     change       -0.3507708E-08 Eh
 * total energy  :   -79.2826547 Eh     change       -0.1043336E-01 Eh
 * total energy  :   -79.2850161 Eh     change       -0.2361400E-02 Eh
 * total energy  :   -79.2853854 Eh     change       -0.3692929E-03 Eh
 * total energy  :   -79.2858890 Eh     change       -0.5036377E-03 Eh
 * total energy  :   -79.2862311 Eh     change       -0.3420711E-03 Eh
 * total energy  :   -79.2873015 Eh     change       -0.1070390E-02 Eh
 * total energy  :   -79.2874940 Eh     change       -0.1925055E-03 Eh
 * total energy  :   -79.2873498 Eh     change        0.1441496E-03 Eh
 * total energy  :   -79.2882014 Eh     change       -0.8515376E-03 Eh
 * total energy  :   -79.2903626 Eh     change       -0.4977245E-06 Eh
 * total energy  :   -79.2903634 Eh     change       -0.8449934E-06 Eh
 * total energy  :   -79.2903644 Eh     change       -0.9328048E-06 Eh
 * total energy  :   -79.2903651 Eh     change       -0.7298010E-06 Eh
 * total energy  :   -79.2903657 Eh     change       -0.5853115E-06 Eh
 * total energy  :   -79.2903662 Eh     change       -0.5141006E-06 Eh
 * total energy  :   -79.2903666 Eh     change       -0.3594020E-06 Eh
 * total energy  :   -79.2903667 Eh     change       -0.1352013E-06 Eh
 * total energy  :   -79.2903667 Eh     change       -0.4970123E-07 Eh
   *** GEOMETRY OPTIMIZATION CONVERGED AFTER 92 ITERATIONS ***

 final structure:
================
52
 xtb: 6.7.1 (edcfbbe)
O            7.33720485207102       -0.08468317750612       -1.28494400194273
C            6.06345074109521        0.48453536200859       -1.46830676990917
C            5.10826393298734        0.23330942647006       -0.32660951035292
C            5.58848058306747        0.01983617470674        0.95871926606454
C            4.70818783498930       -0.20418123746517        2.00288808940354
C            3.34455267529022       -0.21383565300647        1.77478815044391
C            2.84835335377886        0.00509933924539        0.49305521266685
C            1.39103246821903        0.00184293519506        0.24111873964471
C            0.67599017329950       -1.20255736288429        0.29532489795317
C            1.31787441344735       -2.44067407261022        0.56191241418696
C            0.61636534482996       -3.60591436706073        0.59907268685961
C           -0.77220871879651       -3.60788453596721        0.35844817489636
C           -1.42373980216082       -2.44458516069704        0.08721433879548
C           -0.73281667008566       -1.20465407468945        0.05160490105824
C           -1.39110457694787       -0.00199315250082       -0.24018826596221
C           -2.84837037234563       -0.00526471390848       -0.49246396211196
C           -3.34409880703015        0.21373248256232       -1.77436753081176
C           -4.70764985281563        0.20418506164489       -2.00298518316209
C           -5.58831829135632       -0.01985273788215       -0.95914850894406
C           -5.10857645911600       -0.23343366191490        0.32635238341920
C           -6.06440633775025       -0.48454613094735        1.46752229685593
O           -7.33702378050373        0.08742904875834        1.28464746119219
C           -3.73946819618833       -0.22485849637220        0.55107050150723
C           -0.67603623331051        1.20239112039868       -0.29452372020385
C           -1.31782421868873        2.44045833474365       -0.56157553089941
C           -0.61620243980099        3.60561250487629       -0.59932265455363
C            0.77235590422317        3.60758851505101       -0.35861032802809
C            1.42375887351955        2.44437051170695       -0.08672568809545
C            0.73276157473294        1.20449150005559       -0.05075329003529
C            3.73906493138665        0.22468056075728       -0.55080113722056
H            7.23392411420224       -1.03297510067606       -1.14714977838817
H            6.24130003003505        1.56148702347295       -1.56439565367835
H            5.61275143316276        0.13271885993801       -2.40897297136070
H            6.65425771464234        0.03566953803218        1.13366395074416
H            5.08850211205929       -0.36957169920230        3.00027429324458
H            2.65434339937062       -0.38465702413678        2.58818956592662
H            2.38463642832290       -2.44130156719480        0.73043542510845
H            1.11907680545215       -4.53981159419299        0.80398812068167
H           -1.31198493035798       -4.54319090900302        0.38231413049596
H           -2.48478926787886       -2.44869858955532       -0.11380265309366
H           -2.65356747838486        0.38455037456319       -2.58749532989297
H           -5.08757492939994        0.36964625444290       -3.00050547625631
H           -6.65404480533494       -0.03549958093208       -1.13441516111884
H           -6.24440735602894       -1.56128543776110        1.56195432081957
H           -5.61328434953547       -0.13498380754371        2.40881799137481
H           -7.23179800043371        1.03561690777973        1.14758348861671
H           -3.35640532551801       -0.38774228227545        1.54912079390426
H           -2.38457743618467        2.44111123905459       -0.73014849089036
H           -1.11881917274417        4.53944330590314       -0.80475950889507
H            1.31220069099663        4.54284203098227       -0.38283717009437
H            2.48477787866335        2.44850194647195        0.11444918311228
H            3.35562954484980        0.38748376906530       -1.54871850307648

          :  Hamiltonian                  GFN2-xTB          :
         :: gradient norm              0.000027867893 Eh/a0 ::
         :: HOMO-LUMO gap              2.139444582439 eV    ::
         :: SCC energy               -80.677681243353 Eh    ::
         :: -> dispersion             -0.066400188974 Eh    ::
         :: repulsion energy           1.387314500766 Eh    ::

    * Orbital Energies and Occupations

         #    Occupation            Energy/Eh            Energy/eV
      -------------------------------------------------------------
         1        2.0000           -0.6909167             -18.8008
       ...           ...                  ...                  ...
        61        2.0000           -0.4282085             -11.6521
        62        2.0000           -0.4273537             -11.6289
        63        2.0000           -0.4196907             -11.4204
        64        2.0000           -0.4149939             -11.2926
        65        2.0000           -0.4146527             -11.2833
        66        2.0000           -0.4075841             -11.0909
        67        2.0000           -0.4051252             -11.0240
        68        2.0000           -0.4046234             -11.0104
        69        2.0000           -0.4012438             -10.9184
        70        2.0000           -0.4001967             -10.8899
        71        2.0000           -0.3984540             -10.8425
        72        2.0000           -0.3961872             -10.7808
        73        2.0000           -0.3597361              -9.7889 (HOMO)
        74                         -0.2811130              -7.6495 (LUMO)
        75                         -0.2325291              -6.3274
        76                         -0.2278115              -6.1991
        77                         -0.2273258              -6.1859
        78                         -0.2270311              -6.1778
        79                         -0.2266537              -6.1676
        80                         -0.2212515              -6.0206
        81                         -0.1764605              -4.8017
        82                         -0.1733872              -4.7181
        83                         -0.1004039              -2.7321
        84                         -0.0999219              -2.7190
       ...                                ...                  ...
       142                          0.7144699              19.4417
      -------------------------------------------------------------
                  HL-Gap            0.0786231 Eh            2.1394 eV

     #   Z          covCN         q      C6AA      α(0)
     1   8 O        1.655    -0.437    21.571     6.270
     2   6 C        3.680     0.079    19.475     6.321
     3   6 C        2.967    -0.007    28.200     8.711
     4   6 C        2.924    -0.038    28.939     8.822
     5   6 C        2.918    -0.031    28.780     8.797
     6   6 C        2.924    -0.035    28.881     8.813
     7   6 C        2.977     0.017    27.637     8.623
     8   6 C        2.978    -0.007    28.179     8.707
     9   6 C        2.984     0.006    27.875     8.661
    10   6 C        2.917    -0.035    28.867     8.811
    11   6 C        2.914    -0.030    28.753     8.793
    12   6 C        2.914    -0.030    28.753     8.793
    13   6 C        2.917    -0.035    28.863     8.810
    14   6 C        2.984     0.006    27.875     8.660
    15   6 C        2.978    -0.007    28.179     8.707
    16   6 C        2.977     0.017    27.637     8.623
    17   6 C        2.924    -0.035    28.881     8.813
    18   6 C        2.918    -0.031    28.780     8.797
    19   6 C        2.924    -0.038    28.939     8.822
    20   6 C        2.967    -0.007    28.200     8.711
    21   6 C        3.680     0.079    19.475     6.321
    22   8 O        1.655    -0.437    21.571     6.270
    23   6 C        2.928    -0.044    29.087     8.845
    24   6 C        2.984     0.006    27.875     8.661
    25   6 C        2.917    -0.035    28.867     8.811
    26   6 C        2.914    -0.030    28.753     8.793
    27   6 C        2.914    -0.030    28.753     8.793
    28   6 C        2.917    -0.035    28.863     8.810
    29   6 C        2.984     0.006    27.875     8.660
    30   6 C        2.928    -0.044    29.087     8.845
    31   1 H        0.805     0.287     0.760     1.370
    32   1 H        0.924     0.056     2.250     2.346
    33   1 H        0.923     0.022     2.701     2.570
    34   1 H        0.926     0.044     2.392     2.418
    35   1 H        0.926     0.032     2.552     2.498
    36   1 H        0.926     0.031     2.568     2.506
    37   1 H        0.926     0.031     2.577     2.510
    38   1 H        0.926     0.029     2.604     2.524
    39   1 H        0.926     0.029     2.598     2.521
    40   1 H        0.926     0.032     2.564     2.504
    41   1 H        0.926     0.031     2.568     2.506
    42   1 H        0.926     0.032     2.552     2.498
    43   1 H        0.926     0.044     2.392     2.418
    44   1 H        0.924     0.056     2.250     2.346
    45   1 H        0.923     0.022     2.701     2.570
    46   1 H        0.805     0.287     0.760     1.370
    47   1 H        0.925     0.027     2.624     2.533
    48   1 H        0.926     0.031     2.577     2.510
    49   1 H        0.926     0.029     2.604     2.524
    50   1 H        0.926     0.029     2.598     2.520
    51   1 H        0.926     0.032     2.564     2.504
    52   1 H        0.925     0.027     2.624     2.533

molecular dipole:
                 x           y           z       tot (Debye)
 q only:        0.001      -0.001      -0.000
   full:        0.001      -0.001      -0.000       0.004

 projected vibrational frequencies (cm⁻¹)
eigval :       -0.00    -0.00     0.00     0.00     0.00     0.00
eigval :       16.04    18.12    25.25    37.79    41.03    58.23
eigval :       61.56    74.62    75.07   106.39   147.50   162.25
eigval :      167.98   188.13   191.27   199.32   212.21   234.41
eigval :      240.27   244.53   261.98   337.27   337.56   368.33
eigval :      385.19   387.02   394.92   401.80   411.53   416.58
eigval :      423.81   447.28   455.44   458.81   493.83   518.96
eigval :      562.87   576.44   590.66   593.21   599.78   619.26
eigval :      625.55   626.21   670.84   672.33   682.91   692.80
eigval :      713.71   739.18   773.80   776.10   790.49   792.69
eigval :      810.64   835.85   874.33   875.74   890.85   891.91
eigval :      897.65   904.50   907.14   918.50   918.81   928.02
eigval :      928.03   931.11   932.00   933.49   948.85   948.95
eigval :      963.96   974.08   994.71  1006.66  1081.31  1082.20
eigval :     1085.94  1087.23  1129.16  1130.61  1135.19  1140.96
eigval :     1152.16  1153.05  1172.38  1181.37  1184.30  1184.94
eigval :     1189.26  1192.09  1228.85  1236.23  1250.44  1259.60
eigval :     1262.36  1263.13  1267.17  1298.99  1299.02  1318.41
eigval :     1319.20  1328.62  1337.75  1338.24  1350.41  1371.19
eigval :     1384.96  1417.36  1428.32  1431.63  1432.63  1446.76
eigval :     1458.63  1460.28  1467.14  1481.36  1492.10  1527.36
eigval :     1531.64  1543.00  1582.35  1582.72  1598.48  1598.68
eigval :     1608.75  1623.05  2861.37  2861.48  2941.85  2941.87
eigval :     3071.04  3071.10  3073.73  3073.76  3075.42  3075.44
eigval :     3080.18  3080.29  3084.95  3085.04  3089.65  3090.10
eigval :     3092.57  3092.61  3093.88  3094.87  3545.23  3545.29

   temp. (K)  partition function   enthalpy   heat capacity  entropy
                                   cal/mol     cal/K/mol   cal/K/mol   J/K/mol
 298.15  VIB  0.118E+12            14410.757     90.440     89.339
         ROT  0.198E+08              888.752      2.981     36.373
         INT  0.235E+19            15299.509     93.421    125.711
         TR   0.747E+28             1481.254      4.968     43.759
         TOT                       16780.7633    98.3895   169.4700   709.0626

       T/K    H(0)-H(T)+PV         H(T)/Eh          T*S/Eh         G(T)/Eh
   ------------------------------------------------------------------------
    298.15    0.267418E-01    0.433275E+00    0.805207E-01    0.352755E+00
   ------------------------------------------------------------------------

         :::::::::::::::::::::::::::::::::::::::::::::::::::::
         ::                  THERMODYNAMIC                  ::
         :::::::::::::::::::::::::::::::::::::::::::::::::::::
         :: total free energy         -78.937612042205 Eh   ::
         ::.................................................::
         :: total energy              -79.290366742577 Eh   ::
         :: zero point energy           0.406533530147 Eh   ::
         :: G(RRHO) w/o ZPVE           -0.053778829775 Eh   ::
         :: G(RRHO) contrib.            0.352754700372 Eh   ::
         :::::::::::::::::::::::::::::::::::::::::::::::::::::

           -------------------------------------------------
          | TOTAL ENERGY              -79.290366742577 Eh   |
          | TOTAL ENTHALPY            -78.857091363872 Eh   |
          | TOTAL FREE ENERGY         -78.937612042205 Eh   |
          | GRADIENT NORM               0.000027992509 Eh/α |
          | HOMO-LUMO GAP               2.139444581367 eV   |
           -------------------------------------------------

 * finished run on 2025/07/18 at 20:19:36.969
