   * xtb version 6.7.1 (edcfbbe) compiled by 'albert@albert-system' on 2024-07-22

   ID    Z sym.   atoms
    1    8 O      1, 22
    2    6 C      2-21, 23-30
    3    1 H      31-52

          program call               : xtb data2507/gas/m-DHMPA/m-DHMPA_gas_S0_crest.xyz --gfn 2 --ohess vtight --parallel 40 --molden --ceasefiles --namespace data2507/gas/m-DHMPA/m-DHMPA_gas_S0_finalOpt
          :  Hamiltonian                  GFN2-xTB          :
 * total energy  :   -79.2903635 Eh     change       -0.1148881E-07 Eh
 * total energy  :   -79.2903643 Eh     change       -0.8335498E-06 Eh
 * total energy  :   -79.2903650 Eh     change       -0.6718197E-06 Eh
 * total energy  :   -79.2903659 Eh     change       -0.8874972E-06 Eh
 * total energy  :   -79.2903663 Eh     change       -0.4081725E-06 Eh
 * total energy  :   -79.2903664 Eh     change       -0.1291930E-06 Eh
 * total energy  :   -79.2903664 Eh     change        0.1242459E-07 Eh
 * total energy  :   -79.2903665 Eh     change       -0.8764140E-07 Eh
   *** GEOMETRY OPTIMIZATION CONVERGED AFTER 8 ITERATIONS ***

 final structure:
================
52
 xtb: 6.7.1 (edcfbbe)
O            7.33977416954566        0.07813537188196       -1.23900264975762
C            6.08489013379519        0.71440963929938       -1.26847769570071
C            5.11429718881320        0.20481875591214       -0.23064832970175
C            5.57914629201611       -0.33416639123329        0.96176620359125
C            4.68566788331955       -0.79461318529751        1.91304331179953
C            3.32410434838763       -0.71865242556523        1.68471417011215
C            2.84333100823266       -0.17567665409163        0.49686124162673
C            1.38867753188023       -0.08685389599717        0.24571621155337
C            0.65016589013720       -1.25292498075036        0.00093545310218
C            1.26548879738815       -2.53189804307337       -0.03971581742165
C            0.54143972072696       -3.65609621438358       -0.29113562917437
C           -0.84447469223193       -3.57024638957741       -0.53164259942168
C           -1.47072673474579       -2.36242517389127       -0.51462770179709
C           -0.75587746986564       -1.16596691324092       -0.24338646577330
C           -1.38798926571401        0.08517134740970       -0.23723352659875
C           -2.84183257945253        0.17464885108468       -0.49315197275049
C           -3.31696339340737        0.71316439290703       -1.68533296579337
C           -4.67739411131501        0.78934434628683       -1.91993850778016
C           -5.57540231173413        0.33366530779528       -0.97059472381180
C           -5.11623336545031       -0.20047539730787        0.22613489292253
C           -6.09158591336420       -0.70514953698329        1.26198631351158
O           -7.34895722149489       -0.07475156776902        1.21905650660857
C           -3.75022491212211       -0.27642538745637        0.45693414681128
C           -0.64960615254323        1.25115354736964        0.00810114277705
C           -1.26499549878514        2.53011617351245        0.04777935692310
C           -0.54110515076721        3.65439649586988        0.29927621437527
C            0.84458425527064        3.56851326721499        0.54106586405500
C            1.47089449895113        2.36070066388847        0.52471401763911
C            0.75633627872538        1.16420739500213        0.25286604511922
C            3.74729883450275        0.28039765756874       -0.45515962024518
H            7.20715551295764       -0.86993640835940       -1.35064134755279
H            6.29557041831064        1.77339466273316       -1.08177144076739
H            5.63140467750902        0.63252567858379       -2.26812875212461
H            6.64352238592203       -0.38518236161127        1.13846734593597
H            5.05394463333126       -1.21259546864929        2.83847262835034
H            2.62372262223748       -1.07344217428956        2.42685870628323
H            2.33036478965783       -2.59616672562108        0.12836947099147
H            1.02419703549681       -4.62207023554522       -0.31781902855758
H           -1.40233570862253       -4.47162344676481       -0.73906839138147
H           -2.52955582853576       -2.29516928175108       -0.71609056443404
H           -2.61296642476611        1.06420679175432       -2.42583368146699
H           -5.04126529596446        1.20363368129313       -2.84876252519359
H           -6.63892175757933        0.38456093547470       -1.15240442342332
H           -6.29637325106298       -1.76662662665759        1.08304250536064
H           -5.64487603650710       -0.61279564978843        2.26378243822006
H           -7.22148363890699        0.87453935879382        1.32618983936528
H           -3.38317534839737       -0.68817148487017        1.38704964743245
H           -2.32976421778436        2.59417703484311       -0.12113141913266
H           -1.02378815347886        4.62042987360611        0.32509304196682
H            1.40230621412275        4.46991270889473        0.74878770774329
H            2.52953690589796        2.29355991687742        0.72718832475135
H            3.37575814216355        0.69564701776861       -1.38192839056647

          :  Hamiltonian                  GFN2-xTB          :
         :: gradient norm              0.000040753411 Eh/a0 ::
         :: HOMO-LUMO gap              2.137901163755 eV    ::
         :: SCC energy               -80.677650551476 Eh    ::
         :: -> dispersion             -0.066405310169 Eh    ::
         :: repulsion energy           1.387284052215 Eh    ::

    * Orbital Energies and Occupations

         #    Occupation            Energy/Eh            Energy/eV
      -------------------------------------------------------------
         1        2.0000           -0.6909082             -18.8006
       ...           ...                  ...                  ...
        61        2.0000           -0.4282013             -11.6520
        62        2.0000           -0.4273568             -11.6290
        63        2.0000           -0.4196768             -11.4200
        64        2.0000           -0.4150000             -11.2927
        65        2.0000           -0.4146368             -11.2828
        66        2.0000           -0.4075953             -11.0912
        67        2.0000           -0.4051883             -11.0257
        68        2.0000           -0.4046457             -11.0110
        69        2.0000           -0.4012376             -10.9182
        70        2.0000           -0.4002071             -10.8902
        71        2.0000           -0.3984818             -10.8432
        72        2.0000           -0.3962133             -10.7815
        73        2.0000           -0.3597244              -9.7886 (HOMO)
        74                         -0.2811579              -7.6507 (LUMO)
        75                         -0.2325416              -6.3278
        76                         -0.2278257              -6.1995
        77                         -0.2273343              -6.1861
        78                         -0.2270910              -6.1795
        79                         -0.2266948              -6.1687
        80                         -0.2212593              -6.0208
        81                         -0.1764256              -4.8008
        82                         -0.1733840              -4.7180
        83                         -0.1004506              -2.7334
        84                         -0.0999358              -2.7194
       ...                                ...                  ...
       142                          0.7144543              19.4413
      -------------------------------------------------------------
                  HL-Gap            0.0785664 Eh            2.1379 eV

     #   Z          covCN         q      C6AA      α(0)
     1   8 O        1.655    -0.437    21.571     6.270
     2   6 C        3.680     0.079    19.476     6.321
     3   6 C        2.967    -0.007    28.201     8.711
     4   6 C        2.924    -0.038    28.937     8.822
     5   6 C        2.918    -0.031    28.780     8.797
     6   6 C        2.924    -0.035    28.881     8.813
     7   6 C        2.977     0.016    27.638     8.623
     8   6 C        2.978    -0.007    28.179     8.707
     9   6 C        2.984     0.006    27.875     8.661
    10   6 C        2.917    -0.035    28.868     8.811
    11   6 C        2.914    -0.030    28.753     8.793
    12   6 C        2.914    -0.030    28.753     8.793
    13   6 C        2.917    -0.035    28.864     8.810
    14   6 C        2.984     0.006    27.874     8.660
    15   6 C        2.978    -0.007    28.179     8.707
    16   6 C        2.977     0.017    27.637     8.623
    17   6 C        2.924    -0.035    28.881     8.813
    18   6 C        2.918    -0.031    28.780     8.797
    19   6 C        2.924    -0.038    28.938     8.822
    20   6 C        2.967    -0.007    28.201     8.711
    21   6 C        3.680     0.079    19.475     6.321
    22   8 O        1.655    -0.437    21.570     6.270
    23   6 C        2.928    -0.044    29.087     8.845
    24   6 C        2.984     0.006    27.875     8.661
    25   6 C        2.917    -0.035    28.867     8.811
    26   6 C        2.914    -0.030    28.753     8.793
    27   6 C        2.914    -0.030    28.753     8.793
    28   6 C        2.917    -0.035    28.864     8.810
    29   6 C        2.984     0.006    27.875     8.660
    30   6 C        2.928    -0.044    29.086     8.845
    31   1 H        0.805     0.287     0.760     1.370
    32   1 H        0.924     0.056     2.250     2.346
    33   1 H        0.923     0.022     2.702     2.571
    34   1 H        0.926     0.044     2.391     2.418
    35   1 H        0.926     0.032     2.551     2.498
    36   1 H        0.926     0.031     2.567     2.506
    37   1 H        0.926     0.031     2.576     2.510
    38   1 H        0.926     0.029     2.604     2.524
    39   1 H        0.926     0.029     2.598     2.521
    40   1 H        0.926     0.032     2.564     2.504
    41   1 H        0.926     0.031     2.568     2.506
    42   1 H        0.926     0.032     2.551     2.498
    43   1 H        0.926     0.044     2.391     2.418
    44   1 H        0.924     0.056     2.250     2.346
    45   1 H        0.923     0.022     2.702     2.570
    46   1 H        0.805     0.287     0.760     1.370
    47   1 H        0.925     0.027     2.624     2.533
    48   1 H        0.926     0.031     2.577     2.510
    49   1 H        0.926     0.029     2.604     2.524
    50   1 H        0.926     0.029     2.598     2.521
    51   1 H        0.926     0.032     2.564     2.504
    52   1 H        0.925     0.027     2.623     2.533

molecular dipole:
                 x           y           z       tot (Debye)
 q only:       -0.002       0.002       0.002
   full:       -0.003       0.003       0.002       0.012

 projected vibrational frequencies (cm⁻¹)
eigval :       -0.00    -0.00    -0.00    -0.00     0.00     0.00
eigval :       16.38    18.19    25.80    37.98    41.04    58.09
eigval :       61.65    74.75    75.15   106.47   147.57   161.93
eigval :      167.64   188.32   191.37   199.57   212.28   234.62
eigval :      240.82   244.56   262.44   336.62   337.06   368.33
eigval :      385.26   386.91   394.89   401.80   411.52   416.61
eigval :      423.86   447.40   455.45   458.83   493.99   518.73
eigval :      562.84   576.55   590.65   593.15   600.19   619.30
eigval :      625.39   626.62   670.97   672.36   682.93   692.83
eigval :      713.71   739.18   773.84   776.13   790.67   792.79
eigval :      810.76   835.93   874.35   875.74   890.94   892.03
eigval :      897.69   904.61   907.24   918.55   918.86   928.05
eigval :      928.06   931.14   932.02   933.46   948.89   949.04
eigval :      963.98   974.08   994.66  1006.69  1081.42  1082.30
eigval :     1085.73  1087.04  1129.09  1130.55  1135.19  1141.04
eigval :     1151.97  1152.89  1172.50  1181.42  1184.32  1184.95
eigval :     1189.24  1192.11  1228.93  1236.24  1250.47  1259.59
eigval :     1262.34  1263.12  1267.18  1299.05  1299.09  1318.45
eigval :     1319.21  1328.52  1337.69  1338.17  1350.42  1371.16
eigval :     1384.92  1417.32  1428.30  1431.69  1432.69  1446.72
eigval :     1458.68  1460.43  1467.24  1481.31  1492.02  1527.37
eigval :     1531.51  1542.94  1582.28  1582.65  1598.45  1598.65
eigval :     1608.76  1623.04  2861.79  2861.93  2941.85  2941.87
eigval :     3070.97  3071.05  3073.75  3073.78  3075.48  3075.50
eigval :     3080.23  3080.35  3085.02  3085.10  3089.75  3090.21
eigval :     3092.68  3092.72  3093.94  3094.93  3545.57  3545.66

   temp. (K)  partition function   enthalpy   heat capacity  entropy
                                   cal/mol     cal/K/mol   cal/K/mol   J/K/mol
 298.15  VIB  0.112E+12            14408.074     90.448     89.293
         ROT  0.198E+08              888.752      2.981     36.372
         INT  0.223E+19            15296.826     93.429    125.666
         TR   0.747E+28             1481.254      4.968     43.759
         TOT                       16778.0802    98.3967   169.4244   708.8718

       T/K    H(0)-H(T)+PV         H(T)/Eh          T*S/Eh         G(T)/Eh
   ------------------------------------------------------------------------
    298.15    0.267376E-01    0.433284E+00    0.804990E-01    0.352785E+00
   ------------------------------------------------------------------------

         :::::::::::::::::::::::::::::::::::::::::::::::::::::
         ::                  THERMODYNAMIC                  ::
         :::::::::::::::::::::::::::::::::::::::::::::::::::::
         :: total free energy         -78.937581538161 Eh   ::
         ::.................................................::
         :: total energy              -79.290366499260 Eh   ::
         :: zero point energy           0.406546394893 Eh   ::
         :: G(RRHO) w/o ZPVE           -0.053761433795 Eh   ::
         :: G(RRHO) contrib.            0.352784961098 Eh   ::
         :::::::::::::::::::::::::::::::::::::::::::::::::::::

           -------------------------------------------------
          | TOTAL ENERGY              -79.290366499260 Eh   |
          | TOTAL ENTHALPY            -78.857082531627 Eh   |
          | TOTAL FREE ENERGY         -78.937581538161 Eh   |
          | GRADIENT NORM               0.000040835571 Eh/α |
          | HOMO-LUMO GAP               2.137901157311 eV   |
           -------------------------------------------------

 * finished run on 2025/07/18 at 20:21:46.945
