   * xtb version 6.7.1 (edcfbbe) compiled by 'albert@albert-system' on 2024-07-22

   ID    Z sym.   atoms
    1    8 O      1
    2    6 C      2-12, 14-26, 28-46
    3    7 N      13, 27
    4    1 H      47-76

          program call               : xtb data2507/gas/3TCPM/3TCPM_gas_T1_crest.xyz --gfn 2 --spinpol --tblite --uhf 2 --ohess vtight --parallel 40 --molden --ceasefiles --namespace data2507/gas/3TCPM/3TCPM_gas_T1_finalOpt
 * total energy  :  -117.2231357 Eh     change        0.2056501E-07 Eh
 * total energy  :  -117.2233017 Eh     change       -0.1659575E-03 Eh
 * total energy  :  -117.2233716 Eh     change       -0.6992730E-04 Eh
 * total energy  :  -117.2233830 Eh     change       -0.1141050E-04 Eh
 * total energy  :  -117.2233934 Eh     change       -0.1040076E-04 Eh
 * total energy  :  -117.2234011 Eh     change       -0.7646508E-05 Eh
 * total energy  :  -117.2234082 Eh     change       -0.7163812E-05 Eh
 * total energy  :  -117.2234139 Eh     change       -0.5629604E-05 Eh
 * total energy  :  -117.2234192 Eh     change       -0.5383874E-05 Eh
 * total energy  :  -117.2234245 Eh     change       -0.5273801E-05 Eh
 * total energy  :  -117.2234469 Eh     change       -0.2924100E-06 Eh
 * total energy  :  -117.2234473 Eh     change       -0.4336993E-06 Eh
 * total energy  :  -117.2234477 Eh     change       -0.3790200E-06 Eh
 * total energy  :  -117.2234481 Eh     change       -0.4703871E-06 Eh
 * total energy  :  -117.2234488 Eh     change       -0.6705260E-06 Eh
 * total energy  :  -117.2234495 Eh     change       -0.6647679E-06 Eh
 * total energy  :  -117.2234501 Eh     change       -0.5834460E-06 Eh
 * total energy  :  -117.2234504 Eh     change       -0.3033782E-06 Eh
 * total energy  :  -117.2234504 Eh     change       -0.1333129E-07 Eh
   *** GEOMETRY OPTIMIZATION CONVERGED AFTER 42 ITERATIONS ***

 final structure:
================
76
 xtb: 6.7.1 (edcfbbe)
O            7.44545244833261        3.15245717286630       -1.20017401878091
C            7.53509592997960        2.05416177360304       -0.57560854120566
C            8.82030535650185        1.68132715514771        0.02841396731763
C            9.25071253508198        0.35242228255719        0.09622797905497
C           10.48176787130758        0.05022843540746        0.64244986705901
C           11.31010618496749        1.05718449656542        1.11597113553888
C           10.90519165477916        2.38006504895404        1.01577679666182
C            9.67968003743149        2.69522328505011        0.46818091298208
C            6.39177796543903        1.19516903416223       -0.43786581985505
C            6.27002829820736        0.19437695258186        0.55107808565870
C            5.14124868761044       -0.57952171362810        0.63196704159368
C            4.07155406661130       -0.37696631036118       -0.24966242007521
N            2.92650761350154       -1.17937598231752       -0.16682544812631
C            2.91067348794435       -2.56042425237328       -0.13984216347800
C            3.96848445034142       -3.45597845559572       -0.20683052228126
C            3.67275021231793       -4.80628804174163       -0.18063983004549
C            2.35888532242529       -5.26111387264601       -0.09775666312675
C            1.29923171913146       -4.37392483395037       -0.05479100094763
C            1.57121660514149       -3.01422968420170       -0.08122773647000
C            0.74585908072774       -1.83725165960857       -0.07251042418038
C           -0.61965715486240       -1.63507311444039       -0.02078885261407
C           -1.11942853211900       -0.33234481788554       -0.01982371960023
C           -2.55983076178031       -0.09318149989336        0.01291743894615
C           -3.12897188593116        0.98391291586010       -0.67405272325305
C           -4.48675569115785        1.20631062766069       -0.65651841150355
C           -5.33576964279171        0.35899618472812        0.06141793802282
N           -6.71044986722759        0.58070467055181        0.08291715418471
C           -7.59745309724197       -0.50161769411702        0.12405215881556
C           -7.32331057051851       -1.66742664167146       -0.59158403675665
C           -8.20249779240102       -2.73159870358790       -0.54736146365430
C           -9.36580671073438       -2.65016623053835        0.20097464186647
C           -9.64427089556106       -1.49267639945739        0.90998009874817
C           -8.76897088036982       -0.42485025335033        0.87751209846891
C           -7.21337300255392        1.88730195421700        0.06188083026577
C           -8.36932342221686        2.18617073792656       -0.65948276555381
C           -8.86556979920139        3.47500044972768       -0.67172681103321
C           -8.21886872366367        4.48255463796356        0.02586375990284
C           -7.06908135655384        4.19069964003534        0.74192900867411
C           -6.56762286371491        2.90406061707366        0.76570125347564
C           -4.77519844465631       -0.71639854750413        0.75688357984339
C           -3.41727921871890       -0.93623633209865        0.72700082541403
C           -0.22130343153666        0.75079851712362       -0.04355516275172
C            1.14247985983245        0.57226405890165       -0.08645496132751
C            1.63284148824532       -0.73003715253714       -0.12514528735721
C            4.15356880127049        0.65333804478609       -1.19696124388333
C            5.27520829270207        1.43144260180788       -1.27802253019363
H            8.63632790271480       -0.43617265261445       -0.31247392691477
H           10.80470998106620       -0.98040168109625        0.68799915911408
H           12.27095955295721        0.81231277267886        1.54390577258965
H           11.55265927823392        3.17126659993068        1.36602656220463
H            9.35858850560561        3.72213530940543        0.38261977710726
H            7.05572481074309        0.06078646686284        1.27865470284843
H            5.05029539457970       -1.32754392484334        1.40676901619981
H            4.98747418705683       -3.11062197495245       -0.28754270994359
H            4.47785492833380       -5.52409095538369       -0.22940000782046
H            2.16852111213815       -6.32374082088429       -0.07677293199496
H            0.28066298891766       -4.72865501170750       -0.00712051068641
H           -1.29172103611042       -2.47966383322343       -0.01042263024253
H           -2.49797963234575        1.63325833779834       -1.26180946926943
H           -4.90803236791742        2.02966395874628       -1.21449572610500
H           -6.42383149371088       -1.72632874688391       -1.18661383808504
H           -7.98184665693116       -3.62736625847991       -1.10852128935968
H          -10.05135194614344       -3.48304799024353        0.23080356126750
H          -10.54621256535469       -1.42325687568354        1.49955653420446
H           -8.98133816422479        0.47268510466684        1.43958962050096
H           -8.86758121592755        1.40374832692045       -1.21284438143021
H           -9.75897697291213        3.69555944589212       -1.23661209326656
H           -8.60875373270158        5.48869326915085        0.01196654172939
H           -6.56321519963673        4.96886701926785        1.29368862265367
H           -5.67920818668479        2.67437409480456        1.33539140661894
H           -5.41675069735771       -1.36604910252616        1.33410707919946
H           -3.00530486386531       -1.75480539968458        1.29767287675630
H           -0.61547157982577        1.75439087855632        0.00827416974547
H            1.81317899541656        1.41745616993350       -0.07360072378513
H            3.33318325656151        0.80461353080335       -1.88376330381241
H            5.35331077070082        2.22256537334134       -2.00789917566131

 projected vibrational frequencies (cm⁻¹)
eigval :       -0.00    -0.00    -0.00     0.00     0.00     0.00
eigval :        9.06    11.93    17.07    21.08    31.43    36.24
eigval :       44.33    48.69    52.87    57.63    67.56    72.31
eigval :       81.67    98.67   100.75   112.58   117.71   137.85
eigval :      145.64   161.70   180.85   198.48   207.40   214.58
eigval :      233.33   237.59   265.71   276.01   284.35   306.30
eigval :      314.46   330.68   340.11   351.31   373.10   375.40
eigval :      377.30   379.19   387.56   392.84   393.22   405.00
eigval :      409.89   420.34   426.75   450.00   452.35   459.66
eigval :      485.81   495.39   513.88   523.62   536.87   542.66
eigval :      553.91   578.45   582.23   582.89   587.27   590.96
eigval :      593.43   596.16   603.44   611.53   616.72   643.66
eigval :      650.31   659.78   660.44   666.98   676.75   692.15
eigval :      693.47   708.39   728.13   742.55   751.18   757.75
eigval :      760.78   773.82   801.55   809.67   819.76   832.15
eigval :      842.07   862.62   862.65   871.98   872.04   873.75
eigval :      875.14   883.38   888.62   894.90   895.61   898.76
eigval :      901.62   903.62   909.79   912.88   916.49   919.17
eigval :      920.64   922.35   923.20   927.11   928.38   929.91
eigval :      929.94   930.41   933.61   938.63   978.51   982.21
eigval :     1000.82  1004.41  1006.40  1025.36  1067.06  1069.66
eigval :     1077.56  1082.11  1083.06  1116.82  1118.76  1121.68
eigval :     1123.77  1130.96  1143.29  1152.10  1163.47  1165.11
eigval :     1176.76  1177.76  1180.09  1180.21  1184.22  1187.47
eigval :     1193.83  1196.10  1206.61  1217.06  1223.66  1234.53
eigval :     1244.04  1256.66  1260.17  1271.56  1275.98  1277.00
eigval :     1279.67  1286.69  1295.94  1308.27  1316.92  1322.83
eigval :     1324.25  1326.72  1327.57  1329.35  1347.50  1355.92
eigval :     1365.04  1410.48  1415.02  1417.13  1419.75  1425.68
eigval :     1431.09  1435.18  1441.62  1444.38  1451.90  1456.82
eigval :     1466.09  1468.22  1470.21  1478.49  1492.03  1537.99
eigval :     1545.48  1548.62  1550.39  1557.32  1574.10  1577.75
eigval :     1578.38  1579.24  1587.46  1588.59  1594.30  1602.42
eigval :     3065.51  3070.33  3072.59  3074.60  3080.14  3080.39
eigval :     3080.67  3081.07  3081.39  3081.65  3081.78  3082.92
eigval :     3085.74  3087.69  3087.75  3089.27  3089.84  3090.02
eigval :     3092.77  3092.83  3093.46  3094.16  3095.14  3095.87
eigval :     3098.51  3099.00  3099.96  3100.84  3101.56  3101.89

   temp. (K)  partition function   enthalpy   heat capacity  entropy
                                   cal/mol     cal/K/mol   cal/K/mol   J/K/mol
 298.15  VIB  0.123E+18            21572.240    136.658    134.693
         ROT  0.116E+09              888.752      2.981     39.882
         INT  0.143E+26            22460.993    139.638    174.575
         TR   0.139E+29             1481.254      4.968     44.992
         TOT                       23942.2466   144.6066   219.5670   918.6683

       T/K    H(0)-H(T)+PV         H(T)/Eh          T*S/Eh         G(T)/Eh
   ------------------------------------------------------------------------
    298.15    0.381544E-01    0.622466E+00    0.104323E+00    0.518143E+00
   ------------------------------------------------------------------------

         :::::::::::::::::::::::::::::::::::::::::::::::::::::
         ::                  THERMODYNAMIC                  ::
         :::::::::::::::::::::::::::::::::::::::::::::::::::::
         :: total free energy        -116.705307669468 Eh   ::
         ::.................................................::
         :: total energy             -117.223450429475 Eh   ::
         :: zero point energy           0.584311720283 Eh   ::
         :: G(RRHO) w/o ZPVE           -0.066168960276 Eh   ::
         :: G(RRHO) contrib.            0.518142760007 Eh   ::
         :::::::::::::::::::::::::::::::::::::::::::::::::::::

           -------------------------------------------------
          | TOTAL ENERGY             -117.223450429475 Eh   |
          | TOTAL ENTHALPY           -116.600984310572 Eh   |
          | TOTAL FREE ENERGY        -116.705307669468 Eh   |
          | GRADIENT NORM               0.000086552299 Eh/α |
           -------------------------------------------------

 * finished run on 2025/07/18 at 14:44:17.986
