   * xtb version 6.7.1 (edcfbbe) compiled by 'albert@albert-system' on 2024-07-22

   ID    Z sym.   atoms
    1    8 O      1
    2    6 C      2-12, 14-26, 28-46
    3    7 N      13, 27
    4    1 H      47-76

          program call               : xtb data2507/gas/3TCPM/3TCPM_gas_S0_finalOpt.xtbopt.xyz --gfn 2 --spinpol --tblite --uhf 2 --ohess vtight --parallel 40 --molden --ceasefiles --namespace data2507/gas/3TCPM/3TCPM_gas_T1_preOpt
 * total energy  :  -117.2174213 Eh     change        0.6164123E-07 Eh
 * total energy  :  -117.2209026 Eh     change       -0.3481317E-02 Eh
 * total energy  :  -117.2218717 Eh     change       -0.9690756E-03 Eh
 * total energy  :  -117.2220662 Eh     change       -0.1944757E-03 Eh
 * total energy  :  -117.2222484 Eh     change       -0.1821997E-03 Eh
 * total energy  :  -117.2224152 Eh     change       -0.1668451E-03 Eh
 * total energy  :  -117.2225836 Eh     change       -0.1683577E-03 Eh
 * total energy  :  -117.2227094 Eh     change       -0.1258357E-03 Eh
 * total energy  :  -117.2227833 Eh     change       -0.7385473E-04 Eh
 * total energy  :  -117.2228430 Eh     change       -0.5967485E-04 Eh
 * total energy  :  -117.2233070 Eh     change       -0.7953631E-06 Eh
 * total energy  :  -117.2233077 Eh     change       -0.7458309E-06 Eh
 * total energy  :  -117.2233083 Eh     change       -0.6069158E-06 Eh
 * total energy  :  -117.2233090 Eh     change       -0.6363352E-06 Eh
 * total energy  :  -117.2233093 Eh     change       -0.3537105E-06 Eh
 * total energy  :  -117.2233096 Eh     change       -0.2649028E-06 Eh
 * total energy  :  -117.2233099 Eh     change       -0.2745956E-06 Eh
 * total energy  :  -117.2233101 Eh     change       -0.2212243E-06 Eh
 * total energy  :  -117.2233102 Eh     change       -0.9726608E-07 Eh
   *** GEOMETRY OPTIMIZATION CONVERGED AFTER 67 ITERATIONS ***

 final structure:
================
76
 xtb: 6.7.1 (edcfbbe)
O            8.87920708269875        0.37199453420147       -1.19334569719170
C            7.90983345294300        0.95002641396283       -0.61823651679803
C            8.09627406445898        2.31428161539883       -0.10895374260747
C            9.37101650015754        2.70866530007202        0.31501336920050
C            9.58621801498241        3.99074580439652        0.77419226920480
C            8.54853216022693        4.91090259100150        0.79976394716405
C            7.29337705470785        4.53956320088534        0.34039212208920
C            7.06402468430819        3.25793261916551       -0.11779478957477
C            6.65286597215637        0.27596310779971       -0.44588804019383
C            5.68135804906366        0.64924801996333        0.50853820090347
C            4.50779247518788       -0.04969547592401        0.62565187634584
C            4.25723477790018       -1.16656476302771       -0.18205175105091
N            3.04753970215266       -1.86306896087966       -0.06453580854743
C            2.91379079004607       -3.22820855556097        0.09404105439223
C            3.89530538229714       -4.20188177793632        0.21576645467154
C            3.48580233732494       -5.51144069856533        0.38580009173146
C            2.13578075510435       -5.84942343908197        0.44297184277588
C            1.15370614570752       -4.88050725750058        0.34773154601779
C            1.54000530502017       -3.55944248850563        0.17835512645956
C            0.81807954348840       -2.32125380943715        0.06607356809021
C           -0.52592430115418       -2.00097809384598        0.06713352099727
C           -0.91134860570673       -0.66753839919831       -0.07151319937513
C           -2.32516770470689       -0.30020619715277       -0.05635355358075
C           -2.75483015523776        0.89157388855271        0.53531755285398
C           -4.08609556083102        1.23902306163712        0.55776699016947
C           -5.04668400419613        0.40781800257676       -0.02582989391756
N           -6.39406118837538        0.75937942954931       -0.01193302245074
C           -6.77212808575708        2.10462449417991       -0.10235478071834
C           -7.85615076339177        2.58261840484259        0.63405851045005
C           -8.22905403764950        3.90901306233553        0.53843153564364
C           -7.52869016250910        4.77727985757579       -0.28350871759303
C           -6.45051013613947        4.30713902098729       -1.01593217097277
C           -6.07294762348796        2.98126994301515       -0.93229863119913
C           -7.37957749089716       -0.22969896566781        0.09251914177762
C           -8.57307927890267       -0.11291995366655       -0.62011267694374
C           -9.54502545385466       -1.08797489927035       -0.51026150312602
C           -9.34283855858373       -2.19184741690032        0.30250122708081
C           -8.15834128969442       -2.31265620280676        1.01122630588102
C           -7.18229806878760       -1.34044009479912        0.91320569323583
C           -4.62549683963856       -0.78351203360331       -0.62390931583886
C           -3.29346540010639       -1.12879636342841       -0.63139718981329
C            0.07414536103722        0.32292690162739       -0.23583103370012
C            1.41743068388205        0.02447019268295       -0.25225324185030
C            1.79660139669337       -1.30348944316008       -0.08001247015627
C            5.23875009531667       -1.58566709726600       -1.09090997868657
C            6.41315805530332       -0.89452515196379       -1.20803103430840
H           10.17376785206154        1.98772094707620        0.28791880545403
H           10.57127161810926        4.27783603155690        1.11346014926178
H            8.71934271676940        5.91514078374836        1.15846735772356
H            6.48826907041123        5.26089582309965        0.32736615458881
H            6.09560723393550        2.99588158275283       -0.51765530602425
H            5.87834976253861        1.46867799345618        1.18255605355000
H            3.78050726991883        0.23153614684255        1.37421889201268
H            4.94281750861859       -3.94474938475102        0.19157090109243
H            4.22918032514425       -6.28859716455453        0.48115506998657
H            1.85580191609144       -6.88393240940526        0.57433349311798
H            0.10820882381500       -5.14281234430751        0.40900126285031
H           -1.26738046166615       -2.77384011561583        0.20181865961161
H           -2.03498820986089        1.53542905425920        1.01772386765700
H           -4.39946403496823        2.15186522804271        1.04277650860993
H           -8.39549742543724        1.90908492417371        1.28376204437622
H           -9.06733789077496        4.26877671537693        1.11615784265799
H           -7.82168697912502        5.81352338017054       -0.35336931164053
H           -5.90414540609174        4.97575999704597       -1.66428059395247
H           -5.24107961893689        2.61242594389520       -1.51413545978258
H           -8.72674420461741        0.74156263824295       -1.26265979215118
H          -10.46327380471729       -0.98900101174864       -1.06966324334971
H          -10.10380954974176       -2.95269191295301        0.38362724554444
H           -7.99626989406028       -3.16619885155160        1.65245654815129
H           -6.26510789076164       -1.42828271858630        1.47680926165106
H           -5.35406080122319       -1.42518521372051       -1.09739727276366
H           -2.98891834811810       -2.03902953716948       -1.12562142812615
H           -0.23706897058101        1.34533781289705       -0.38839807384388
H            2.15560170407358        0.79582889990685       -0.40903100128903
H            5.04418426008328       -2.44168972010100       -1.72075135217044
H            7.17323745915285       -1.20277039646796       -1.90939323916787

 projected vibrational frequencies (cm⁻¹)
eigval :       -0.00    -0.00    -0.00     0.00     0.00     0.00
eigval :        9.60    11.74    15.34    23.50    27.83    34.87
eigval :       46.58    49.56    54.41    62.33    65.91    71.84
eigval :       79.45    98.94   101.11   112.28   116.73   134.08
eigval :      148.03   161.29   177.61   200.56   208.02   214.91
eigval :      233.70   241.55   260.46   275.46   284.17   306.99
eigval :      317.86   328.81   337.19   354.66   368.69   374.76
eigval :      377.49   379.10   387.70   391.96   395.95   404.02
eigval :      412.79   417.91   429.85   447.19   451.01   461.12
eigval :      485.71   495.42   514.19   521.89   539.19   542.48
eigval :      551.22   578.22   582.45   582.74   587.26   591.25
eigval :      594.35   597.40   599.41   615.07   617.11   638.32
eigval :      655.47   658.96   659.89   666.93   676.84   692.01
eigval :      693.12   708.48   727.30   742.65   751.19   757.73
eigval :      760.73   773.94   802.07   809.71   818.63   831.96
eigval :      841.45   862.56   863.45   872.16   872.34   873.79
eigval :      875.15   882.61   887.98   894.83   895.59   899.14
eigval :      901.02   905.81   909.70   911.11   916.36   918.88
eigval :      920.05   922.74   923.67   927.13   928.34   929.83
eigval :      929.90   930.49   933.48   938.45   978.35   982.27
eigval :     1000.86  1004.40  1006.37  1025.06  1067.45  1069.41
eigval :     1077.31  1081.84  1082.85  1116.51  1118.71  1121.42
eigval :     1123.49  1131.26  1143.12  1151.15  1163.93  1164.95
eigval :     1176.47  1177.45  1179.92  1180.03  1184.21  1187.41
eigval :     1193.65  1195.74  1206.22  1216.47  1223.42  1233.85
eigval :     1243.67  1256.49  1259.66  1271.24  1275.67  1276.87
eigval :     1279.49  1286.26  1297.27  1308.13  1316.74  1322.79
eigval :     1324.57  1326.62  1327.69  1329.59  1348.53  1353.04
eigval :     1364.20  1409.06  1414.76  1416.70  1419.51  1425.73
eigval :     1430.96  1435.08  1441.59  1443.88  1452.24  1456.23
eigval :     1466.21  1468.31  1470.58  1478.41  1492.58  1538.71
eigval :     1544.84  1548.64  1551.01  1558.09  1574.02  1577.25
eigval :     1577.97  1578.60  1587.11  1588.44  1594.35  1602.34
eigval :     3064.80  3070.66  3071.36  3076.42  3080.33  3080.57
eigval :     3080.82  3081.07  3081.53  3081.80  3081.88  3082.92
eigval :     3086.34  3086.91  3087.59  3089.31  3089.78  3090.10
eigval :     3092.50  3093.04  3093.82  3094.53  3095.01  3095.49
eigval :     3098.82  3099.10  3099.41  3101.72  3101.77  3101.89

   temp. (K)  partition function   enthalpy   heat capacity  entropy
                                   cal/mol     cal/K/mol   cal/K/mol   J/K/mol
 298.15  VIB  0.126E+18            21576.789    136.743    134.782
         ROT  0.123E+09              888.752      2.981     40.003
         INT  0.155E+26            22465.541    139.724    174.785
         TR   0.139E+29             1481.254      4.968     44.992
         TOT                       23946.7948   144.6922   219.7771   919.5473

       T/K    H(0)-H(T)+PV         H(T)/Eh          T*S/Eh         G(T)/Eh
   ------------------------------------------------------------------------
    298.15    0.381616E-01    0.622431E+00    0.104423E+00    0.518008E+00
   ------------------------------------------------------------------------

         :::::::::::::::::::::::::::::::::::::::::::::::::::::
         ::                  THERMODYNAMIC                  ::
         :::::::::::::::::::::::::::::::::::::::::::::::::::::
         :: total free energy        -116.705302087071 Eh   ::
         ::.................................................::
         :: total energy             -117.223310278932 Eh   ::
         :: zero point energy           0.584269731746 Eh   ::
         :: G(RRHO) w/o ZPVE           -0.066261539885 Eh   ::
         :: G(RRHO) contrib.            0.518008191861 Eh   ::
         :::::::::::::::::::::::::::::::::::::::::::::::::::::

           -------------------------------------------------
          | TOTAL ENERGY             -117.223310278932 Eh   |
          | TOTAL ENTHALPY           -116.600878900613 Eh   |
          | TOTAL FREE ENERGY        -116.705302087071 Eh   |
          | GRADIENT NORM               0.000034970419 Eh/α |
           -------------------------------------------------

 * finished run on 2025/07/18 at 14:35:56.089
