   * xtb version 6.7.1 (edcfbbe) compiled by 'albert@albert-system' on 2024-07-22

   ID    Z sym.   atoms
    1    8 O      1
    2    6 C      2-12, 14-26, 28-46
    3    7 N      13, 27
    4    1 H      47-76

          program call               : xtb data2507/gas/3TCPM/3TCPM.xyz --gfn 2 --ohess vtight --parallel 40 --molden --ceasefiles --namespace data2507/gas/3TCPM/3TCPM_gas_S0_preOpt
          :  Hamiltonian                  GFN2-xTB          :
 * total energy  :  -117.2838506 Eh     change       -0.2013465E-08 Eh
 * total energy  :  -117.2971799 Eh     change       -0.1332933E-01 Eh
 * total energy  :  -117.3015627 Eh     change       -0.4382796E-02 Eh
 * total energy  :  -117.3030345 Eh     change       -0.1471870E-02 Eh
 * total energy  :  -117.3039902 Eh     change       -0.9556518E-03 Eh
 * total energy  :  -117.3044053 Eh     change       -0.4150609E-03 Eh
 * total energy  :  -117.3046579 Eh     change       -0.2526802E-03 Eh
 * total energy  :  -117.3048849 Eh     change       -0.2269666E-03 Eh
 * total energy  :  -117.3050565 Eh     change       -0.1716012E-03 Eh
 * total energy  :  -117.3051547 Eh     change       -0.9817541E-04 Eh
 * total energy  :  -117.3055764 Eh     change       -0.1001705E-05 Eh
 * total energy  :  -117.3055772 Eh     change       -0.8143354E-06 Eh
 * total energy  :  -117.3055780 Eh     change       -0.7453695E-06 Eh
 * total energy  :  -117.3055785 Eh     change       -0.5553551E-06 Eh
 * total energy  :  -117.3055788 Eh     change       -0.2582665E-06 Eh
 * total energy  :  -117.3055789 Eh     change       -0.1513650E-06 Eh
 * total energy  :  -117.3055791 Eh     change       -0.1548429E-06 Eh
 * total energy  :  -117.3055792 Eh     change       -0.1431733E-06 Eh
 * total energy  :  -117.3055792 Eh     change       -0.8236285E-08 Eh
   *** GEOMETRY OPTIMIZATION CONVERGED AFTER 57 ITERATIONS ***

 final structure:
================
76
 xtb: 6.7.1 (edcfbbe)
O            7.54365126164882        3.59063577283291        0.67896329344278
C            7.67502774513851        2.42539847259216        0.35887272869561
C            9.00404373642301        1.85982797019350        0.01019540593546
C            9.35540196575207        0.55247515081167        0.33937873111184
C           10.61637698250446        0.07649264024308        0.03020326959514
C           11.53163177501827        0.89319820847148       -0.61454310809212
C           11.19222964417508        2.19823731373706       -0.93406515042107
C            9.93890672873018        2.68337290980535       -0.61314190292295
C            6.51588012656956        1.50225290202688        0.29939785521744
C            5.43302301270091        1.73313713142054        1.14756360699391
C            4.32810083872684        0.91027054663760        1.12026170784827
C            4.27029890238807       -0.14947715234340        0.21479376020456
N            3.15192416539574       -0.98306234828369        0.17641923342254
C            3.17173502042231       -2.36657739505865        0.16323024014050
C            4.24920500523752       -3.23738723891427        0.23317318596515
C            3.98432646770302       -4.59402409715231        0.23591183047183
C            2.68088836534954       -5.08107340356793        0.18143082349337
C            1.60314672809348       -4.21895851618063        0.14054596797616
C            1.84479431175561       -2.85209396974605        0.13654319601872
C            0.98676697248815       -1.69918172758218        0.12387172096067
C           -0.38942668301498       -1.54332605682997        0.07712198713365
C           -0.92760211173724       -0.26246862071556        0.05610917583260
C           -2.38241293413631       -0.06688573524451        0.01922186448855
C           -2.98949322594874        0.94339934857212        0.76384049437278
C           -4.35612792663197        1.12296581270715        0.74089374326774
C           -5.16457767346565        0.30093989741211       -0.04454392535679
N           -6.55047082465007        0.48300704503014       -0.07553630510232
C           -7.08829077201905        1.77369433869906       -0.02315956308204
C           -8.26798907219019        2.02075500614607        0.67886703815348
C           -8.79745772441756        3.29560859998844        0.72365000273052
C           -8.15988328090754        4.34400101200792        0.08068661140975
C           -6.98545540527393        4.10508234611268       -0.61401578251062
C           -6.45256828413885        2.83219344934000       -0.67204004676527
C           -7.39935218180494       -0.62617473730906       -0.15917325113442
C           -8.56963305327619       -0.56653223362914       -0.91574809433194
C           -9.40625428439338       -1.66286356065485       -0.99145159732886
C           -9.08953861673292       -2.83551625148802       -0.32541695435301
C           -7.92621848545387       -2.90164272379511        0.42378739834239
C           -7.08736875093659       -1.80805692379967        0.51277071923791
C           -4.56268652876255       -0.70694302379880       -0.79839722728302
C           -3.19679543204257       -0.88865441005672       -0.75868493723837
C           -0.06953774809449        0.84605772676460        0.05835612267428
C            1.30321504212565        0.71320087017917        0.09900927663378
C            1.83240948725153       -0.56807948969895        0.15507840121626
C            5.33704542504295       -0.36472615558026       -0.65803650032164
C            6.45100768283708        0.44738772971801       -0.61018293535607
H            8.65038907408650       -0.08000473978665        0.85929826767342
H           10.88782594194572       -0.93524712101652        0.29381253185533
H           12.51259939256416        0.51409577884173       -0.86053288065968
H           11.90840517595922        2.83805826505918       -1.42793119583657
H            9.65994800026241        3.70055541694601       -0.84479156091383
H            5.48749172705847        2.55986564795456        1.84000634654121
H            3.51025999131995        1.06923688474422        1.80653491905826
H            5.26335717259502       -2.87302812182569        0.29729901585553
H            4.80741677767195       -5.29147987659663        0.28575256133953
H            2.51557196875762       -6.14809484649096        0.18256902558699
H            0.59146942234351       -4.59478973662885        0.11821643654714
H           -1.03407108884135       -2.40908803611965        0.07474689283140
H           -2.38386628752813        1.57741020824150        1.39471620576742
H           -4.81087839827080        1.89968760297337        1.33838498255290
H           -8.76206114496129        1.20716509498338        1.18969563201265
H           -9.71071524115151        3.47305534218540        1.27254740372343
H           -8.57510551429627        5.33956654782639        0.12073897731979
H           -6.48397068737447        4.91516248404192       -1.12306735392718
H           -5.54228902581601        2.64685333108089       -1.22337449849602
H           -8.81421589281595        0.34328035130406       -1.44430744994985
H          -10.30837200709463       -1.60344554497406       -1.58260495907598
H           -9.74435672125219       -3.69124056048758       -0.38970983174056
H           -7.67361658447683       -3.80989209706466        0.95119390672522
H           -6.18614821886243       -1.85900365157162        1.10617669720583
H           -5.17622823867061       -1.34208551638866       -1.42072144639264
H           -2.74848525494248       -1.66150817128026       -1.36571266982761
H           -0.49799644520220        1.83556915203366        0.00032739768813
H            1.94033723177373        1.58412276516774        0.07047666215750
H            5.27395140773047       -1.15916722137294       -1.38638546454206
H            7.26145307403525        0.28450193820234       -1.30536966247331

          :  Hamiltonian                  GFN2-xTB          :
         :: gradient norm              0.000076402026 Eh/a0 ::
         :: HOMO-LUMO gap              1.562900695678 eV    ::
         :: SCC energy              -119.491030457580 Eh    ::
         :: -> dispersion             -0.101543315881 Eh    ::
         :: repulsion energy           2.185451222613 Eh    ::

    * Orbital Energies and Occupations

         #    Occupation            Energy/Eh            Energy/eV
      -------------------------------------------------------------
         1        2.0000           -0.7032243             -19.1357
       ...           ...                  ...                  ...
        97        2.0000           -0.4174125             -11.3584
        98        2.0000           -0.4163800             -11.3303
        99        2.0000           -0.4160025             -11.3200
       100        2.0000           -0.4102432             -11.1633
       101        2.0000           -0.4062116             -11.0536
       102        2.0000           -0.4055043             -11.0343
       103        2.0000           -0.4031201             -10.9695
       104        2.0000           -0.4020791             -10.9411
       105        2.0000           -0.3971211             -10.8062
       106        2.0000           -0.3896343             -10.6025
       107        2.0000           -0.3811855             -10.3726
       108        2.0000           -0.3665585              -9.9746
       109        2.0000           -0.3455268              -9.4023 (HOMO)
       110                         -0.2880913              -7.8394 (LUMO)
       111                         -0.2488616              -6.7719
       112                         -0.2436452              -6.6299
       113                         -0.2412884              -6.5658
       114                         -0.2391223              -6.5069
       115                         -0.2348360              -6.3902
       116                         -0.2286014              -6.2206
       117                         -0.2252462              -6.1293
       118                         -0.2199537              -5.9852
       119                         -0.2190454              -5.9605
       120                         -0.2176604              -5.9228
       ...                                ...                  ...
       214                          0.7449736              20.2718
      -------------------------------------------------------------
                  HL-Gap            0.0574355 Eh            1.5629 eV

     #   Z          covCN         q      C6AA      α(0)
     1   8 O        0.858    -0.371    21.107     6.160
     2   6 C        2.828     0.225    23.271     7.905
     3   6 C        2.973    -0.011    28.288     8.724
     4   6 C        2.921    -0.027    28.668     8.780
     5   6 C        2.918    -0.028    28.689     8.783
     6   6 C        2.920    -0.023    28.590     8.768
     7   6 C        2.918    -0.026    28.663     8.779
     8   6 C        2.925    -0.018    28.449     8.747
     9   6 C        2.972    -0.016    28.415     8.744
    10   6 C        2.924    -0.018    28.451     8.747
    11   6 C        2.920    -0.043    29.057     8.840
    12   6 C        2.913     0.071    26.421     8.429
    13   7 N        2.802    -0.041    22.022     6.970
    14   6 C        3.072     0.046    26.890     8.502
    15   6 C        2.910    -0.051    29.256     8.869
    16   6 C        2.924    -0.033    28.824     8.804
    17   6 C        2.920    -0.040    28.989     8.829
    18   6 C        2.913    -0.032    28.802     8.800
    19   6 C        3.068    -0.015    28.325     8.727
    20   6 C        3.064    -0.016    28.355     8.732
    21   6 C        2.918    -0.038    28.952     8.824
    22   6 C        2.976     0.001    27.994     8.679
    23   6 C        2.976     0.002    27.983     8.677
    24   6 C        2.924    -0.035    28.876     8.812
    25   6 C        2.920    -0.049    29.213     8.863
    26   6 C        2.924     0.063    26.597     8.457
    27   7 N        2.752    -0.075    22.705     7.077
    28   6 C        2.924     0.065    26.539     8.448
    29   6 C        2.922    -0.048    29.186     8.859
    30   6 C        2.920    -0.029    28.734     8.790
    31   6 C        2.919    -0.039    28.961     8.825
    32   6 C        2.920    -0.029    28.734     8.790
    33   6 C        2.922    -0.048    29.184     8.859
    34   6 C        2.924     0.065    26.537     8.448
    35   6 C        2.922    -0.048    29.185     8.859
    36   6 C        2.920    -0.029    28.734     8.790
    37   6 C        2.919    -0.039    28.963     8.825
    38   6 C        2.920    -0.029    28.735     8.791
    39   6 C        2.922    -0.048    29.184     8.859
    40   6 C        2.920    -0.049    29.213     8.863
    41   6 C        2.924    -0.035    28.875     8.812
    42   6 C        2.929    -0.038    28.941     8.823
    43   6 C        2.908    -0.051    29.269     8.871
    44   6 C        3.073     0.044    26.933     8.509
    45   6 C        2.921    -0.043    29.070     8.842
    46   6 C        2.920    -0.026    28.662     8.779
    47   1 H        0.926     0.035     2.517     2.481
    48   1 H        0.926     0.037     2.495     2.470
    49   1 H        0.926     0.038     2.477     2.461
    50   1 H        0.926     0.039     2.456     2.451
    51   1 H        0.926     0.054     2.274     2.358
    52   1 H        0.926     0.060     2.202     2.321
    53   1 H        0.926     0.048     2.341     2.393
    54   1 H        0.926     0.027     2.629     2.536
    55   1 H        0.926     0.030     2.584     2.514
    56   1 H        0.926     0.030     2.590     2.517
    57   1 H        0.926     0.033     2.549     2.497
    58   1 H        0.926     0.034     2.525     2.485
    59   1 H        0.926     0.033     2.548     2.496
    60   1 H        0.926     0.031     2.568     2.506
    61   1 H        0.926     0.031     2.569     2.507
    62   1 H        0.926     0.031     2.574     2.509
    63   1 H        0.926     0.030     2.591     2.517
    64   1 H        0.926     0.031     2.572     2.508
    65   1 H        0.926     0.031     2.566     2.505
    66   1 H        0.926     0.031     2.568     2.506
    67   1 H        0.926     0.031     2.574     2.509
    68   1 H        0.926     0.030     2.593     2.518
    69   1 H        0.926     0.031     2.575     2.509
    70   1 H        0.926     0.031     2.566     2.505
    71   1 H        0.926     0.031     2.571     2.507
    72   1 H        0.926     0.033     2.549     2.497
    73   1 H        0.926     0.034     2.531     2.488
    74   1 H        0.926     0.031     2.578     2.511
    75   1 H        0.926     0.046     2.373     2.409
    76   1 H        0.926     0.041     2.431     2.438

molecular dipole:
                 x           y           z       tot (Debye)
 q only:        0.229      -0.962      -0.314
   full:        0.323      -1.075      -0.356       2.994

 projected vibrational frequencies (cm⁻¹)
eigval :       -0.00    -0.00    -0.00     0.00     0.00     0.00
eigval :        8.85    11.91    15.76    20.75    28.81    35.73
eigval :       41.84    47.21    51.97    54.86    65.48    72.26
eigval :       80.80    92.61   100.19   112.09   113.39   138.28
eigval :      148.22   159.51   173.17   187.92   204.74   209.91
eigval :      233.28   236.65   266.07   275.98   279.70   308.55
eigval :      316.71   345.68   351.07   359.41   368.41   377.80
eigval :      378.29   380.06   386.70   388.80   392.93   401.21
eigval :      410.85   422.94   436.11   458.30   464.48   476.00
eigval :      487.38   492.55   514.25   535.28   549.98   551.18
eigval :      582.00   583.01   586.76   589.86   592.45   595.41
eigval :      600.73   610.16   619.72   622.70   638.07   659.51
eigval :      660.61   669.12   674.85   678.71   692.24   694.69
eigval :      708.71   714.04   731.64   751.11   756.86   760.79
eigval :      774.71   776.30   808.75   817.79   830.60   833.78
eigval :      868.13   870.03   874.45   876.18   877.46   879.37
eigval :      883.12   891.55   892.24   900.40   903.01   903.73
eigval :      909.93   911.09   911.80   918.45   921.55   925.54
eigval :      927.40   927.56   928.78   929.10   929.78   930.48
eigval :      932.21   934.53   938.54   949.68   983.59   995.21
eigval :     1005.01  1009.23  1024.56  1028.95  1072.96  1076.46
eigval :     1080.83  1083.34  1084.31  1119.40  1122.00  1123.46
eigval :     1124.39  1134.46  1142.90  1158.56  1175.25  1179.13
eigval :     1180.78  1180.87  1181.12  1181.81  1187.37  1193.25
eigval :     1195.86  1198.19  1206.93  1216.91  1223.17  1244.66
eigval :     1260.75  1262.67  1264.60  1272.42  1277.60  1278.95
eigval :     1281.96  1288.74  1309.29  1314.85  1320.77  1321.31
eigval :     1323.39  1326.84  1327.46  1333.88  1349.92  1360.78
eigval :     1373.63  1406.54  1410.22  1422.29  1429.82  1430.90
eigval :     1436.54  1443.55  1462.94  1466.86  1472.84  1477.11
eigval :     1483.04  1488.94  1502.23  1554.80  1557.67  1569.93
eigval :     1577.17  1580.70  1581.08  1583.42  1586.13  1592.08
eigval :     1593.74  1595.28  1598.97  1602.69  1614.62  1691.62
eigval :     3074.42  3075.03  3075.40  3075.72  3076.45  3076.61
eigval :     3077.65  3077.81  3079.17  3082.26  3082.40  3083.38
eigval :     3085.47  3085.56  3086.34  3087.54  3088.69  3089.18
eigval :     3089.61  3089.92  3090.63  3091.89  3092.09  3094.36
eigval :     3096.20  3096.78  3097.25  3097.33  3097.57  3100.51

   temp. (K)  partition function   enthalpy   heat capacity  entropy
                                   cal/mol     cal/K/mol   cal/K/mol   J/K/mol
 298.15  VIB  0.182E+18            21449.278    135.096    134.440
         ROT  0.114E+09              888.752      2.981     39.852
         INT  0.208E+26            22338.030    138.077    174.293
         TR   0.139E+29             1481.254      4.968     44.992
         TOT                       23819.2839   143.0453   219.2845   917.4862

       T/K    H(0)-H(T)+PV         H(T)/Eh          T*S/Eh         G(T)/Eh
   ------------------------------------------------------------------------
    298.15    0.379584E-01    0.625398E+00    0.104189E+00    0.521209E+00
   ------------------------------------------------------------------------

         :::::::::::::::::::::::::::::::::::::::::::::::::::::
         ::                  THERMODYNAMIC                  ::
         :::::::::::::::::::::::::::::::::::::::::::::::::::::
         :: total free energy        -116.784370057593 Eh   ::
         ::.................................................::
         :: total energy             -117.305579234967 Eh   ::
         :: zero point energy           0.587439852063 Eh   ::
         :: G(RRHO) w/o ZPVE           -0.066230674689 Eh   ::
         :: G(RRHO) contrib.            0.521209177374 Eh   ::
         :::::::::::::::::::::::::::::::::::::::::::::::::::::

           -------------------------------------------------
          | TOTAL ENERGY             -117.305579234967 Eh   |
          | TOTAL ENTHALPY           -116.680180937790 Eh   |
          | TOTAL FREE ENERGY        -116.784370057593 Eh   |
          | GRADIENT NORM               0.000076318779 Eh/α |
          | HOMO-LUMO GAP               1.562900148759 eV   |
           -------------------------------------------------

 * finished run on 2025/07/18 at 14:30:56.598
