   * xtb version 6.7.1 (edcfbbe) compiled by 'albert@albert-system' on 2024-07-22

   ID    Z sym.   atoms
    1    8 O      1
    2    6 C      2-12, 14-26, 28-46
    3    7 N      13, 27
    4    1 H      47-76

          program call               : xtb data2507/gas/3TCPM/3TCPM_gas_S0_crest.xyz --gfn 2 --ohess vtight --parallel 40 --molden --ceasefiles --namespace data2507/gas/3TCPM/3TCPM_gas_S0_finalOpt
          :  Hamiltonian                  GFN2-xTB          :
 * total energy  :  -117.3055678 Eh     change       -0.2110468E-08 Eh
 * total energy  :  -117.3055688 Eh     change       -0.1038877E-05 Eh
 * total energy  :  -117.3055688 Eh     change        0.6336491E-07 Eh
 * total energy  :  -117.3055701 Eh     change       -0.1358938E-05 Eh
 * total energy  :  -117.3055714 Eh     change       -0.1292417E-05 Eh
 * total energy  :  -117.3055725 Eh     change       -0.1114279E-05 Eh
 * total energy  :  -117.3055739 Eh     change       -0.1394730E-05 Eh
 * total energy  :  -117.3055752 Eh     change       -0.1284424E-05 Eh
 * total energy  :  -117.3055761 Eh     change       -0.8535289E-06 Eh
 * total energy  :  -117.3055762 Eh     change       -0.1403920E-06 Eh
 * total energy  :  -117.3055785 Eh     change       -0.5042573E-06 Eh
 * total energy  :  -117.3055789 Eh     change       -0.4429764E-06 Eh
 * total energy  :  -117.3055793 Eh     change       -0.4150228E-06 Eh
 * total energy  :  -117.3055798 Eh     change       -0.4184357E-06 Eh
 * total energy  :  -117.3055802 Eh     change       -0.4173494E-06 Eh
 * total energy  :  -117.3055806 Eh     change       -0.4410816E-06 Eh
 * total energy  :  -117.3055811 Eh     change       -0.4678969E-06 Eh
 * total energy  :  -117.3055815 Eh     change       -0.4333288E-06 Eh
 * total energy  :  -117.3055815 Eh     change       -0.5409163E-08 Eh
   *** GEOMETRY OPTIMIZATION CONVERGED AFTER 22 ITERATIONS ***

 final structure:
================
76
 xtb: 6.7.1 (edcfbbe)
O            9.03574047456758        0.25783946950295       -0.65091933613197
C            8.02220249919156        0.85684266174757       -0.34873179089002
C            8.03525025433279        2.31620267658202       -0.06914753835335
C            9.16745481666895        2.87504138575411        0.51948522467441
C            9.22365755494326        4.23184974555078        0.77469507605338
C            8.15928198375432        5.04669591489256        0.42320219407810
C            7.04090880897311        4.50200248720230       -0.18743903773509
C            6.97328715502289        3.14238857868567       -0.43055478632045
C            6.71419127889077        0.16584979102944       -0.24444946027630
C            5.72929941508803        0.57041822604372        0.65588470365747
C            4.53951332236681       -0.12163810703882        0.74517454872794
C            4.30214224179299       -1.22388731558903       -0.07640221127183
N            3.08878468082582       -1.90848797062120        0.00182045365269
C            2.93353168573486       -3.28104483046193        0.08992379180929
C            3.89513161653427       -4.27621701076553        0.18541696477695
C            3.46141696761542       -5.58376292592769        0.29847286309675
C            2.10576270565152       -5.90131666511171        0.32735497491490
C            1.14442621734207       -4.91246722594679        0.26220459257807
C            1.55625668222808       -3.59170110274857        0.14832679039773
C            0.85058921130535       -2.34132244754044        0.08370506166140
C           -0.49551377222455       -2.01250905985823        0.07673942484654
C           -0.86821222974602       -0.67708533200679       -0.01510860945294
C           -2.28677527674018       -0.29791266199587       -0.01430492249614
C           -2.72899002158033        0.82481840399011        0.68381445476768
C           -4.06120398150513        1.17916705465269        0.69369661607420
C           -4.99908511311007        0.42533652000918       -0.01235053742640
N           -6.34965724196857        0.78598517446074       -0.01247570093733
C           -6.71441396436260        2.13678464165805       -0.01891874321573
C           -7.82523263999486        2.57267580417192        0.70337604044136
C           -8.18449800425541        3.90620497888222        0.69062097217681
C           -7.44240543467522        4.82669636458656       -0.03121095355149
C           -6.33578274294030        4.39989549711466       -0.74690870841924
C           -5.97331736846797        3.06715633279340       -0.74750227554862
C           -7.33832480371141       -0.20456082417510       -0.00709915426289
C           -8.51511901688648       -0.03309940265954       -0.73587267484640
C           -9.48977802503446       -1.01163217313553       -0.72433536193228
C           -9.30697330077728       -2.17644409196505        0.00287324804666
C           -8.13818135485511       -2.35364143770549        0.72504319608024
C           -7.16113830554012       -1.37742601096827        0.72666913303374
C           -4.56208983649271       -0.69581568774174       -0.71849223341236
C           -3.23036967555844       -1.05175450225546       -0.71060328915156
C            0.12171233885262        0.30939126558260       -0.12212701362108
C            1.46708188690873        0.00307013372970       -0.12429359320518
C            1.83289429916020       -1.32929157578280        0.00136930269563
C            5.28899210943834       -1.63719314310280       -0.97163802898183
C            6.48541032555648       -0.95686354881579       -1.03969361258954
H            9.99123958885452        2.22597149808740        0.77681805017326
H           10.09930938653825        4.65723554882116        1.24209038643590
H            8.20400904058240        6.10821496747397        0.61741774717078
H            6.21879449125243        5.14046046982425       -0.47603698399459
H            6.10835090961922        2.72299809399602       -0.92389981591913
H            5.91032978431433        1.40934989595118        1.31169609618712
H            3.79196223603194        0.17212118183949        1.46659305777904
H            4.94881223240928       -4.04222955283177        0.18678275611928
H            4.19144824824898       -6.37625408874307        0.37053410222116
H            1.80750916557763       -6.93546734189548        0.41361312642406
H            0.09343648541771       -5.15515390379804        0.30501040419441
H           -1.24391779898712       -2.78590670261424        0.15941021245644
H           -2.02205334086991        1.41062859038013        1.25300332473637
H           -4.38836207855152        2.04204981692168        1.25541782562836
H           -8.40003638952917        1.85875891261296        1.27511529178712
H           -9.04593342939140        4.23021212450962        1.25608175866831
H           -7.72449576770496        5.86860749472734       -0.03610405462117
H           -5.75438635907121        5.10933295235359       -1.31751779567065
H           -5.11619915796216        2.73544749242610       -1.31519225467261
H           -8.65597337820987        0.87000216598614       -1.31168218252695
H          -10.39540931226678       -0.86687240965488       -1.29500116199513
H          -10.06969250847983       -2.94025054184771        0.00677057887092
H           -7.98921174491319       -3.25605045622397        1.29977420836956
H           -6.25506960234680       -1.51357053237291        1.29889645940075
H           -5.27624000881599       -1.28117185834909       -1.27921632114174
H           -2.90933431298659       -1.91148955261743       -1.28029179106762
H           -0.18114415064317        1.34011682473360       -0.23250783291549
H            2.20716999162980        0.78097772332264       -0.23710467546573
H            5.10157021275599       -2.48043335144361       -1.61890357570127
H            7.25904475917899       -1.26975752557807       -1.72488795404222

          :  Hamiltonian                  GFN2-xTB          :
         :: gradient norm              0.000049839488 Eh/a0 ::
         :: HOMO-LUMO gap              1.588278517994 eV    ::
         :: SCC energy              -119.491086616557 Eh    ::
         :: -> dispersion             -0.101561933967 Eh    ::
         :: repulsion energy           2.185505096305 Eh    ::

    * Orbital Energies and Occupations

         #    Occupation            Energy/Eh            Energy/eV
      -------------------------------------------------------------
         1        2.0000           -0.7032348             -19.1360
       ...           ...                  ...                  ...
        97        2.0000           -0.4171695             -11.3518
        98        2.0000           -0.4165968             -11.3362
        99        2.0000           -0.4163462             -11.3294
       100        2.0000           -0.4106832             -11.1753
       101        2.0000           -0.4071884             -11.0802
       102        2.0000           -0.4064756             -11.0608
       103        2.0000           -0.4040861             -10.9957
       104        2.0000           -0.4030349             -10.9671
       105        2.0000           -0.3976342             -10.8202
       106        2.0000           -0.3895933             -10.6014
       107        2.0000           -0.3812566             -10.3745
       108        2.0000           -0.3667237              -9.9791
       109        2.0000           -0.3464222              -9.4266 (HOMO)
       110                         -0.2880540              -7.8383 (LUMO)
       111                         -0.2488720              -6.7722
       112                         -0.2441148              -6.6427
       113                         -0.2412291              -6.5642
       114                         -0.2392495              -6.5103
       115                         -0.2348270              -6.3900
       116                         -0.2295832              -6.2473
       117                         -0.2262199              -6.1558
       118                         -0.2209198              -6.0115
       119                         -0.2199957              -5.9864
       120                         -0.2177986              -5.9266
       ...                                ...                  ...
       214                          0.7449044              20.2699
      -------------------------------------------------------------
                  HL-Gap            0.0583682 Eh            1.5883 eV

     #   Z          covCN         q      C6AA      α(0)
     1   8 O        0.858    -0.371    21.105     6.159
     2   6 C        2.828     0.225    23.271     7.905
     3   6 C        2.973    -0.011    28.288     8.724
     4   6 C        2.925    -0.018    28.449     8.747
     5   6 C        2.918    -0.026    28.663     8.779
     6   6 C        2.920    -0.023    28.591     8.768
     7   6 C        2.918    -0.028    28.689     8.783
     8   6 C        2.921    -0.027    28.668     8.780
     9   6 C        2.972    -0.016    28.415     8.744
    10   6 C        2.920    -0.026    28.662     8.779
    11   6 C        2.921    -0.043    29.070     8.842
    12   6 C        2.913     0.071    26.421     8.429
    13   7 N        2.802    -0.040    22.022     6.970
    14   6 C        3.072     0.046    26.885     8.502
    15   6 C        2.910    -0.050    29.247     8.868
    16   6 C        2.924    -0.033    28.810     8.802
    17   6 C        2.920    -0.040    28.982     8.828
    18   6 C        2.913    -0.032    28.804     8.801
    19   6 C        3.068    -0.016    28.330     8.728
    20   6 C        3.064    -0.016    28.349     8.731
    21   6 C        2.918    -0.038    28.950     8.823
    22   6 C        2.976     0.001    28.001     8.680
    23   6 C        2.976     0.002    27.986     8.678
    24   6 C        2.924    -0.035    28.879     8.813
    25   6 C        2.920    -0.049    29.218     8.864
    26   6 C        2.924     0.063    26.597     8.457
    27   7 N        2.752    -0.075    22.706     7.077
    28   6 C        2.924     0.065    26.538     8.448
    29   6 C        2.922    -0.048    29.185     8.859
    30   6 C        2.920    -0.029    28.734     8.790
    31   6 C        2.919    -0.039    28.963     8.825
    32   6 C        2.920    -0.029    28.736     8.791
    33   6 C        2.922    -0.048    29.185     8.859
    34   6 C        2.924     0.065    26.539     8.448
    35   6 C        2.922    -0.048    29.183     8.859
    36   6 C        2.920    -0.029    28.733     8.790
    37   6 C        2.919    -0.039    28.959     8.825
    38   6 C        2.920    -0.029    28.734     8.790
    39   6 C        2.922    -0.048    29.181     8.859
    40   6 C        2.920    -0.049    29.214     8.864
    41   6 C        2.924    -0.035    28.874     8.812
    42   6 C        2.929    -0.038    28.954     8.825
    43   6 C        2.908    -0.051    29.277     8.872
    44   6 C        3.073     0.044    26.938     8.510
    45   6 C        2.920    -0.043    29.058     8.840
    46   6 C        2.924    -0.018    28.451     8.747
    47   1 H        0.926     0.054     2.275     2.358
    48   1 H        0.926     0.039     2.456     2.451
    49   1 H        0.926     0.038     2.477     2.461
    50   1 H        0.926     0.037     2.495     2.470
    51   1 H        0.926     0.035     2.517     2.481
    52   1 H        0.926     0.041     2.431     2.438
    53   1 H        0.926     0.046     2.372     2.409
    54   1 H        0.926     0.030     2.580     2.512
    55   1 H        0.926     0.032     2.562     2.503
    56   1 H        0.926     0.030     2.585     2.514
    57   1 H        0.926     0.032     2.552     2.498
    58   1 H        0.926     0.035     2.522     2.484
    59   1 H        0.926     0.032     2.560     2.502
    60   1 H        0.926     0.031     2.573     2.509
    61   1 H        0.926     0.031     2.568     2.506
    62   1 H        0.926     0.031     2.572     2.508
    63   1 H        0.926     0.030     2.592     2.518
    64   1 H        0.926     0.031     2.577     2.510
    65   1 H        0.926     0.031     2.568     2.506
    66   1 H        0.926     0.031     2.568     2.506
    67   1 H        0.926     0.031     2.571     2.508
    68   1 H        0.926     0.030     2.589     2.516
    69   1 H        0.926     0.031     2.571     2.507
    70   1 H        0.926     0.032     2.564     2.504
    71   1 H        0.926     0.031     2.568     2.506
    72   1 H        0.926     0.033     2.546     2.495
    73   1 H        0.926     0.032     2.551     2.498
    74   1 H        0.926     0.027     2.627     2.535
    75   1 H        0.926     0.048     2.341     2.393
    76   1 H        0.926     0.060     2.202     2.321

molecular dipole:
                 x           y           z       tot (Debye)
 q only:       -0.828       0.640       0.288
   full:       -0.896       0.774       0.325       3.121

 projected vibrational frequencies (cm⁻¹)
eigval :       -0.00    -0.00    -0.00     0.00     0.00     0.00
eigval :        9.22    12.06    15.50    21.78    25.40    34.53
eigval :       44.41    49.18    52.97    61.07    62.35    71.82
eigval :       78.40    93.80   100.44   111.08   113.46   134.00
eigval :      148.87   159.52   170.99   191.37   204.07   210.70
eigval :      233.62   243.63   259.83   274.39   279.25   307.46
eigval :      320.50   340.84   349.68   364.08   368.24   376.18
eigval :      378.55   379.97   386.98   388.18   395.93   401.26
eigval :      410.74   422.48   436.09   456.37   465.76   476.05
eigval :      487.24   492.77   514.57   535.26   544.80   556.89
eigval :      581.62   583.06   586.76   588.56   592.42   595.41
eigval :      603.50   609.06   617.56   620.03   647.55   654.81
eigval :      659.64   666.98   676.19   680.58   692.01   694.61
eigval :      708.70   714.76   729.67   751.70   756.95   760.78
eigval :      775.06   776.59   808.38   819.45   828.39   833.69
eigval :      868.45   870.40   874.53   876.20   878.11   879.17
eigval :      882.99   891.65   892.26   900.31   902.71   904.67
eigval :      909.10   910.46   912.39   918.50   921.57   925.94
eigval :      927.46   927.56   928.82   929.09   929.72   930.55
eigval :      932.15   934.52   938.52   949.63   983.62   995.24
eigval :     1005.03  1009.19  1024.50  1028.77  1072.95  1076.59
eigval :     1080.87  1083.33  1084.29  1119.40  1121.95  1123.37
eigval :     1124.30  1134.74  1142.96  1158.20  1175.26  1179.01
eigval :     1180.77  1180.87  1181.09  1181.83  1187.48  1193.33
eigval :     1195.81  1198.12  1206.82  1216.85  1223.25  1244.77
eigval :     1260.71  1262.49  1264.89  1272.39  1277.61  1278.92
eigval :     1281.92  1288.46  1309.53  1314.90  1320.77  1321.06
eigval :     1323.41  1326.89  1327.38  1334.07  1350.66  1360.27
eigval :     1373.56  1406.50  1410.39  1422.03  1429.89  1431.13
eigval :     1436.60  1443.59  1462.73  1466.82  1472.72  1477.07
eigval :     1483.08  1489.01  1502.45  1554.73  1557.72  1570.10
eigval :     1577.20  1580.71  1581.10  1583.35  1586.15  1592.11
eigval :     1593.93  1595.27  1598.96  1602.71  1614.66  1691.90
eigval :     3074.38  3074.91  3075.34  3075.52  3076.28  3076.65
eigval :     3077.68  3078.92  3079.13  3079.93  3082.60  3084.13
eigval :     3085.45  3085.54  3086.30  3087.42  3088.70  3089.02
eigval :     3089.55  3090.13  3091.04  3092.04  3092.19  3092.89
eigval :     3096.39  3096.81  3097.27  3097.34  3098.19  3100.49

   temp. (K)  partition function   enthalpy   heat capacity  entropy
                                   cal/mol     cal/K/mol   cal/K/mol   J/K/mol
 298.15  VIB  0.173E+18            21447.573    135.199    134.477
         ROT  0.123E+09              888.752      2.981     39.991
         INT  0.212E+26            22336.326    138.180    174.468
         TR   0.139E+29             1481.254      4.968     44.992
         TOT                       23817.5798   143.1479   219.4601   918.2210

       T/K    H(0)-H(T)+PV         H(T)/Eh          T*S/Eh         G(T)/Eh
   ------------------------------------------------------------------------
    298.15    0.379557E-01    0.625399E+00    0.104273E+00    0.521126E+00
   ------------------------------------------------------------------------

         :::::::::::::::::::::::::::::::::::::::::::::::::::::
         ::                  THERMODYNAMIC                  ::
         :::::::::::::::::::::::::::::::::::::::::::::::::::::
         :: total free energy        -116.784455070585 Eh   ::
         ::.................................................::
         :: total energy             -117.305581520252 Eh   ::
         :: zero point energy           0.587443284775 Eh   ::
         :: G(RRHO) w/o ZPVE           -0.066316835108 Eh   ::
         :: G(RRHO) contrib.            0.521126449667 Eh   ::
         :::::::::::::::::::::::::::::::::::::::::::::::::::::

           -------------------------------------------------
          | TOTAL ENERGY             -117.305581520252 Eh   |
          | TOTAL ENTHALPY           -116.680182506158 Eh   |
          | TOTAL FREE ENERGY        -116.784455070585 Eh   |
          | GRADIENT NORM               0.000049843148 Eh/α |
          | HOMO-LUMO GAP               1.588278651988 eV   |
           -------------------------------------------------

 * finished run on 2025/07/18 at 14:35:42.952
