   * xtb version 6.7.1 (edcfbbe) compiled by 'albert@albert-system' on 2024-07-22

   ID    Z sym.   atoms
    1    8 O      1, 10, 11
    2    6 C      2-8, 12-19, 21-36
    3   16 S      9
    4    7 N      20
    5    1 H      37-57

          program call               : xtb data2507/toluene/TXO-TPA/TXO-TPA_toluene_T1_crest.xyz --gfn 2 --uhf 2 --gbsa toluene --ohess vtight --parallel 40 --molden --ceasefiles --namespace data2507/toluene/TXO-TPA/TXO-TPA_toluene_T1_finalOpt
      * Solvation model:               GBSA
        Solvent                        toluene
        Solvent mass                       9.2140E+01 g/mol
          :  Hamiltonian                  GFN2-xTB          :
 * total energy  :   -95.4014265 Eh     change       -0.7631584E-08 Eh
 * total energy  :   -95.4017964 Eh     change       -0.3699048E-03 Eh
 * total energy  :   -95.4019622 Eh     change       -0.1657541E-03 Eh
 * total energy  :   -95.4019774 Eh     change       -0.1521596E-04 Eh
 * total energy  :   -95.4019866 Eh     change       -0.9220820E-05 Eh
 * total energy  :   -95.4019899 Eh     change       -0.3237529E-05 Eh
 * total energy  :   -95.4019889 Eh     change        0.9823542E-06 Eh
 * total energy  :   -95.4019916 Eh     change       -0.2694089E-05 Eh
 * total energy  :   -95.4019925 Eh     change       -0.8764080E-06 Eh
 * total energy  :   -95.4019944 Eh     change       -0.1980430E-05 Eh
 * total energy  :   -95.4020095 Eh     change       -0.1718350E-06 Eh
 * total energy  :   -95.4020097 Eh     change       -0.1997316E-06 Eh
 * total energy  :   -95.4020099 Eh     change       -0.2032141E-06 Eh
 * total energy  :   -95.4020101 Eh     change       -0.1669048E-06 Eh
 * total energy  :   -95.4020102 Eh     change       -0.1339206E-06 Eh
 * total energy  :   -95.4020103 Eh     change       -0.1100123E-06 Eh
 * total energy  :   -95.4020105 Eh     change       -0.1212100E-06 Eh
 * total energy  :   -95.4020106 Eh     change       -0.1766953E-06 Eh
 * total energy  :   -95.4020106 Eh     change       -0.2356728E-09 Eh
   *** GEOMETRY OPTIMIZATION CONVERGED AFTER 44 ITERATIONS ***

 final structure:
================
57
 xtb: 6.7.1 (edcfbbe)
O            3.43930621947218        2.54387066450054       -0.28928755505533
C            3.98402741510834        1.40891242207240       -0.14727642609430
C            5.40099847482847        1.31314165749967        0.15338756226688
C            6.09008933681086        2.49740698106383        0.49595397210599
C            7.40950191743051        2.47041777351997        0.87423377723089
C            8.11003560469539        1.26525111995273        0.93112327310165
C            7.46483349487443        0.09437453583090        0.57372482837921
C            6.14038654427352        0.12433246386599        0.18622552108979
S            5.40497657468693       -1.37121223362867       -0.41591272724231
O            5.65730585413074       -1.46410114283067       -1.84682056229975
O            5.85686611454827       -2.51348429330381        0.35872777247531
C            3.67427512728675       -1.10708376417161       -0.16794254179563
C            2.83450012783517       -2.20024726783841       -0.07439950533612
C            1.46606914932821       -2.03166552896844       -0.02603995138041
C            0.92115181441085       -0.73204262475527       -0.09955822689979
C           -0.52458460364060       -0.52335650173114       -0.06649049356795
C           -1.12049383216358        0.50012563509270       -0.81607864504087
C           -2.47949177516953        0.70224937838146       -0.78920616032748
C           -3.30500504483918       -0.11703843947105       -0.00373866155133
N           -4.67556097250180        0.08279482186862        0.02705166768821
C           -5.54279397801690       -1.00278167583763        0.17863883204035
C           -5.26366782770985       -2.22160335006702       -0.44767141096186
C           -6.12890094180873       -3.28716766095140       -0.29942672676534
C           -7.27612250981686       -3.15766034134553        0.47047830650406
C           -7.55700870155431       -1.94973557487988        1.09310747933961
C           -6.70115272011651       -0.87581721851914        0.95136872898535
C           -5.20314582414929        1.37086925456182       -0.09296721514872
C           -6.38906168527308        1.58220788734886       -0.80333319918897
C           -6.91150653005294        2.85545738087073       -0.91074017795544
C           -6.26665044119310        3.93094814552562       -0.31628017959848
C           -5.08951235367315        3.72581616904330        0.38933478226738
C           -4.55614957446668        2.45763162852052        0.50408028236469
C           -2.71483320823330       -1.14235614437808        0.75087081746797
C           -1.35428639814038       -1.33577194345384        0.71776555591937
C            1.77514426207782        0.35362551058711       -0.17794580749016
C            3.17564184894071        0.20761971538300       -0.17974937366252
H            5.53132205175606        3.42121391242129        0.45785952703514
H            7.90859642986827        3.39217238324155        1.13464321680184
H            9.14458769166029        1.24499433004615        1.23531823104097
H            7.96880698858385       -0.86064227145767        0.58109860719906
H            3.28665659038743       -3.18065891957895       -0.05808373345164
H            0.81894340282183       -2.89249351191103        0.01407503662494
H           -0.50315903310830        1.11667529734955       -1.45049241996929
H           -2.92274723767607        1.47320209620704       -1.40119526392452
H           -4.38294144843390       -2.31341177650513       -1.06529541995698
H           -5.91232686234748       -4.22144591995970       -0.79463057514456
H           -7.94895340092062       -3.99363421894838        0.58355362661137
H           -8.44384272121816       -1.84778302689933        1.69977154765170
H           -6.90756633051929        0.05794922435587        1.45217307163078
H           -6.87794791531303        0.74846453487463       -1.28423872768642
H           -7.82176639098673        3.01255230816062       -1.46898792409598
H           -6.67897813982697        4.92433655625298       -0.40287418279327
H           -4.58900084616431        4.55770875933559        0.86103864727851
H           -3.65353716205882        2.29407612559034        1.07341711120067
H           -3.33296666521051       -1.75881312414051        1.38586733169467
H           -0.91323688448905       -2.10425033132032        1.33272576549708
H            1.39754643757496        1.36570417752751       -0.19058746280725

          :  Hamiltonian                  GFN2-xTB          :
         :: gradient norm              0.000032670306 Eh/a0 ::
         :: HOMO-LUMO gap              0.732381358884 eV    ::
         :: SCC energy               -96.987495134110 Eh    ::
         :: -> dispersion             -0.078138245901 Eh    ::
         :: -> Gsolv                  -0.070246221789 Eh    ::
         :: repulsion energy           1.585484501910 Eh    ::

    * Orbital Energies and Occupations

         #    Occupation            Energy/Eh            Energy/eV
      -------------------------------------------------------------
         1        2.0000           -0.7660336             -20.8448
       ...           ...                  ...                  ...
        76        2.0000           -0.4319708             -11.7545
        77        2.0000           -0.4318590             -11.7515
        78        2.0000           -0.4283688             -11.6565
        79        2.0000           -0.4276896             -11.6380
        80        2.0000           -0.4248470             -11.5607
        81        2.0000           -0.4163817             -11.3303
        82        2.0000           -0.4157035             -11.3119
        83        2.0000           -0.4113220             -11.1926
        84        2.0000           -0.4098032             -11.1513
        85        2.0000           -0.4020946             -10.9415
        86        1.8084           -0.3795718             -10.3287
        87        1.1916           -0.3768368             -10.2543
        88        1.0000           -0.2980163              -8.1094 (HOMO)
        89        0.0000           -0.2711018              -7.3771 (LUMO)
        90                         -0.2565597              -6.9813
        91                         -0.2499785              -6.8023
        92                         -0.2442038              -6.6451
        93                         -0.2440166              -6.6400
        94                         -0.2419750              -6.5845
        95                         -0.2381035              -6.4791
        96                         -0.2336981              -6.3592
        97                         -0.2150620              -5.8521
        98                         -0.1747288              -4.7546
        99                         -0.1292190              -3.5162
       ...                                ...                  ...
       170                          1.1575058              31.4973
      -------------------------------------------------------------
                  HL-Gap            0.0269144 Eh            0.7324 eV

     #   Z          covCN         q      C6AA      α(0)
     1   8 O        0.858    -0.488    23.520     6.502
     2   6 C        2.834     0.163    24.467     8.106
     3   6 C        3.007    -0.020    28.481     8.754
     4   6 C        2.927    -0.025    28.629     8.775
     5   6 C        2.915    -0.029    28.734     8.790
     6   6 C        2.919    -0.036    28.894     8.815
     7   6 C        2.969    -0.024    28.601     8.772
     8   6 C        2.971    -0.086    30.159     9.008
     9  16 S        3.852     0.923   108.879    17.562
    10   8 O        0.860    -0.598    26.079     6.847
    11   8 O        0.860    -0.580    25.638     6.789
    12   6 C        2.970    -0.089    30.227     9.018
    13   6 C        2.962    -0.023    28.582     8.769
    14   6 C        2.922    -0.045    29.116     8.849
    15   6 C        2.971     0.013    27.712     8.635
    16   6 C        2.976     0.027    27.392     8.585
    17   6 C        2.921    -0.025    28.620     8.773
    18   6 C        2.917    -0.035    28.878     8.812
    19   6 C        2.926     0.064    26.560     8.452
    20   7 N        2.753     0.005    21.172     6.834
    21   6 C        2.928     0.062    26.619     8.461
    22   6 C        2.920    -0.035    28.879     8.812
    23   6 C        2.918    -0.021    28.531     8.759
    24   6 C        2.919    -0.021    28.531     8.759
    25   6 C        2.918    -0.021    28.533     8.759
    26   6 C        2.920    -0.035    28.870     8.811
    27   6 C        2.928     0.062    26.614     8.460
    28   6 C        2.920    -0.035    28.874     8.812
    29   6 C        2.918    -0.021    28.533     8.760
    30   6 C        2.919    -0.021    28.525     8.758
    31   6 C        2.918    -0.021    28.527     8.759
    32   6 C        2.920    -0.035    28.874     8.812
    33   6 C        2.917    -0.036    28.890     8.814
    34   6 C        2.921    -0.026    28.645     8.777
    35   6 C        2.933    -0.027    28.670     8.781
    36   6 C        3.006    -0.022    28.536     8.763
    37   1 H        0.926     0.057     2.229     2.335
    38   1 H        0.926     0.055     2.253     2.347
    39   1 H        0.926     0.053     2.283     2.363
    40   1 H        0.926     0.041     2.440     2.442
    41   1 H        0.926     0.043     2.408     2.426
    42   1 H        0.926     0.060     2.202     2.320
    43   1 H        0.926     0.057     2.235     2.338
    44   1 H        0.926     0.061     2.187     2.313
    45   1 H        0.926     0.055     2.264     2.353
    46   1 H        0.926     0.054     2.268     2.355
    47   1 H        0.926     0.053     2.280     2.361
    48   1 H        0.926     0.055     2.257     2.349
    49   1 H        0.926     0.055     2.253     2.347
    50   1 H        0.926     0.056     2.247     2.344
    51   1 H        0.926     0.055     2.254     2.348
    52   1 H        0.926     0.053     2.280     2.361
    53   1 H        0.926     0.054     2.274     2.358
    54   1 H        0.926     0.054     2.269     2.356
    55   1 H        0.926     0.063     2.168     2.303
    56   1 H        0.926     0.061     2.183     2.311
    57   1 H        0.926     0.064     2.148     2.292

molecular dipole:
                 x           y           z       tot (Debye)
 q only:      -11.291       0.568       1.398
   full:      -10.902       0.356       1.318      27.927

 projected vibrational frequencies (cm⁻¹)
eigval :       -0.00    -0.00     0.00     0.00     0.00     0.00
eigval :       10.64    16.87    24.59    28.15    47.27    52.74
eigval :       59.60    69.50    74.04    92.56   102.58   107.32
eigval :      133.83   142.19   155.16   159.22   199.15   211.67
eigval :      229.82   234.74   267.21   274.73   293.12   296.68
eigval :      316.63   330.04   345.50   352.69   363.21   375.65
eigval :      377.05   383.90   387.70   416.53   418.03   421.32
eigval :      438.08   472.86   483.10   485.53   503.08   523.01
eigval :      536.44   538.41   571.39   581.32   583.99   591.56
eigval :      595.52   600.36   614.72   630.03   649.96   654.69
eigval :      658.61   664.09   672.11   693.70   708.83   731.56
eigval :      757.71   760.06   769.61   791.46   805.71   826.09
eigval :      852.93   867.71   869.06   870.95   872.37   900.30
eigval :      901.01   901.48   905.24   908.48   909.14   913.15
eigval :      917.58   926.35   929.17   930.58   931.80   933.10
eigval :      938.27   980.46   999.32  1002.30  1009.86  1050.40
eigval :     1061.23  1070.35  1073.68  1076.59  1077.40  1119.27
eigval :     1121.13  1138.47  1139.55  1155.36  1158.95  1162.96
eigval :     1173.20  1175.59  1175.91  1176.56  1186.58  1187.65
eigval :     1210.21  1215.94  1224.29  1226.66  1260.91  1268.44
eigval :     1270.62  1277.74  1287.55  1301.83  1313.82  1322.09
eigval :     1323.73  1333.66  1340.96  1357.58  1393.50  1412.18
eigval :     1413.66  1417.27  1427.79  1432.96  1440.46  1443.29
eigval :     1447.75  1465.35  1487.37  1510.58  1513.69  1533.58
eigval :     1556.51  1558.79  1565.00  1571.37  1576.54  1582.17
eigval :     3077.48  3084.61  3085.54  3086.29  3087.55  3087.84
eigval :     3088.15  3088.53  3089.10  3091.28  3092.19  3094.88
eigval :     3095.71  3099.08  3099.91  3100.46  3104.49  3105.36
eigval :     3105.45  3106.07  3108.09

   temp. (K)  partition function   enthalpy   heat capacity  entropy
                                   cal/mol     cal/K/mol   cal/K/mol   J/K/mol
 298.15  VIB  0.640E+13            16863.303    107.239    104.379
         ROT  0.477E+08              888.752      2.981     38.118
         INT  0.305E+21            17752.055    110.220    142.496
         TR   0.104E+29             1481.254      4.968     44.420
         TOT                       19233.3090   115.1882   186.9167   782.0594

       T/K    H(0)-H(T)+PV         H(T)/Eh          T*S/Eh         G(T)/Eh
   ------------------------------------------------------------------------
    298.15    0.306502E-01    0.451156E+00    0.888101E-01    0.362346E+00
   ------------------------------------------------------------------------

         :::::::::::::::::::::::::::::::::::::::::::::::::::::
         ::                  THERMODYNAMIC                  ::
         :::::::::::::::::::::::::::::::::::::::::::::::::::::
         :: total free energy         -95.039664923508 Eh   ::
         ::.................................................::
         :: total energy              -95.402010636945 Eh   ::
         :: zero point energy           0.420505632915 Eh   ::
         :: G(RRHO) w/o ZPVE           -0.058159919479 Eh   ::
         :: G(RRHO) contrib.            0.362345713437 Eh   ::
         :::::::::::::::::::::::::::::::::::::::::::::::::::::

           -------------------------------------------------
          | TOTAL ENERGY              -95.402010636945 Eh   |
          | TOTAL ENTHALPY            -94.950854775173 Eh   |
          | TOTAL FREE ENERGY         -95.039664923508 Eh   |
          | GRADIENT NORM               0.000032940110 Eh/α |
          | HOMO-LUMO GAP               0.732378606310 eV   |
           -------------------------------------------------

 * finished run on 2025/07/16 at 13:20:22.264
