   * xtb version 6.7.1 (edcfbbe) compiled by 'albert@albert-system' on 2024-07-22

   ID    Z sym.   atoms
    1    8 O      1, 10, 11
    2    6 C      2-8, 12-19, 21-36
    3   16 S      9
    4    7 N      20
    5    1 H      37-57

          program call               : xtb data2507/toluene/TXO-TPA/TXO-TPA.xyz --gfn 2 --gbsa toluene --ohess vtight --parallel 40 --molden --ceasefiles --namespace data2507/toluene/TXO-TPA/TXO-TPA_toluene_S0_preOpt
      * Solvation model:               GBSA
        Solvent                        toluene
        Solvent mass                       9.2140E+01 g/mol
          :  Hamiltonian                  GFN2-xTB          :
 * total energy  :   -95.4487245 Eh     change       -0.8210037E-09 Eh
 * total energy  :   -95.4590166 Eh     change       -0.1029209E-01 Eh
 * total energy  :   -95.4633797 Eh     change       -0.4363064E-02 Eh
 * total energy  :   -95.4645145 Eh     change       -0.1134830E-02 Eh
 * total energy  :   -95.4650456 Eh     change       -0.5311057E-03 Eh
 * total energy  :   -95.4652201 Eh     change       -0.1744489E-03 Eh
 * total energy  :   -95.4653195 Eh     change       -0.9937953E-04 Eh
 * total energy  :   -95.4654114 Eh     change       -0.9195695E-04 Eh
 * total energy  :   -95.4655256 Eh     change       -0.1141527E-03 Eh
 * total energy  :   -95.4656603 Eh     change       -0.1346894E-03 Eh
 * total energy  :   -95.4677805 Eh     change       -0.1263593E-05 Eh
 * total energy  :   -95.4677818 Eh     change       -0.1267079E-05 Eh
 * total energy  :   -95.4677829 Eh     change       -0.1166167E-05 Eh
 * total energy  :   -95.4677840 Eh     change       -0.1023380E-05 Eh
 * total energy  :   -95.4677848 Eh     change       -0.8855714E-06 Eh
 * total energy  :   -95.4677856 Eh     change       -0.7776578E-06 Eh
 * total energy  :   -95.4677863 Eh     change       -0.7142668E-06 Eh
 * total energy  :   -95.4677870 Eh     change       -0.7003867E-06 Eh
 * total energy  :   -95.4677870 Eh     change       -0.5074838E-08 Eh
   *** GEOMETRY OPTIMIZATION CONVERGED AFTER 68 ITERATIONS ***

 final structure:
================
57
 xtb: 6.7.1 (edcfbbe)
O            4.44500248662540        1.51604200614531       -1.93614592144453
C            4.86290987877544        0.86621402774796       -0.99412463276185
C            6.25046355836839        0.33942735349746       -0.98584654580706
C            6.88679797005795        0.12566397181603       -2.21085923402513
C            8.16950996399491       -0.38989523517223       -2.25526080723401
C            8.84187016925051       -0.69525050495501       -1.08100918115593
C            8.22826225030042       -0.47128887941669        0.14309112074654
C            6.94548473293669        0.03539870966681        0.18020058224299
S            6.18206350393231        0.42621596372869        1.74758193532396
O            6.62348073014093       -0.50042753479875        2.76391267601374
O            6.41357092928459        1.83106188396813        2.01438946545011
C            4.44725096115373        0.20197872640863        1.41144555965637
C            3.57885950460455       -0.15794756735960        2.42266371104210
C            2.22033281040561       -0.23429612357402        2.17195299829616
C            1.70930388006009        0.06853778727894        0.90594682382037
C            0.26765539234375        0.02179243163921        0.64379345145193
C           -0.54743085298458       -0.93637608898517        1.24963165269692
C           -1.90421000016448       -0.97068983447935        1.01247182179234
C           -2.50266612255421       -0.03697039615418        0.16117967405660
N           -3.87372595588361       -0.05602284496914       -0.06973824324932
C           -4.56915341539101        1.14169813522558       -0.30145707028732
C           -4.26410713036124        2.29026554268260        0.42802931863684
C           -4.95177649246227        3.46574448881931        0.19373835482893
C           -5.95724364924076        3.51244085601616       -0.75871875001059
C           -6.26957501263969        2.37121644359409       -1.47980167105155
C           -5.58103105418859        1.19343709106656       -1.25900935557116
C           -4.58247930227032       -1.26740186750088       -0.07236585829958
C           -5.85697099381980       -1.33653592690979        0.48899618273404
C           -6.56040468600299       -2.52592382128443        0.47360816316402
C           -6.00513632384982       -3.66200727253291       -0.09285160872219
C           -4.73792783371013       -3.59867964215292       -0.64990054361652
C           -4.02999528223206       -2.41186381048743       -0.64645875190542
C           -1.68886561720191        0.92145774884082       -0.45061131441464
C           -0.33215292016669        0.94554321935692       -0.21465227849463
C            2.60445277258819        0.42969928820660       -0.10071916517039
C            3.97542886124850        0.49687180034481        0.13520093416358
H            6.34982502385390        0.36851206046475       -3.11573229990877
H            8.64775107556023       -0.55246865688592       -3.20889918599893
H            9.84174528944513       -1.09921034456091       -1.11503123514166
H            8.72309125415350       -0.68615564139983        1.07747394861636
H            3.98694716120850       -0.37144210055087        3.39846599137397
H            1.54745032214688       -0.50226372219149        2.97145067978847
H           -0.11064468635459       -1.67669519130799        1.90248608484142
H           -2.51603271461818       -1.71920190722225        1.49368715101026
H           -3.48784788153902        2.25346549550598        1.17849098113317
H           -4.70621251199821        4.34882016040291        0.76558539424472
H           -6.49423713681444        4.43196494500967       -0.93698894783093
H           -7.04995699058123        2.39937201556104       -2.22628377772794
H           -5.82075567208917        0.30670292404394       -1.82766019855473
H           -6.28931921033201       -0.45334552628442        0.93634699433795
H           -7.54634028280510       -2.56688762142703        0.91330942794821
H           -6.55662472834944       -4.59015588225638       -0.10087463240233
H           -4.30034900706128       -4.47803272289998       -1.09978448786586
H           -3.04713894476947       -2.36234294157168       -1.09200654796225
H           -2.13151413953370        1.64640771741814       -1.11735864854408
H            0.26992975030737        1.70697757132232       -0.68689755582977
H            2.25238431923725        0.64684524350562       -1.09808262842627

          :  Hamiltonian                  GFN2-xTB          :
         :: gradient norm              0.000060061671 Eh/a0 ::
         :: HOMO-LUMO gap              0.954572341485 eV    ::
         :: SCC energy               -97.067428063592 Eh    ::
         :: -> dispersion             -0.078198705050 Eh    ::
         :: -> Gsolv                  -0.048313192668 Eh    ::
         :: repulsion energy           1.599641017911 Eh    ::

    * Orbital Energies and Occupations

         #    Occupation            Energy/Eh            Energy/eV
      -------------------------------------------------------------
         1        2.0000           -0.7857916             -21.3825
       ...           ...                  ...                  ...
        75        2.0000           -0.4363622             -11.8740
        76        2.0000           -0.4350445             -11.8382
        77        2.0000           -0.4292524             -11.6806
        78        2.0000           -0.4255733             -11.5804
        79        2.0000           -0.4245147             -11.5516
        80        2.0000           -0.4234327             -11.5222
        81        2.0000           -0.4132287             -11.2445
        82        2.0000           -0.4099545             -11.1554
        83        2.0000           -0.4080067             -11.1024
        84        2.0000           -0.4071783             -11.0799
        85        2.0000           -0.4068514             -11.0710
        86        2.0000           -0.4041167             -10.9966
        87        2.0000           -0.3535028              -9.6193 (HOMO)
        88                         -0.3184229              -8.6647 (LUMO)
        89                         -0.2723727              -7.4116
        90                         -0.2645873              -7.1998
        91                         -0.2563187              -6.9748
        92                         -0.2326476              -6.3307
        93                         -0.2307303              -6.2785
        94                         -0.2301469              -6.2626
        95                         -0.2254841              -6.1357
        96                         -0.2237437              -6.0884
        97                         -0.2108617              -5.7378
        98                         -0.1934702              -5.2646
       ...                                ...                  ...
       170                          1.1696911              31.8289
      -------------------------------------------------------------
                  HL-Gap            0.0350799 Eh            0.9546 eV

     #   Z          covCN         q      C6AA      α(0)
     1   8 O        0.858    -0.378    21.251     6.181
     2   6 C        2.829     0.225    23.274     7.905
     3   6 C        3.013    -0.014    28.336     8.732
     4   6 C        2.926    -0.010    28.278     8.721
     5   6 C        2.917    -0.018    28.448     8.746
     6   6 C        2.921    -0.012    28.312     8.726
     7   6 C        2.955    -0.018    28.450     8.749
     8   6 C        2.971    -0.069    29.721     8.942
     9  16 S        3.830     0.954   107.982    17.490
    10   8 O        0.860    -0.562    25.198     6.730
    11   8 O        0.860    -0.584    25.720     6.800
    12   6 C        2.971    -0.077    29.907     8.970
    13   6 C        2.952    -0.020    28.501     8.756
    14   6 C        2.926    -0.023    28.569     8.765
    15   6 C        2.972     0.028    27.372     8.582
    16   6 C        2.975     0.000    28.021     8.683
    17   6 C        2.923    -0.032    28.804     8.801
    18   6 C        2.920    -0.049    29.210     8.863
    19   6 C        2.922     0.068    26.469     8.437
    20   7 N        2.752    -0.071    22.612     7.062
    21   6 C        2.925     0.064    26.564     8.452
    22   6 C        2.922    -0.047    29.161     8.856
    23   6 C        2.919    -0.029    28.736     8.791
    24   6 C        2.919    -0.037    28.928     8.820
    25   6 C        2.919    -0.029    28.733     8.790
    26   6 C        2.922    -0.046    29.146     8.853
    27   6 C        2.924     0.064    26.564     8.452
    28   6 C        2.922    -0.046    29.152     8.854
    29   6 C        2.919    -0.029    28.734     8.790
    30   6 C        2.919    -0.038    28.935     8.821
    31   6 C        2.919    -0.030    28.738     8.791
    32   6 C        2.922    -0.047    29.169     8.857
    33   6 C        2.920    -0.048    29.195     8.861
    34   6 C        2.923    -0.032    28.786     8.799
    35   6 C        2.932    -0.020    28.499     8.755
    36   6 C        3.012    -0.016    28.400     8.742
    37   1 H        0.926     0.079     1.990     2.206
    38   1 H        0.926     0.078     1.997     2.210
    39   1 H        0.926     0.078     2.000     2.211
    40   1 H        0.926     0.065     2.137     2.286
    41   1 H        0.926     0.062     2.174     2.306
    42   1 H        0.926     0.075     2.035     2.231
    43   1 H        0.926     0.045     2.384     2.414
    44   1 H        0.926     0.041     2.439     2.442
    45   1 H        0.926     0.035     2.521     2.483
    46   1 H        0.926     0.035     2.515     2.480
    47   1 H        0.926     0.034     2.535     2.490
    48   1 H        0.926     0.035     2.513     2.479
    49   1 H        0.926     0.034     2.532     2.488
    50   1 H        0.926     0.033     2.540     2.492
    51   1 H        0.926     0.035     2.519     2.482
    52   1 H        0.926     0.033     2.537     2.491
    53   1 H        0.926     0.035     2.511     2.478
    54   1 H        0.926     0.035     2.516     2.480
    55   1 H        0.926     0.040     2.455     2.450
    56   1 H        0.926     0.043     2.414     2.430
    57   1 H        0.926     0.076     2.017     2.221

molecular dipole:
                 x           y           z       tot (Debye)
 q only:       -1.891      -1.756      -1.550
   full:       -1.714      -1.699      -1.317       6.987

 projected vibrational frequencies (cm⁻¹)
eigval :       -0.00    -0.00    -0.00     0.00     0.00     0.00
eigval :       14.16    17.35    26.40    28.80    44.57    52.77
eigval :       60.89    66.51    71.08    91.00   102.27   109.76
eigval :      121.24   142.41   150.83   153.51   193.12   204.05
eigval :      233.36   237.93   254.42   275.62   291.36   301.09
eigval :      317.70   325.43   342.14   363.82   372.35   377.53
eigval :      378.55   384.25   387.14   403.63   428.81   432.20
eigval :      441.08   478.36   488.77   491.44   498.12   509.50
eigval :      537.88   549.44   583.09   585.88   590.67   595.10
eigval :      609.36   614.86   627.70   658.15   659.56   663.28
eigval :      668.45   674.88   693.17   710.39   730.79   735.17
eigval :      756.35   759.36   788.91   805.71   814.09   841.15
eigval :      868.26   874.17   875.23   890.05   893.26   893.82
eigval :      894.18   909.00   912.12   918.14   923.40   925.91
eigval :      927.31   928.22   929.01   930.07   931.55   933.01
eigval :      945.16   984.73  1004.30  1012.23  1019.22  1062.76
eigval :     1078.33  1080.46  1081.86  1082.93  1088.25  1120.24
eigval :     1122.89  1142.88  1148.93  1161.78  1166.54  1178.15
eigval :     1179.20  1181.00  1185.17  1194.10  1194.55  1197.92
eigval :     1215.24  1220.56  1228.41  1242.24  1270.12  1276.65
eigval :     1279.57  1293.81  1304.04  1314.13  1318.95  1322.96
eigval :     1325.55  1328.28  1330.07  1376.75  1408.21  1415.06
eigval :     1434.22  1439.05  1440.23  1446.59  1468.33  1471.27
eigval :     1492.20  1547.27  1548.67  1555.00  1562.37  1576.39
eigval :     1580.12  1585.13  1589.86  1590.79  1598.83  1662.83
eigval :     3072.89  3073.34  3073.91  3074.33  3082.45  3083.22
eigval :     3083.42  3085.06  3085.24  3086.30  3091.07  3093.92
eigval :     3094.12  3094.85  3095.70  3096.11  3096.83  3097.65
eigval :     3101.76  3106.10  3107.89

   temp. (K)  partition function   enthalpy   heat capacity  entropy
                                   cal/mol     cal/K/mol   cal/K/mol   J/K/mol
 298.15  VIB  0.511E+13            16773.454    106.085    103.927
         ROT  0.483E+08              888.752      2.981     38.143
         INT  0.247E+21            17662.207    109.065    142.070
         TR   0.104E+29             1481.254      4.968     44.420
         TOT                       19143.4608   114.0336   186.4901   780.2744

       T/K    H(0)-H(T)+PV         H(T)/Eh          T*S/Eh         G(T)/Eh
   ------------------------------------------------------------------------
    298.15    0.305070E-01    0.453847E+00    0.886074E-01    0.365240E+00
   ------------------------------------------------------------------------

         :::::::::::::::::::::::::::::::::::::::::::::::::::::
         ::                  THERMODYNAMIC                  ::
         :::::::::::::::::::::::::::::::::::::::::::::::::::::
         :: total free energy         -95.102547161992 Eh   ::
         ::.................................................::
         :: total energy              -95.467787052283 Eh   ::
         :: zero point energy           0.423340291324 Eh   ::
         :: G(RRHO) w/o ZPVE           -0.058100401033 Eh   ::
         :: G(RRHO) contrib.            0.365239890291 Eh   ::
         :::::::::::::::::::::::::::::::::::::::::::::::::::::

           -------------------------------------------------
          | TOTAL ENERGY              -95.467787052283 Eh   |
          | TOTAL ENTHALPY            -95.013939714365 Eh   |
          | TOTAL FREE ENERGY         -95.102547161992 Eh   |
          | GRADIENT NORM               0.000060062608 Eh/α |
          | HOMO-LUMO GAP               0.954572268661 eV   |
           -------------------------------------------------

 * finished run on 2025/07/16 at 13:13:48.733
