   * xtb version 6.7.1 (edcfbbe) compiled by 'albert@albert-system' on 2024-07-22

   ID    Z sym.   atoms
    1    8 O      1, 10, 11
    2    6 C      2-8, 12-19, 21-36
    3   16 S      9
    4    7 N      20
    5    1 H      37-57

          program call               : xtb data2507/toluene/TXO-TPA/TXO-TPA_toluene_S0_crest.xyz --gfn 2 --gbsa toluene --ohess vtight --parallel 40 --molden --ceasefiles --namespace data2507/toluene/TXO-TPA/TXO-TPA_toluene_S0_finalOpt
      * Solvation model:               GBSA
        Solvent                        toluene
        Solvent mass                       9.2140E+01 g/mol
          :  Hamiltonian                  GFN2-xTB          :
 * total energy  :   -95.4677698 Eh     change       -0.7955094E-09 Eh
 * total energy  :   -95.4678778 Eh     change       -0.1080132E-03 Eh
 * total energy  :   -95.4679426 Eh     change       -0.6483920E-04 Eh
 * total energy  :   -95.4679547 Eh     change       -0.1205924E-04 Eh
 * total energy  :   -95.4679719 Eh     change       -0.1718003E-04 Eh
 * total energy  :   -95.4679813 Eh     change       -0.9452772E-05 Eh
 * total energy  :   -95.4679929 Eh     change       -0.1160564E-04 Eh
 * total energy  :   -95.4680062 Eh     change       -0.1325519E-04 Eh
 * total energy  :   -95.4680055 Eh     change        0.6940944E-06 Eh
 * total energy  :   -95.4680156 Eh     change       -0.1005885E-04 Eh
 * total energy  :   -95.4680376 Eh     change       -0.2600836E-05 Eh
 * total energy  :   -95.4680407 Eh     change       -0.3038170E-05 Eh
 * total energy  :   -95.4680429 Eh     change       -0.2195477E-05 Eh
 * total energy  :   -95.4680441 Eh     change       -0.1186724E-05 Eh
 * total energy  :   -95.4680451 Eh     change       -0.1048479E-05 Eh
 * total energy  :   -95.4680465 Eh     change       -0.1417011E-05 Eh
 * total energy  :   -95.4680476 Eh     change       -0.1104777E-05 Eh
 * total energy  :   -95.4680480 Eh     change       -0.4049983E-06 Eh
 * total energy  :   -95.4680481 Eh     change       -0.1928699E-07 Eh
   *** GEOMETRY OPTIMIZATION CONVERGED AFTER 22 ITERATIONS ***

 final structure:
================
57
 xtb: 6.7.1 (edcfbbe)
O            3.62484466017295        2.42728299386614       -0.87695842963163
C            4.04707637718264        1.38297490278881       -0.41323484374669
C            5.40989580069741        1.30044652519908        0.16900949647709
C            5.99092640593641        2.46729447210264        0.67072162951500
C            7.24689129484546        2.43293415829860        1.24926744304860
C            7.94695957494775        1.23826576709493        1.33171649974850
C            7.38905430179072        0.07507226506052        0.82085303429732
C            6.13237420812149        0.11458275284503        0.25290071814900
S            5.44053717315201       -1.34907673514935       -0.50318879888785
O            5.72689031713758       -1.29097853087805       -1.92201261563217
O            5.88779359838697       -2.53268669992328        0.19362380232196
C            3.68881353562079       -1.11715931578913       -0.27888985243466
C            2.84377639771850       -2.20314594630961       -0.16529018984424
C            1.47629416754608       -2.00822698086181       -0.08525829680382
C            0.93411904199415       -0.72033243504095       -0.13929600994543
C           -0.51468864862829       -0.50930861185400       -0.08184942964715
C           -1.32880032518480       -1.31137936593050        0.72046213919682
C           -2.69082314599907       -1.11351209430218        0.77437173203492
C           -3.29589219641988       -0.11043545095611        0.01108569171986
N           -4.67201681211748        0.08440452870322        0.05486588198094
C           -5.21146958045433        1.37316236719738       -0.07801009524730
C           -4.59017593370770        2.46613438541870        0.52538785828783
C           -5.13042542685013        3.73146795566936        0.39634078986812
C           -6.29796657445369        3.92600988276175       -0.32415565697536
C           -6.92124663257538        2.84224276744751       -0.92160094140283
C           -6.38353524793262        1.57442381963459       -0.80586462319713
C           -5.53752359243594       -1.00703866686032        0.22703959938869
C           -6.67207162265346       -0.88635675539127        1.02839853640924
C           -7.52959041056427       -1.95861736214521        1.18561333960027
C           -7.26731581710978       -3.16500369175035        0.55642366595809
C           -6.13965118932396       -3.29034797521679       -0.23907613145425
C           -5.28050013243733       -2.22136254707744       -0.40866055036307
C           -2.48447234712064        0.69167575730732       -0.79705295029145
C           -1.12136761312410        0.49853910208409       -0.83457605650034
C            1.80570794198344        0.36223073015846       -0.25644945611347
C            3.18470681800441        0.17996831824091       -0.32130994267206
H            5.43304287453966        3.38908243499815        0.59899705234176
H            7.68243963634074        3.34144096714994        1.63586154811848
H            8.92604396678966        1.21071976911101        1.78428315384568
H            7.90756684634637       -0.87042000068287        0.85684449682039
H            3.27696020695177       -3.19114219854833       -0.14269237729430
H            0.82140683990889       -2.86215827668066       -0.00931833649534
H           -0.88333000377608       -2.07507351217881        1.33977406395978
H           -3.30069911158623       -1.73094328718835        1.41702660454930
H           -3.68646026874231        2.31529318384265        1.09769961721482
H           -4.64076967385750        4.56990432180201        0.87003193281627
H           -6.71919601786193        4.91550291834231       -0.41968987439712
H           -7.82907607542175        2.98549104497431       -1.48936769790997
H           -6.86682955401832        0.73198951939391       -1.27901661278030
H           -6.87472462032577        0.05142091764827        1.52491049228673
H           -8.40461900927188       -1.85323947059557        1.81032493779490
H           -7.93863643924295       -4.00097607566842        0.68343162039648
H           -5.93159466349675       -4.22493716360744       -0.73942292350775
H           -4.40827190773087       -2.31750039568964       -1.03876418945386
H           -2.93663005538999        1.46212272031954       -1.40381138324439
H           -0.52010616030090        1.11303864005048       -1.48752312002134
H            1.42709490889952        1.37321164096533       -0.27707175635031

          :  Hamiltonian                  GFN2-xTB          :
         :: gradient norm              0.000113800379 Eh/a0 ::
         :: HOMO-LUMO gap              0.963446356469 eV    ::
         :: SCC energy               -97.067921761953 Eh    ::
         :: -> dispersion             -0.078256727281 Eh    ::
         :: -> Gsolv                  -0.048361731866 Eh    ::
         :: repulsion energy           1.599873706992 Eh    ::

    * Orbital Energies and Occupations

         #    Occupation            Energy/Eh            Energy/eV
      -------------------------------------------------------------
         1        2.0000           -0.7857517             -21.3814
       ...           ...                  ...                  ...
        75        2.0000           -0.4362990             -11.8723
        76        2.0000           -0.4346890             -11.8285
        77        2.0000           -0.4292792             -11.6813
        78        2.0000           -0.4256385             -11.5822
        79        2.0000           -0.4250180             -11.5653
        80        2.0000           -0.4227202             -11.5028
        81        2.0000           -0.4133937             -11.2490
        82        2.0000           -0.4098718             -11.1532
        83        2.0000           -0.4082912             -11.1102
        84        2.0000           -0.4073071             -11.0834
        85        2.0000           -0.4069226             -11.0729
        86        2.0000           -0.4042264             -10.9996
        87        2.0000           -0.3536570              -9.6235 (HOMO)
        88                         -0.3182510              -8.6601 (LUMO)
        89                         -0.2723160              -7.4101
        90                         -0.2645474              -7.1987
        91                         -0.2561993              -6.9715
        92                         -0.2326086              -6.3296
        93                         -0.2309009              -6.2831
        94                         -0.2302060              -6.2642
        95                         -0.2255267              -6.1369
        96                         -0.2236956              -6.0871
        97                         -0.2108592              -5.7378
        98                         -0.1937453              -5.2721
       ...                                ...                  ...
       170                          1.1697098              31.8294
      -------------------------------------------------------------
                  HL-Gap            0.0354060 Eh            0.9634 eV

     #   Z          covCN         q      C6AA      α(0)
     1   8 O        0.858    -0.378    21.247     6.180
     2   6 C        2.829     0.225    23.271     7.905
     3   6 C        3.014    -0.014    28.336     8.732
     4   6 C        2.926    -0.010    28.279     8.721
     5   6 C        2.917    -0.018    28.448     8.746
     6   6 C        2.921    -0.012    28.314     8.726
     7   6 C        2.954    -0.018    28.451     8.749
     8   6 C        2.971    -0.069    29.724     8.943
     9  16 S        3.830     0.954   107.986    17.490
    10   8 O        0.860    -0.584    25.725     6.800
    11   8 O        0.860    -0.562    25.192     6.729
    12   6 C        2.971    -0.077    29.912     8.971
    13   6 C        2.951    -0.020    28.502     8.756
    14   6 C        2.926    -0.023    28.572     8.766
    15   6 C        2.972     0.028    27.377     8.583
    16   6 C        2.976     0.000    28.018     8.683
    17   6 C        2.923    -0.032    28.803     8.801
    18   6 C        2.920    -0.048    29.199     8.861
    19   6 C        2.922     0.068    26.471     8.437
    20   7 N        2.752    -0.071    22.609     7.062
    21   6 C        2.924     0.064    26.566     8.453
    22   6 C        2.922    -0.047    29.168     8.857
    23   6 C        2.919    -0.029    28.736     8.791
    24   6 C        2.919    -0.038    28.933     8.821
    25   6 C        2.919    -0.029    28.735     8.790
    26   6 C        2.922    -0.046    29.152     8.854
    27   6 C        2.924     0.064    26.565     8.452
    28   6 C        2.922    -0.046    29.149     8.854
    29   6 C        2.919    -0.029    28.734     8.790
    30   6 C        2.919    -0.038    28.933     8.821
    31   6 C        2.919    -0.029    28.736     8.791
    32   6 C        2.922    -0.047    29.167     8.856
    33   6 C        2.920    -0.048    29.186     8.859
    34   6 C        2.923    -0.031    28.784     8.798
    35   6 C        2.932    -0.020    28.502     8.755
    36   6 C        3.013    -0.016    28.399     8.742
    37   1 H        0.926     0.079     1.992     2.207
    38   1 H        0.926     0.078     1.997     2.210
    39   1 H        0.926     0.078     2.000     2.212
    40   1 H        0.926     0.066     2.135     2.285
    41   1 H        0.926     0.062     2.172     2.305
    42   1 H        0.926     0.075     2.035     2.231
    43   1 H        0.926     0.045     2.382     2.414
    44   1 H        0.926     0.041     2.438     2.442
    45   1 H        0.926     0.035     2.519     2.482
    46   1 H        0.926     0.035     2.511     2.478
    47   1 H        0.926     0.034     2.537     2.491
    48   1 H        0.926     0.035     2.518     2.482
    49   1 H        0.926     0.033     2.538     2.491
    50   1 H        0.926     0.034     2.534     2.489
    51   1 H        0.926     0.035     2.516     2.480
    52   1 H        0.926     0.034     2.536     2.491
    53   1 H        0.926     0.035     2.512     2.478
    54   1 H        0.926     0.035     2.520     2.483
    55   1 H        0.926     0.040     2.451     2.448
    56   1 H        0.926     0.043     2.413     2.429
    57   1 H        0.926     0.076     2.020     2.223

molecular dipole:
                 x           y           z       tot (Debye)
 q only:       -2.015       1.079       2.029
   full:       -1.829       0.871       1.931       7.115

 projected vibrational frequencies (cm⁻¹)
eigval :       -0.00    -0.00    -0.00    -0.00     0.00     0.00
eigval :        5.18    16.12    23.39    28.68    40.48    50.99
eigval :       56.45    68.82    74.05    89.76    99.38   104.73
eigval :      119.29   141.73   153.14   156.71   197.07   202.48
eigval :      223.37   232.72   262.17   277.33   291.89   299.31
eigval :      317.03   325.31   342.49   360.78   372.14   377.38
eigval :      380.12   382.79   390.56   415.95   421.84   431.51
eigval :      437.39   477.06   486.09   491.09   500.39   509.28
eigval :      537.69   549.03   583.82   585.03   591.65   593.27
eigval :      608.08   614.90   628.36   657.32   659.98   663.31
eigval :      668.68   675.17   694.41   710.22   730.66   734.18
eigval :      757.64   760.35   787.23   805.30   813.85   839.91
eigval :      865.84   876.08   876.95   889.61   891.83   893.25
eigval :      894.81   909.15   911.65   916.73   922.47   922.77
eigval :      927.55   929.51   930.56   930.80   931.25   931.45
eigval :      944.82   984.44  1004.05  1011.86  1018.97  1062.27
eigval :     1077.74  1079.51  1081.19  1082.42  1087.79  1119.91
eigval :     1121.72  1142.00  1148.38  1158.87  1165.41  1177.04
eigval :     1177.09  1178.64  1184.86  1193.49  1194.04  1196.70
eigval :     1214.53  1219.22  1226.17  1241.55  1269.30  1276.01
eigval :     1279.10  1293.49  1304.48  1313.97  1318.62  1323.05
eigval :     1325.16  1328.37  1330.01  1376.51  1408.02  1415.47
eigval :     1433.65  1438.42  1439.69  1445.83  1468.12  1471.14
eigval :     1492.09  1546.81  1547.57  1554.68  1561.74  1576.08
eigval :     1579.89  1584.98  1588.96  1590.55  1598.39  1664.03
eigval :     3073.27  3073.59  3074.42  3074.79  3081.89  3083.09
eigval :     3083.44  3084.19  3086.03  3087.02  3090.53  3092.78
eigval :     3094.41  3094.74  3094.89  3095.43  3095.97  3096.55
eigval :     3100.92  3104.97  3106.59

   temp. (K)  partition function   enthalpy   heat capacity  entropy
                                   cal/mol     cal/K/mol   cal/K/mol   J/K/mol
 298.15  VIB  0.200E+14            16814.856    105.937    105.211
         ROT  0.481E+08              888.752      2.981     38.132
         INT  0.962E+21            17703.608    108.918    143.344
         TR   0.104E+29             1481.254      4.968     44.420
         TOT                       19184.8621   113.8865   187.7639   785.6040

       T/K    H(0)-H(T)+PV         H(T)/Eh          T*S/Eh         G(T)/Eh
   ------------------------------------------------------------------------
    298.15    0.305730E-01    0.453731E+00    0.892127E-01    0.364519E+00
   ------------------------------------------------------------------------

         :::::::::::::::::::::::::::::::::::::::::::::::::::::
         ::                  THERMODYNAMIC                  ::
         :::::::::::::::::::::::::::::::::::::::::::::::::::::
         :: total free energy         -95.103529279520 Eh   ::
         ::.................................................::
         :: total energy              -95.468048059640 Eh   ::
         :: zero point energy           0.423158420699 Eh   ::
         :: G(RRHO) w/o ZPVE           -0.058639640580 Eh   ::
         :: G(RRHO) contrib.            0.364518780119 Eh   ::
         :::::::::::::::::::::::::::::::::::::::::::::::::::::

           -------------------------------------------------
          | TOTAL ENERGY              -95.468048059640 Eh   |
          | TOTAL ENTHALPY            -95.014316615204 Eh   |
          | TOTAL FREE ENERGY         -95.103529279520 Eh   |
          | GRADIENT NORM               0.000113772907 Eh/α |
          | HOMO-LUMO GAP               0.963445985779 eV   |
           -------------------------------------------------

 * finished run on 2025/07/16 at 13:16:31.507
