   * xtb version 6.7.1 (edcfbbe) compiled by 'albert@albert-system' on 2024-07-22

   ID    Z sym.   atoms
    1    8 O      1, 10, 11
    2    6 C      2-8, 12-19, 21-36
    3   16 S      9
    4    7 N      20
    5    1 H      37-57

          program call               : xtb data2507/toluene/TXO-TPA/TXO-TPA_toluene_S0_finalOpt.xtbopt.xyz --gfn 2 --uhf 2 --gbsa toluene --ohess vtight --parallel 40 --molden --ceasefiles --namespace data2507/toluene/TXO-TPA/TXO-TPA_toluene_T1_preOpt
      * Solvation model:               GBSA
        Solvent                        toluene
        Solvent mass                       9.2140E+01 g/mol
          :  Hamiltonian                  GFN2-xTB          :
 * total energy  :   -95.3951617 Eh     change       -0.5463534E-08 Eh
 * total energy  :   -95.3993305 Eh     change       -0.4168814E-02 Eh
 * total energy  :   -95.4008827 Eh     change       -0.1552218E-02 Eh
 * total energy  :   -95.4012148 Eh     change       -0.3320193E-03 Eh
 * total energy  :   -95.4015204 Eh     change       -0.3056586E-03 Eh
 * total energy  :   -95.4016546 Eh     change       -0.1341824E-03 Eh
 * total energy  :   -95.4017292 Eh     change       -0.7461815E-04 Eh
 * total energy  :   -95.4017637 Eh     change       -0.3442827E-04 Eh
 * total energy  :   -95.4018049 Eh     change       -0.4129293E-04 Eh
 * total energy  :   -95.4018337 Eh     change       -0.2874124E-04 Eh
 * total energy  :   -95.4020026 Eh     change       -0.6668009E-06 Eh
 * total energy  :   -95.4020033 Eh     change       -0.6151769E-06 Eh
 * total energy  :   -95.4020037 Eh     change       -0.4891835E-06 Eh
 * total energy  :   -95.4020041 Eh     change       -0.3237180E-06 Eh
 * total energy  :   -95.4020043 Eh     change       -0.2636386E-06 Eh
 * total energy  :   -95.4020046 Eh     change       -0.3094269E-06 Eh
 * total energy  :   -95.4020049 Eh     change       -0.3003814E-06 Eh
 * total energy  :   -95.4020053 Eh     change       -0.3101023E-06 Eh
 * total energy  :   -95.4020053 Eh     change       -0.8073897E-08 Eh
   *** GEOMETRY OPTIMIZATION CONVERGED AFTER 44 ITERATIONS ***

 final structure:
================
57
 xtb: 6.7.1 (edcfbbe)
O            3.41528209199384        2.55044797895234       -0.22275036424201
C            3.96306585517052        1.41633862160264       -0.08774566568571
C            5.37322821156046        1.32206509415887        0.24426077164582
C            6.04582262239472        2.50099657296081        0.63416705855778
C            7.35482190381801        2.47105762614546        1.04699318103132
C            8.06062555656968        1.26847828381664        1.09210086262596
C            7.43244897565268        0.10361758844977        0.68761549623316
C            6.11864131110150        0.13671539623979        0.26579144222213
S            5.40453358389020       -1.34314064149608       -0.39698682824045
O            5.67225825473832       -1.38093587468430       -1.82763483296708
O            5.85832168291699       -2.50852230848344        0.34115994868300
C            3.66978422115853       -1.10045224229961       -0.15787977881748
C            2.83699922883513       -2.20056476698460       -0.08679270835260
C            1.46704878963270       -2.04144693582033       -0.04726737034111
C            0.91453318184282       -0.74459593831309       -0.10947334587046
C           -0.53227430429954       -0.54293529949660       -0.08163137728524
C           -1.36068862963968       -1.35937548032386        0.69957393602600
C           -2.72106831502319       -1.16514317975707        0.73663628122474
C           -3.31216360149655       -0.13614469172425       -0.01232106478607
N           -4.68151940985511        0.06949175803324        0.02689286425357
C           -5.20317091981323        1.36054114052287       -0.08987112216894
C           -4.54733982324099        2.44378012296449        0.50388451881020
C           -5.07403218074816        3.71494823079060        0.39131949995188
C           -6.25328758547690        3.92648380759494       -0.30880746328763
C           -6.90728501493487        2.85439404408618       -0.89937983676620
C           -6.39149104077525        1.57821225711019       -0.79412613484971
C           -5.55352744162846       -1.01090306787084        0.18741709942244
C           -6.70549950148901       -0.87540464846452        0.96822420932320
C           -7.56578858102571       -1.94438495819582        1.11997375201503
C           -7.29569454312971       -3.15589313624708        0.49954026316922
C           -6.15504916527781       -3.29377932286997       -0.27863219003681
C           -5.28560045426454       -2.23311992776481       -0.43715026609464
C           -2.48820572248049        0.68316583343156       -0.79954643728212
C           -1.12925942997624        0.48152028933764       -0.82886820918507
C            1.76135979004427        0.34796958980589       -0.16638495559451
C            3.16253872891342        0.21109834130450       -0.15395374033868
H            5.48292405243108        3.42260414088286        0.60467886790444
H            7.84131231908350        3.38846238946689        1.34403429666160
H            9.08696474723718        1.24605905566156        1.42284604301081
H            7.94207075596174       -0.84840717289274        0.68350783704244
H            3.29572544937613       -3.17803295478359       -0.08076215701552
H            0.82479857677738       -2.90655292923059       -0.02291810965261
H           -0.91834407050453       -2.13054802847587        1.31027026997582
H           -3.33787215164723       -1.78308380801937        1.37145763023898
H           -3.64284793163161        2.27542695763309        1.06882480224519
H           -4.56636692932628        4.54410493066559        0.86018854584694
H           -6.66024838267738        4.92221048555663       -0.39396617213429
H           -7.81950874271090        3.01642634578257       -1.45298367231168
H           -6.88760851947817        0.74702756562127       -1.27204850867496
H           -6.90338408407981        0.06104476318907        1.46746551025197
H           -8.44750606147899       -1.83575489655684        1.73291122480224
H           -7.97183797390868       -3.98804967111991        0.62076394470438
H           -5.94691202024603       -4.23086942357359       -0.77215087722168
H           -4.41014729292348       -2.33151920486887       -1.06122381952396
H           -2.93258920875699        1.45512898090862       -1.40942723949011
H           -0.51254914169774        1.09962625883169       -1.46242209988007
H            1.37635459898113        1.35733819321641       -0.16939154985435

          :  Hamiltonian                  GFN2-xTB          :
         :: gradient norm              0.000065114742 Eh/a0 ::
         :: HOMO-LUMO gap              0.737384089574 eV    ::
         :: SCC energy               -96.987612018506 Eh    ::
         :: -> dispersion             -0.078147201870 Eh    ::
         :: -> Gsolv                  -0.070251473262 Eh    ::
         :: repulsion energy           1.585606757926 Eh    ::

    * Orbital Energies and Occupations

         #    Occupation            Energy/Eh            Energy/eV
      -------------------------------------------------------------
         1        2.0000           -0.7660511             -20.8453
       ...           ...                  ...                  ...
        76        2.0000           -0.4319454             -11.7538
        77        2.0000           -0.4318802             -11.7521
        78        2.0000           -0.4283315             -11.6555
        79        2.0000           -0.4276586             -11.6372
        80        2.0000           -0.4249800             -11.5643
        81        2.0000           -0.4164154             -11.3312
        82        2.0000           -0.4157248             -11.3124
        83        2.0000           -0.4113288             -11.1928
        84        2.0000           -0.4098272             -11.1520
        85        2.0000           -0.4020386             -10.9400
        86        1.8141           -0.3795781             -10.3288
        87        1.1859           -0.3767724             -10.2525
        88        1.0000           -0.2980173              -8.1095 (HOMO)
        89        0.0000           -0.2709179              -7.3721 (LUMO)
        90                         -0.2565197              -6.9803
        91                         -0.2499593              -6.8017
        92                         -0.2442114              -6.6453
        93                         -0.2439642              -6.6386
        94                         -0.2420035              -6.5853
        95                         -0.2381450              -6.4803
        96                         -0.2336858              -6.3589
        97                         -0.2151306              -5.8540
        98                         -0.1748619              -4.7582
        99                         -0.1292951              -3.5183
       ...                                ...                  ...
       170                          1.1575764              31.4993
      -------------------------------------------------------------
                  HL-Gap            0.0270994 Eh            0.7374 eV

     #   Z          covCN         q      C6AA      α(0)
     1   8 O        0.858    -0.488    23.518     6.502
     2   6 C        2.834     0.164    24.462     8.105
     3   6 C        3.008    -0.020    28.480     8.754
     4   6 C        2.927    -0.025    28.628     8.775
     5   6 C        2.915    -0.029    28.734     8.790
     6   6 C        2.919    -0.036    28.894     8.815
     7   6 C        2.968    -0.024    28.603     8.772
     8   6 C        2.971    -0.086    30.161     9.008
     9  16 S        3.852     0.923   108.880    17.562
    10   8 O        0.860    -0.599    26.082     6.847
    11   8 O        0.860    -0.580    25.627     6.787
    12   6 C        2.970    -0.089    30.230     9.019
    13   6 C        2.960    -0.023    28.584     8.769
    14   6 C        2.922    -0.045    29.115     8.849
    15   6 C        2.972     0.013    27.712     8.635
    16   6 C        2.976     0.027    27.392     8.585
    17   6 C        2.921    -0.026    28.644     8.777
    18   6 C        2.917    -0.036    28.891     8.814
    19   6 C        2.926     0.064    26.559     8.451
    20   7 N        2.753     0.005    21.173     6.834
    21   6 C        2.928     0.062    26.615     8.460
    22   6 C        2.920    -0.035    28.874     8.812
    23   6 C        2.918    -0.021    28.528     8.759
    24   6 C        2.919    -0.021    28.526     8.758
    25   6 C        2.918    -0.021    28.534     8.760
    26   6 C        2.920    -0.035    28.874     8.812
    27   6 C        2.928     0.062    26.619     8.461
    28   6 C        2.920    -0.035    28.871     8.811
    29   6 C        2.918    -0.021    28.533     8.759
    30   6 C        2.919    -0.021    28.532     8.759
    31   6 C        2.918    -0.021    28.531     8.759
    32   6 C        2.920    -0.035    28.880     8.813
    33   6 C        2.917    -0.035    28.879     8.812
    34   6 C        2.921    -0.025    28.620     8.773
    35   6 C        2.934    -0.027    28.671     8.781
    36   6 C        3.007    -0.022    28.536     8.763
    37   1 H        0.926     0.057     2.231     2.336
    38   1 H        0.926     0.055     2.253     2.347
    39   1 H        0.926     0.053     2.283     2.363
    40   1 H        0.926     0.041     2.436     2.441
    41   1 H        0.926     0.043     2.403     2.424
    42   1 H        0.926     0.060     2.202     2.320
    43   1 H        0.926     0.061     2.184     2.311
    44   1 H        0.926     0.063     2.167     2.302
    45   1 H        0.926     0.054     2.270     2.356
    46   1 H        0.926     0.054     2.275     2.359
    47   1 H        0.926     0.053     2.280     2.361
    48   1 H        0.926     0.055     2.254     2.348
    49   1 H        0.926     0.056     2.247     2.344
    50   1 H        0.926     0.055     2.254     2.348
    51   1 H        0.926     0.055     2.258     2.350
    52   1 H        0.926     0.053     2.280     2.361
    53   1 H        0.926     0.054     2.269     2.355
    54   1 H        0.926     0.055     2.263     2.353
    55   1 H        0.926     0.061     2.187     2.313
    56   1 H        0.926     0.057     2.236     2.339
    57   1 H        0.926     0.064     2.151     2.293

molecular dipole:
                 x           y           z       tot (Debye)
 q only:      -11.292       0.492       1.402
   full:      -10.903       0.287       1.319      27.924

 projected vibrational frequencies (cm⁻¹)
eigval :       -0.00    -0.00     0.00     0.00     0.00     0.00
eigval :       11.79    17.36    22.81    28.50    48.12    53.00
eigval :       60.17    70.13    74.74    93.15   103.52   106.95
eigval :      132.33   142.20   154.94   159.00   199.75   211.12
eigval :      230.22   234.58   266.63   275.29   293.75   297.18
eigval :      316.63   329.59   345.46   352.47   363.24   376.35
eigval :      377.46   384.07   388.26   416.08   418.07   421.48
eigval :      438.06   472.15   483.39   485.79   503.19   522.90
eigval :      536.09   538.45   571.40   581.39   583.98   591.65
eigval :      595.54   600.52   615.06   630.21   649.85   655.04
eigval :      659.33   664.48   672.09   693.59   708.83   731.49
eigval :      758.03   759.90   760.11   790.36   805.75   825.98
eigval :      852.98   865.17   867.80   869.36   871.09   899.64
eigval :      900.46   900.73   901.79   908.51   909.19   915.60
eigval :      917.68   926.58   929.16   930.55   932.35   933.02
eigval :      938.21   980.48   999.29  1002.24  1009.86  1050.42
eigval :     1061.17  1070.13  1073.14  1076.46  1077.41  1119.26
eigval :     1121.08  1138.71  1139.69  1154.59  1158.90  1162.77
eigval :     1173.66  1175.39  1175.63  1176.40  1186.48  1187.37
eigval :     1209.73  1215.58  1223.38  1226.33  1260.82  1268.38
eigval :     1270.56  1278.19  1287.32  1301.98  1313.89  1322.21
eigval :     1323.71  1333.58  1341.07  1357.64  1393.76  1412.23
eigval :     1413.31  1417.23  1427.86  1432.86  1440.89  1443.31
eigval :     1447.76  1465.39  1487.73  1510.46  1513.64  1533.57
eigval :     1556.63  1558.88  1565.08  1571.33  1576.45  1582.12
eigval :     3078.04  3084.26  3085.26  3086.35  3087.53  3087.85
eigval :     3088.33  3088.51  3089.08  3091.32  3092.24  3094.87
eigval :     3095.75  3099.06  3099.89  3100.42  3104.27  3105.10
eigval :     3105.37  3106.05  3107.69

   temp. (K)  partition function   enthalpy   heat capacity  entropy
                                   cal/mol     cal/K/mol   cal/K/mol   J/K/mol
 298.15  VIB  0.572E+13            16861.313    107.302    104.274
         ROT  0.477E+08              888.752      2.981     38.117
         INT  0.273E+21            17750.066    110.283    142.391
         TR   0.104E+29             1481.254      4.968     44.420
         TOT                       19231.3195   115.2511   186.8108   781.6164

       T/K    H(0)-H(T)+PV         H(T)/Eh          T*S/Eh         G(T)/Eh
   ------------------------------------------------------------------------
    298.15    0.306471E-01    0.451114E+00    0.887598E-01    0.362354E+00
   ------------------------------------------------------------------------

         :::::::::::::::::::::::::::::::::::::::::::::::::::::
         ::                  THERMODYNAMIC                  ::
         :::::::::::::::::::::::::::::::::::::::::::::::::::::
         :: total free energy         -95.039651336732 Eh   ::
         ::.................................................::
         :: total energy              -95.402005264887 Eh   ::
         :: zero point energy           0.420466706729 Eh   ::
         :: G(RRHO) w/o ZPVE           -0.058112778574 Eh   ::
         :: G(RRHO) contrib.            0.362353928155 Eh   ::
         :::::::::::::::::::::::::::::::::::::::::::::::::::::

           -------------------------------------------------
          | TOTAL ENERGY              -95.402005264887 Eh   |
          | TOTAL ENTHALPY            -94.950891499787 Eh   |
          | TOTAL FREE ENERGY         -95.039651336732 Eh   |
          | GRADIENT NORM               0.000063755553 Eh/α |
          | HOMO-LUMO GAP               0.737413440371 eV   |
           -------------------------------------------------

 * finished run on 2025/07/16 at 13:16:35.695
