   * xtb version 6.7.1 (edcfbbe) compiled by 'albert@albert-system' on 2024-07-22

   ID    Z sym.   atoms
    1    9 F      1, 4, 8, 10, 12, 14, 16, 19, 21, 23, 25, 27, 31, 33, 35,
                  37, 39, 42, 44, 46, 48, 50, 54, 56, 58, 60, 62
    2    6 C      2, 3, 5-7, 9, 11, 13, 15, 17, 18, 20, 22, 24, 26, 28-30,
                  32, 34, 36, 38, 40, 41, 43, 45, 47, 49, 52, 53, 55, 57, 59,
                  61
    3    5 B      51

          program call               : xtb data2507/toluene/Et3SiH/Et3SiH_toluene_T1_crest.xyz --gfn 2 --uhf 2 --gbsa toluene --ohess vtight --parallel 40 --molden --ceasefiles --namespace data2507/toluene/Et3SiH/Et3SiH_toluene_T1_finalOpt
      * Solvation model:               GBSA
        Solvent                        toluene
        Solvent mass                       9.2140E+01 g/mol
          :  Hamiltonian                  GFN2-xTB          :
 * total energy  :  -201.5734500 Eh     change       -0.2900435E-08 Eh
 * total energy  :  -201.5736912 Eh     change       -0.2411526E-03 Eh
 * total energy  :  -201.5738098 Eh     change       -0.1185908E-03 Eh
 * total energy  :  -201.5738426 Eh     change       -0.3283904E-04 Eh
 * total energy  :  -201.5738710 Eh     change       -0.2836187E-04 Eh
 * total energy  :  -201.5738971 Eh     change       -0.2616590E-04 Eh
 * total energy  :  -201.5739173 Eh     change       -0.2016215E-04 Eh
 * total energy  :  -201.5739325 Eh     change       -0.1521230E-04 Eh
 * total energy  :  -201.5739459 Eh     change       -0.1340315E-04 Eh
 * total energy  :  -201.5739523 Eh     change       -0.6362493E-05 Eh
 * total energy  :  -201.5739895 Eh     change       -0.3917201E-06 Eh
 * total energy  :  -201.5739899 Eh     change       -0.3770638E-06 Eh
 * total energy  :  -201.5739903 Eh     change       -0.3863520E-06 Eh
 * total energy  :  -201.5739906 Eh     change       -0.3646029E-06 Eh
 * total energy  :  -201.5739910 Eh     change       -0.3653510E-06 Eh
 * total energy  :  -201.5739913 Eh     change       -0.3369962E-06 Eh
 * total energy  :  -201.5739917 Eh     change       -0.3330839E-06 Eh
 * total energy  :  -201.5739920 Eh     change       -0.3017902E-06 Eh
 * total energy  :  -201.5739920 Eh     change       -0.3093874E-08 Eh
   *** GEOMETRY OPTIMIZATION CONVERGED AFTER 44 ITERATIONS ***

 final structure:
================
62
 xtb: 6.7.1 (edcfbbe)
F           -1.16912711966238        0.54282210274924       -3.62537756442477
C           -0.70131637810330        0.37447309494651       -2.40209358710894
C            0.71752307165174        0.65777587283566       -2.17270473163546
F            1.57620151677011        0.42332824195433       -3.18361007735144
C            1.05950127561400        0.37777769793135       -0.71215039413287
C            2.39537754714616       -0.23920005236176       -0.42351506318460
C            3.31335432233880        0.28591192460922        0.48877911514686
F            3.03909682886430        1.39859729688327        1.16154942125753
C            4.55258594367974       -0.30989893967435        0.71106305372328
F            5.39011982189750        0.22859606921931        1.59330385854808
C            4.91652859460257       -1.45593242757329        0.01110450821076
F            6.09574903774076       -2.02873061516770        0.22035339695304
C            4.02544949878706       -1.99219976401761       -0.91404667242871
F            4.34075626782734       -3.09367095318344       -1.59304546306648
C            2.79277660474831       -1.38404414731509       -1.12161927003223
F            1.96371938492266       -1.94023248447334       -2.00946848945793
C            1.07182343480700        1.85664961421933       -1.24218562861965
C            2.39137637074883        2.47762371700803       -1.47628013149606
F            3.38474316014162        1.70016625363902       -1.92672861742479
C            2.65592494133464        3.80516782406615       -1.27707539992682
F            3.88616231752580        4.26687084450883       -1.49720111798712
C            1.64790609515445        4.69565629070611       -0.87027419646238
F            1.91081772579828        5.98402748543537       -0.68495910344529
C            0.34779785520665        4.19355543598897       -0.69845591263954
F           -0.63403354328241        5.02611563434253       -0.35561234006205
C            0.06261276722640        2.86773499561136       -0.89044338442780
F           -1.20491897219462        2.47388173654882       -0.70295007929608
C           -0.20436647359858       -0.24218392952552       -0.01484865182135
C            0.10687137355970       -1.74246838461500        0.14895913888320
C           -0.39808381222312       -2.73235534778428       -0.69007486740362
F           -1.19156119155176       -2.40896961526559       -1.70675177251855
C           -0.11030799605331       -4.08445463600416       -0.51112321386873
F           -0.62920933948031       -4.98154772211870       -1.34358355968905
C            0.71252127135210       -4.49200174140858        0.53334365269848
F            0.99683712270865       -5.77634410974051        0.71390669966053
C            1.23383161196175       -3.52529714360897        1.38815396744657
F            2.03672707375314       -3.87401133087407        2.39322926517433
C            0.92681276216245       -2.18349806199450        1.19140697746002
F            1.45976411685721       -1.30334707815284        2.05115450877611
C           -0.58537557909221        0.23501793582260        1.38355496972124
C           -0.12300051372002        1.35925878222937        2.05777536598450
F            0.75609701497868        2.19290443582507        1.50131488854066
C           -0.54846007533305        1.69363889334209        3.34369607865004
F           -0.05661398307323        2.78849159955665        3.92123742041081
C           -1.46723950700092        0.89980282458096        4.01407180638986
F           -1.87156748540874        1.20845627105699        5.24250075286328
C           -1.96366149893464       -0.22492698790919        3.36263220179365
F           -2.86388427621130       -1.00869652445918        3.95689522663345
C           -1.52831475645331       -0.53306165980326        2.08174593849063
F           -2.08324499616435       -1.60695644641951        1.49860470196383
B           -1.41000239095470        0.00412843091026       -1.12585784692985
C           -2.97146516215666       -0.03753840424094       -0.99275814798013
C           -3.70808540208174        0.62049482003769       -0.00147516136191
F           -3.08333521700704        1.37096794947406        0.91514488720066
C           -5.09558970456074        0.57879808746832        0.06663357374928
F           -5.73342410553399        1.22714005895847        1.04381971478415
C           -5.81709995689068       -0.13449921041956       -0.88629075459323
F           -7.14435953431326       -0.18976217170866       -0.82749567575813
C           -5.12540416058402       -0.77306953470093       -1.91177438296609
F           -5.79662577072056       -1.44184740974465       -2.85073648377179
C           -3.73694704421123       -0.70398298136274       -1.96257465967618
F           -3.13443739781324       -1.31496616234287       -2.98011324966240

          :  Hamiltonian                  GFN2-xTB          :
         :: gradient norm              0.000038278656 Eh/a0 ::
         :: HOMO-LUMO gap              1.749872284567 eV    ::
         :: SCC energy              -202.996147224326 Eh    ::
         :: -> dispersion             -0.106920862518 Eh    ::
         :: -> Gsolv                  -0.029205984263 Eh    ::
         :: repulsion energy           1.422155266178 Eh    ::

    * Orbital Energies and Occupations

         #    Occupation            Energy/Eh            Energy/eV
      -------------------------------------------------------------
         1        2.0000           -0.9002032             -24.4958
       ...           ...                  ...                  ...
       153        2.0000           -0.4982318             -13.5576
       154        2.0000           -0.4962577             -13.5039
       155        2.0000           -0.4841433             -13.1742
       156        2.0000           -0.4837545             -13.1636
       157        2.0000           -0.4797409             -13.0544
       158        2.0000           -0.4772948             -12.9879
       159        2.0000           -0.4763689             -12.9627
       160        2.0000           -0.4737566             -12.8916
       161        2.0000           -0.4697057             -12.7813
       162        2.0000           -0.4660169             -12.6810
       163        2.0000           -0.4644282             -12.6377
       164        1.0000           -0.4328824             -11.7793
       165        1.0000           -0.3932660             -10.7013 (HOMO)
       166                         -0.3289594              -8.9514 (LUMO)
       167                         -0.3265738              -8.8865
       168                         -0.3231955              -8.7946
       169                         -0.3210739              -8.7369
       170                         -0.3151764              -8.5764
       171                         -0.3128965              -8.5143
       172                         -0.3102362              -8.4420
       173                         -0.3088172              -8.4033
       174                         -0.3046400              -8.2897
       175                         -0.2666985              -7.2572
       176                         -0.2369169              -6.4468
       ...                                ...                  ...
       248                          0.5675219              15.4431
      -------------------------------------------------------------
                  HL-Gap            0.0643066 Eh            1.7499 eV

     #   Z          covCN         q      C6AA      α(0)
     1   9 F        0.785    -0.111    10.360     3.802
     2   6 C        2.682     0.093    25.909     8.330
     3   6 C        3.726     0.187    17.717     6.010
     4   9 F        0.785    -0.182    11.055     3.928
     5   6 C        3.916     0.024    20.113     6.374
     6   6 C        2.961    -0.016    28.403     8.742
     7   6 C        2.784     0.163    24.472     8.103
     8   9 F        0.788    -0.154    10.771     3.877
     9   6 C        2.776     0.150    24.722     8.144
    10   9 F        0.787    -0.148    10.716     3.867
    11   6 C        2.776     0.156    24.610     8.125
    12   9 F        0.787    -0.143    10.668     3.858
    13   6 C        2.775     0.146    24.804     8.157
    14   9 F        0.787    -0.152    10.750     3.873
    15   6 C        2.787     0.149    24.756     8.150
    16   9 F        0.788    -0.168    10.909     3.902
    17   6 C        3.907     0.016    20.245     6.395
    18   6 C        2.771     0.140    24.941     8.179
    19   9 F        0.787    -0.160    10.833     3.888
    20   6 C        2.766     0.154    24.647     8.131
    21   9 F        0.788    -0.153    10.764     3.875
    22   6 C        2.773     0.143    24.866     8.167
    23   9 F        0.786    -0.135    10.582     3.843
    24   6 C        2.767     0.157    24.597     8.122
    25   9 F        0.788    -0.152    10.752     3.873
    26   6 C        2.769     0.130    25.134     8.211
    27   9 F        0.788    -0.156    10.788     3.880
    28   6 C        3.816    -0.026    21.022     6.526
    29   6 C        2.971    -0.019    28.468     8.752
    30   6 C        2.787     0.159    24.545     8.115
    31   9 F        0.788    -0.144    10.677     3.860
    32   6 C        2.776     0.153    24.677     8.136
    33   9 F        0.787    -0.146    10.689     3.862
    34   6 C        2.776     0.155    24.638     8.130
    35   9 F        0.787    -0.144    10.675     3.859
    36   6 C        2.776     0.144    24.858     8.166
    37   9 F        0.787    -0.154    10.772     3.877
    38   6 C        2.788     0.142    24.884     8.171
    39   9 F        0.787    -0.177    11.006     3.919
    40   6 C        2.966    -0.009    28.232     8.715
    41   6 C        2.788     0.159    24.547     8.116
    42   9 F        0.789    -0.171    10.945     3.908
    43   6 C        2.779     0.150    24.738     8.146
    44   9 F        0.787    -0.153    10.764     3.875
    45   6 C        2.776     0.153    24.666     8.134
    46   9 F        0.787    -0.151    10.739     3.871
    47   6 C        2.777     0.148    24.762     8.150
    48   9 F        0.787    -0.157    10.801     3.882
    49   6 C        2.794     0.148    24.782     8.155
    50   9 F        0.788    -0.179    11.019     3.921
    51   5 B        2.707     0.250    17.715     7.059
    52   6 C        2.879    -0.073    29.806     8.950
    53   6 C        2.787     0.158    24.566     8.119
    54   9 F        0.788    -0.182    11.050     3.927
    55   6 C        2.774     0.147    24.789     8.155
    56   9 F        0.787    -0.162    10.846     3.890
    57   6 C        2.777     0.156    24.615     8.126
    58   9 F        0.787    -0.150    10.730     3.869
    59   6 C        2.774     0.148    24.768     8.151
    60   9 F        0.787    -0.159    10.816     3.885
    61   6 C        2.788     0.164    24.454     8.100
    62   9 F        0.788    -0.156    10.792     3.880

molecular dipole:
                 x           y           z       tot (Debye)
 q only:       -0.070       0.069      -0.540
   full:        0.027       0.043      -0.520       1.328

 projected vibrational frequencies (cm⁻¹)
eigval :       -0.00    -0.00     0.00     0.00     0.00     0.00
eigval :       14.87    20.44    22.24    29.02    31.91    34.40
eigval :       35.56    38.97    45.67    48.53    56.38    62.95
eigval :       75.76    84.13    93.97    99.86   105.69   110.82
eigval :      117.91   121.25   123.12   128.97   133.63   134.47
eigval :      136.62   138.65   140.38   147.96   154.48   157.81
eigval :      164.56   165.77   168.46   173.27   185.28   188.95
eigval :      195.49   215.36   226.56   234.63   238.13   239.51
eigval :      240.58   241.02   241.66   242.26   243.13   249.31
eigval :      251.82   253.20   253.52   255.20   257.20   285.44
eigval :      290.52   292.44   294.47   297.57   298.48   320.04
eigval :      327.39   332.40   335.99   342.20   346.29   364.52
eigval :      380.71   393.58   399.90   401.96   405.80   409.07
eigval :      411.10   413.15   414.42   415.23   418.08   419.23
eigval :      421.16   429.67   445.96   447.89   450.15   458.80
eigval :      465.41   471.62   515.45   533.33   548.91   551.52
eigval :      555.16   563.92   564.77   567.53   568.03   573.32
eigval :      583.87   588.05   588.62   588.90   589.40   591.08
eigval :      599.18   605.43   618.41   638.35   643.50   645.82
eigval :      660.47   666.74   676.99   686.71   703.57   712.38
eigval :      720.01   744.96   752.73   764.97   774.93   859.37
eigval :      869.05   898.62   945.54   947.09   950.54   959.67
eigval :      965.96   976.83   984.83   999.76  1021.58  1037.39
eigval :     1056.16  1079.85  1089.93  1095.87  1097.23  1105.85
eigval :     1108.10  1111.23  1124.03  1147.17  1176.78  1208.77
eigval :     1209.58  1211.29  1217.85  1233.54  1266.97  1279.02
eigval :     1285.31  1285.94  1287.79  1291.15  1305.01  1356.04
eigval :     1367.36  1394.32  1404.74  1409.33  1414.50  1425.06
eigval :     1441.57  1443.37  1447.14  1448.60  1468.42  1474.81
eigval :     1476.38  1482.70  1507.89  1530.92  1547.24  1550.63
eigval :     1553.05  1556.82  1559.43  1560.63  1566.82  1569.91

   temp. (K)  partition function   enthalpy   heat capacity  entropy
                                   cal/mol     cal/K/mol   cal/K/mol   J/K/mol
 298.15  VIB  0.117E+25            32637.042    185.300    203.548
         ROT  0.991E+08              888.752      2.981     39.569
         INT  0.116E+33            33525.795    188.281    243.117
         TR   0.275E+29             1481.254      4.968     46.351
         TOT                       35007.0485   193.2490   289.4680  1211.1340

       T/K    H(0)-H(T)+PV         H(T)/Eh          T*S/Eh         G(T)/Eh
   ------------------------------------------------------------------------
    298.15    0.557873E-01    0.323944E+00    0.137536E+00    0.186409E+00
   ------------------------------------------------------------------------

         :::::::::::::::::::::::::::::::::::::::::::::::::::::
         ::                  THERMODYNAMIC                  ::
         :::::::::::::::::::::::::::::::::::::::::::::::::::::
         :: total free energy        -201.387583396209 Eh   ::
         ::.................................................::
         :: total energy             -201.573991958383 Eh   ::
         :: zero point energy           0.268156859628 Eh   ::
         :: G(RRHO) w/o ZPVE           -0.081748297454 Eh   ::
         :: G(RRHO) contrib.            0.186408562174 Eh   ::
         :::::::::::::::::::::::::::::::::::::::::::::::::::::

           -------------------------------------------------
          | TOTAL ENERGY             -201.573991958383 Eh   |
          | TOTAL ENTHALPY           -201.250047815978 Eh   |
          | TOTAL FREE ENERGY        -201.387583396209 Eh   |
          | GRADIENT NORM               0.000038290362 Eh/α |
          | HOMO-LUMO GAP               1.749871977070 eV   |
           -------------------------------------------------

 * finished run on 2025/09/09 at 22:36:11.298
