   * xtb version 6.7.1 (edcfbbe) compiled by 'albert@albert-system' on 2024-07-22

   ID    Z sym.   atoms
    1    9 F      1, 4, 8, 10, 12, 14, 16, 19, 21, 23, 25, 27, 31, 33, 35,
                  37, 39, 42, 44, 46, 48, 50, 54, 56, 58, 60, 62
    2    6 C      2, 3, 5-7, 9, 11, 13, 15, 17, 18, 20, 22, 24, 26, 28-30,
                  32, 34, 36, 38, 40, 41, 43, 45, 47, 49, 52, 53, 55, 57, 59,
                  61
    3    5 B      51

          program call               : xtb data2507/toluene/Et3SiH/Et3SiH_toluene_S0_finalOpt.xtbopt.xyz --gfn 2 --uhf 2 --gbsa toluene --ohess vtight --parallel 40 --molden --ceasefiles --namespace data2507/toluene/Et3SiH/Et3SiH_toluene_T1_preOpt
      * Solvation model:               GBSA
        Solvent                        toluene
        Solvent mass                       9.2140E+01 g/mol
          :  Hamiltonian                  GFN2-xTB          :
 * total energy  :  -201.5481959 Eh     change       -0.2322054E-10 Eh
 * total energy  :  -201.5532781 Eh     change       -0.5082198E-02 Eh
 * total energy  :  -201.5553664 Eh     change       -0.2088275E-02 Eh
 * total energy  :  -201.5560733 Eh     change       -0.7069045E-03 Eh
 * total energy  :  -201.5571639 Eh     change       -0.1090550E-02 Eh
 * total energy  :  -201.5588347 Eh     change       -0.1670883E-02 Eh
 * total energy  :  -201.5620646 Eh     change       -0.3229902E-02 Eh
 * total energy  :  -201.5679769 Eh     change       -0.5912251E-02 Eh
 * total energy  :  -201.5424998 Eh     change        0.2547706E-01 Eh
 * total energy  :  -201.5708795 Eh     change       -0.2837967E-01 Eh
 * total energy  :  -201.5740099 Eh     change       -0.7568063E-06 Eh
 * total energy  :  -201.5740103 Eh     change       -0.4007284E-06 Eh
 * total energy  :  -201.5740105 Eh     change       -0.2092236E-06 Eh
 * total energy  :  -201.5740107 Eh     change       -0.1938900E-06 Eh
 * total energy  :  -201.5740110 Eh     change       -0.2194765E-06 Eh
 * total energy  :  -201.5740112 Eh     change       -0.2468452E-06 Eh
 * total energy  :  -201.5740114 Eh     change       -0.1939178E-06 Eh
 * total energy  :  -201.5740115 Eh     change       -0.1195785E-06 Eh
 * total energy  :  -201.5740116 Eh     change       -0.9213258E-07 Eh
   *** GEOMETRY OPTIMIZATION CONVERGED AFTER 43 ITERATIONS ***

 final structure:
================
62
 xtb: 6.7.1 (edcfbbe)
F           -1.21028046952950        0.64884688280855       -3.58925121055769
C           -0.72822606046877        0.45095899028166       -2.37591170829756
C            0.65742674788634        0.85209591720709       -2.12189033828859
F            1.53411903734470        0.76085524691315       -3.14053772132944
C            1.02452988013061        0.51483660980846       -0.67943970170545
C            2.41097797465865        0.00241317122962       -0.42663729791503
C            3.28287493054764        0.54838913246832        0.51796571575209
F            2.91354175943610        1.58680125207905        1.26025527030556
C            4.57173315079718        0.05322404824866        0.70196153180700
F            5.36283211938239        0.60730678567961        1.61679635309041
C            5.03284250791735       -1.00879087695552       -0.06955831682900
F            6.25992771613731       -1.48533849629798        0.10274025287656
C            4.18839567204130       -1.56325140498841       -1.02720022794416
F            4.59751974544140       -2.58663054210472       -1.77482169933831
C            2.90508679949895       -1.05622560955828       -1.19562785663025
F            2.12372638071062       -1.62766547560283       -2.11638377463452
C            0.90050776836575        2.01846616729282       -1.11781939855948
C            2.15749850749365        2.77135937019520       -1.30378738322651
F            3.21797322303813        2.11871218963204       -1.79723016870496
C            2.29933459839983        4.10160875783034       -1.01660881812951
F            3.48267150216568        4.68681632555943       -1.19644878404672
C            1.21335761360457        4.86838739849283       -0.56122528027679
F            1.35706639839504        6.16074434643126       -0.29203537876878
C           -0.03608630833920        4.24013080706073       -0.43364350578899
F           -1.09114080189106        4.95606836517442       -0.04757681837264
C           -0.19797249445367        2.90858217580585       -0.71094791010271
F           -1.42485723583334        2.38975786047499       -0.56056493061411
C           -0.17679187656884       -0.25749544287981       -0.02575217525307
C            0.27157804328468       -1.72917811263507        0.05856981419200
C           -0.13649828677906       -2.71284675805149       -0.83836513700633
F           -0.95021319251821       -2.40626075402187       -1.84418072687041
C            0.27353398412653       -4.04078957835886       -0.73109124749531
F           -0.15573421395740       -4.93407865075311       -1.61697620788024
C            1.12494707809793       -4.42851663415084        0.29790656271055
F            1.52550911524785       -5.68947088443298        0.41032844229945
C            1.55113828751902       -3.46719313844185        1.20968032650142
F            2.37694483248336       -3.79678984781759        2.20258823947858
C            1.12455416286213       -2.14988380010062        1.08271941408105
F            1.57291856964730       -1.27272549289434        1.99218024019849
C           -0.60275466634623        0.10476102364490        1.39416559987242
C           -0.24112440921037        1.22371309277281        2.13534054451839
F            0.56925991676024        2.15749672208488        1.63646059221522
C           -0.70119121316303        1.44765636829717        3.43325535391915
F           -0.30946677229187        2.54687003541321        4.07552483263379
C           -1.55237591538259        0.54174779541807        4.04855717214840
F           -1.99019910597306        0.74558844785413        5.28728440587059
C           -1.94370813441700       -0.58466093440651        3.33157160481538
F           -2.77419603211877       -1.47628526055492        3.87300915482416
C           -1.47721337045208       -0.78121677080159        2.03974555859291
F           -1.93141070854558       -1.86572732088855        1.39274881987355
B           -1.39915559345719       -0.06148988737831       -1.12877420124894
C           -2.95062331318658       -0.25528688563644       -1.01257645181467
C           -3.75033122844808        0.27737826594446        0.00477110596567
F           -3.20181696934321        1.02653958222021        0.96995973552840
C           -5.12920232884106        0.10974625757561        0.05271890461598
F           -5.82966121028463        0.64410383794758        1.05564215607351
C           -5.77736829159735       -0.60889913325532       -0.94778104081565
F           -7.09509358923298       -0.78300596233059       -0.90975216077313
C           -5.02355806732820       -1.12645425306634       -1.99739028874696
F           -5.62491580232699       -1.79770798110346       -2.98087556100407
C           -3.64641597409571       -0.93203302752187       -2.02675354975199
F           -2.98420175152516       -1.42997756641793       -3.06852065724421

          :  Hamiltonian                  GFN2-xTB          :
         :: gradient norm              0.000035011097 Eh/a0 ::
         :: HOMO-LUMO gap              1.752055663084 eV    ::
         :: SCC energy              -202.996134990269 Eh    ::
         :: -> dispersion             -0.106902207967 Eh    ::
         :: -> Gsolv                  -0.029257864858 Eh    ::
         :: repulsion energy           1.422123378396 Eh    ::

    * Orbital Energies and Occupations

         #    Occupation            Energy/Eh            Energy/eV
      -------------------------------------------------------------
         1        2.0000           -0.9002571             -24.4972
       ...           ...                  ...                  ...
       153        2.0000           -0.4981835             -13.5563
       154        2.0000           -0.4962325             -13.5032
       155        2.0000           -0.4841080             -13.1732
       156        2.0000           -0.4837649             -13.1639
       157        2.0000           -0.4796831             -13.0528
       158        2.0000           -0.4772877             -12.9877
       159        2.0000           -0.4763411             -12.9619
       160        2.0000           -0.4738069             -12.8929
       161        2.0000           -0.4697301             -12.7820
       162        2.0000           -0.4660215             -12.6811
       163        2.0000           -0.4643800             -12.6364
       164        1.0000           -0.4328616             -11.7788
       165        1.0000           -0.3933448             -10.7035 (HOMO)
       166                         -0.3289579              -8.9514 (LUMO)
       167                         -0.3265831              -8.8868
       168                         -0.3231216              -8.7926
       169                         -0.3209385              -8.7332
       170                         -0.3152273              -8.5778
       171                         -0.3128572              -8.5133
       172                         -0.3102584              -8.4426
       173                         -0.3088468              -8.4041
       174                         -0.3046127              -8.2889
       175                         -0.2668714              -7.2619
       176                         -0.2369517              -6.4478
       ...                                ...                  ...
       248                          0.5674830              15.4420
      -------------------------------------------------------------
                  HL-Gap            0.0643869 Eh            1.7521 eV

     #   Z          covCN         q      C6AA      α(0)
     1   9 F        0.785    -0.112    10.362     3.802
     2   6 C        2.682     0.093    25.909     8.330
     3   6 C        3.726     0.187    17.716     6.010
     4   9 F        0.785    -0.183    11.057     3.928
     5   6 C        3.916     0.024    20.113     6.374
     6   6 C        2.961    -0.016    28.406     8.742
     7   6 C        2.784     0.163    24.470     8.103
     8   9 F        0.788    -0.154    10.769     3.876
     9   6 C        2.776     0.150    24.723     8.144
    10   9 F        0.787    -0.148    10.716     3.867
    11   6 C        2.776     0.156    24.611     8.125
    12   9 F        0.787    -0.143    10.668     3.858
    13   6 C        2.775     0.146    24.804     8.157
    14   9 F        0.787    -0.152    10.749     3.873
    15   6 C        2.787     0.149    24.757     8.150
    16   9 F        0.788    -0.168    10.908     3.901
    17   6 C        3.907     0.016    20.243     6.395
    18   6 C        2.771     0.140    24.939     8.179
    19   9 F        0.787    -0.160    10.832     3.888
    20   6 C        2.766     0.154    24.647     8.130
    21   9 F        0.788    -0.153    10.764     3.875
    22   6 C        2.773     0.143    24.865     8.167
    23   9 F        0.786    -0.135    10.581     3.842
    24   6 C        2.767     0.156    24.598     8.122
    25   9 F        0.788    -0.152    10.753     3.873
    26   6 C        2.769     0.130    25.137     8.211
    27   9 F        0.788    -0.156    10.790     3.880
    28   6 C        3.815    -0.026    21.022     6.526
    29   6 C        2.972    -0.019    28.469     8.752
    30   6 C        2.787     0.159    24.545     8.115
    31   9 F        0.788    -0.144    10.676     3.860
    32   6 C        2.776     0.153    24.679     8.136
    33   9 F        0.787    -0.146    10.689     3.862
    34   6 C        2.776     0.154    24.640     8.130
    35   9 F        0.787    -0.144    10.675     3.859
    36   6 C        2.775     0.144    24.858     8.166
    37   9 F        0.787    -0.154    10.772     3.877
    38   6 C        2.788     0.143    24.883     8.171
    39   9 F        0.787    -0.177    11.003     3.918
    40   6 C        2.966    -0.009    28.234     8.716
    41   6 C        2.788     0.159    24.549     8.116
    42   9 F        0.789    -0.172    10.947     3.908
    43   6 C        2.779     0.150    24.739     8.147
    44   9 F        0.787    -0.153    10.764     3.875
    45   6 C        2.776     0.153    24.666     8.134
    46   9 F        0.787    -0.151    10.739     3.871
    47   6 C        2.777     0.148    24.762     8.150
    48   9 F        0.787    -0.157    10.800     3.882
    49   6 C        2.794     0.148    24.780     8.154
    50   9 F        0.788    -0.179    11.017     3.921
    51   5 B        2.707     0.250    17.715     7.059
    52   6 C        2.879    -0.073    29.806     8.950
    53   6 C        2.787     0.158    24.565     8.119
    54   9 F        0.788    -0.182    11.049     3.927
    55   6 C        2.774     0.147    24.789     8.155
    56   9 F        0.787    -0.162    10.846     3.890
    57   6 C        2.777     0.156    24.615     8.126
    58   9 F        0.787    -0.150    10.731     3.869
    59   6 C        2.774     0.148    24.768     8.151
    60   9 F        0.787    -0.159    10.816     3.885
    61   6 C        2.788     0.164    24.455     8.100
    62   9 F        0.788    -0.156    10.792     3.881

molecular dipole:
                 x           y           z       tot (Debye)
 q only:       -0.071       0.086      -0.526
   full:        0.025       0.070      -0.508       1.305

 projected vibrational frequencies (cm⁻¹)
eigval :       -0.00    -0.00    -0.00     0.00     0.00     0.00
eigval :       15.48    20.61    22.66    29.41    32.20    35.14
eigval :       35.25    38.90    47.14    48.97    57.43    62.95
eigval :       75.62    84.51    93.51    99.80   105.48   111.54
eigval :      118.20   120.93   123.15   128.95   133.78   134.51
eigval :      136.24   138.68   140.24   147.42   154.40   157.40
eigval :      164.58   165.30   169.00   173.69   184.70   188.54
eigval :      194.96   215.60   226.69   234.47   238.14   239.87
eigval :      240.76   241.04   241.94   242.29   243.75   249.26
eigval :      251.85   253.19   253.88   255.06   257.57   285.51
eigval :      290.67   292.42   294.40   297.62   298.35   320.06
eigval :      327.33   332.44   336.01   342.13   346.80   364.46
eigval :      381.06   394.20   400.23   401.90   405.82   409.10
eigval :      411.19   413.22   414.96   415.83   418.50   419.36
eigval :      421.04   429.22   445.75   447.93   450.09   458.76
eigval :      465.32   471.49   515.31   533.81   549.84   551.60
eigval :      555.49   563.89   564.75   567.53   568.11   573.24
eigval :      583.70   587.25   588.04   589.21   589.42   591.19
eigval :      599.53   605.27   617.88   638.70   643.19   645.61
eigval :      660.79   666.60   677.08   686.61   703.59   712.31
eigval :      720.12   744.93   752.76   764.96   775.04   859.68
eigval :      869.04   898.82   945.66   947.21   950.66   959.78
eigval :      965.98   976.80   984.96   999.54  1021.59  1037.53
eigval :     1056.05  1079.55  1090.13  1095.91  1097.33  1105.83
eigval :     1108.20  1111.26  1124.00  1147.14  1176.64  1208.79
eigval :     1209.58  1211.28  1217.76  1233.54  1266.77  1279.10
eigval :     1285.24  1286.03  1287.76  1291.19  1304.81  1355.95
eigval :     1367.32  1394.08  1404.94  1409.41  1414.35  1425.01
eigval :     1441.61  1443.49  1447.24  1448.67  1468.41  1474.71
eigval :     1476.26  1482.58  1507.71  1530.91  1547.29  1550.79
eigval :     1552.97  1556.84  1559.27  1560.59  1566.49  1569.99

   temp. (K)  partition function   enthalpy   heat capacity  entropy
                                   cal/mol     cal/K/mol   cal/K/mol   J/K/mol
 298.15  VIB  0.101E+25            32628.324    185.368    203.461
         ROT  0.991E+08              888.752      2.981     39.569
         INT  0.998E+32            33517.077    188.348    243.030
         TR   0.275E+29             1481.254      4.968     46.351
         TOT                       34998.3306   193.3166   289.3810  1210.7699

       T/K    H(0)-H(T)+PV         H(T)/Eh          T*S/Eh         G(T)/Eh
   ------------------------------------------------------------------------
    298.15    0.557734E-01    0.323948E+00    0.137494E+00    0.186454E+00
   ------------------------------------------------------------------------

         :::::::::::::::::::::::::::::::::::::::::::::::::::::
         ::                  THERMODYNAMIC                  ::
         :::::::::::::::::::::::::::::::::::::::::::::::::::::
         :: total free energy        -201.387557492332 Eh   ::
         ::.................................................::
         :: total energy             -201.574011609891 Eh   ::
         :: zero point energy           0.268174959363 Eh   ::
         :: G(RRHO) w/o ZPVE           -0.081720841804 Eh   ::
         :: G(RRHO) contrib.            0.186454117560 Eh   ::
         :::::::::::::::::::::::::::::::::::::::::::::::::::::

           -------------------------------------------------
          | TOTAL ENERGY             -201.574011609891 Eh   |
          | TOTAL ENTHALPY           -201.250063260660 Eh   |
          | TOTAL FREE ENERGY        -201.387557492332 Eh   |
          | GRADIENT NORM               0.000034979401 Eh/α |
          | HOMO-LUMO GAP               1.752056465929 eV   |
           -------------------------------------------------

 * finished run on 2025/09/09 at 22:34:19.187
