   * xtb version 6.7.1 (edcfbbe) compiled by 'albert@albert-system' on 2024-07-22

   ID    Z sym.   atoms
    1    9 F      1, 4, 8, 10, 12, 14, 16, 19, 21, 23, 25, 27, 31, 33, 35,
                  37, 39, 42, 44, 46, 48, 50, 54, 56, 58, 60, 62
    2    6 C      2, 3, 5-7, 9, 11, 13, 15, 17, 18, 20, 22, 24, 26, 28-30,
                  32, 34, 36, 38, 40, 41, 43, 45, 47, 49, 52, 53, 55, 57, 59,
                  61
    3    5 B      51

          program call               : xtb data2507/toluene/Et3SiH/Et3SiH_toluene_S0_crest.xyz --gfn 2 --gbsa toluene --ohess vtight --parallel 40 --molden --ceasefiles --namespace data2507/toluene/Et3SiH/Et3SiH_toluene_S0_finalOpt
      * Solvation model:               GBSA
        Solvent                        toluene
        Solvent mass                       9.2140E+01 g/mol
          :  Hamiltonian                  GFN2-xTB          :
 * total energy  :  -201.6578463 Eh     change       -0.1534204E-08 Eh
 * total energy  :  -201.6581068 Eh     change       -0.2605028E-03 Eh
 * total energy  :  -201.6582288 Eh     change       -0.1219534E-03 Eh
 * total energy  :  -201.6582691 Eh     change       -0.4031607E-04 Eh
 * total energy  :  -201.6583052 Eh     change       -0.3609568E-04 Eh
 * total energy  :  -201.6583477 Eh     change       -0.4249125E-04 Eh
 * total energy  :  -201.6583781 Eh     change       -0.3041497E-04 Eh
 * total energy  :  -201.6583923 Eh     change       -0.1419283E-04 Eh
 * total energy  :  -201.6584043 Eh     change       -0.1199014E-04 Eh
 * total energy  :  -201.6584091 Eh     change       -0.4860532E-05 Eh
 * total energy  :  -201.6584193 Eh     change       -0.1881636E-05 Eh
 * total energy  :  -201.6584209 Eh     change       -0.1570099E-05 Eh
 * total energy  :  -201.6584221 Eh     change       -0.1197744E-05 Eh
 * total energy  :  -201.6584230 Eh     change       -0.9237996E-06 Eh
 * total energy  :  -201.6584238 Eh     change       -0.8294388E-06 Eh
 * total energy  :  -201.6584247 Eh     change       -0.8655338E-06 Eh
 * total energy  :  -201.6584256 Eh     change       -0.9315584E-06 Eh
 * total energy  :  -201.6584266 Eh     change       -0.9429054E-06 Eh
 * total energy  :  -201.6584266 Eh     change       -0.8216546E-08 Eh
   *** GEOMETRY OPTIMIZATION CONVERGED AFTER 22 ITERATIONS ***

 final structure:
================
62
 xtb: 6.7.1 (edcfbbe)
F           -1.18532742518399        0.36161162935429       -3.67947609092546
C           -0.65507079899897        0.27407999198724       -2.45508872294211
C            0.65553501429743        0.48629427928315       -2.23868892292511
F            1.56228500149065        0.80857233273272       -3.15078298650687
C            1.04865934053956        0.59917492945590       -0.76960161754695
C            2.42157763212905       -0.00086884881313       -0.48718706208662
C            3.26061326766057        0.44418007846699        0.53756004099185
F            2.89217194539273        1.43980609338033        1.33569654240889
C            4.51957561193887       -0.10888402256395        0.76041663449897
F            5.27503460798219        0.36441966671381        1.74790431963681
C            4.98473603591053       -1.14448212211890       -0.04251826143352
F            6.18342812021885       -1.67691805523863        0.16333868893065
C            4.16404678559005       -1.61915794398508       -1.06009587958018
F            4.56174466504895       -2.62941324644791       -1.83241074344381
C            2.91043368701289       -1.05217013014247       -1.26612854932586
F            2.15691131686855       -1.58199193006782       -2.23719712758939
C            1.05497260570813        2.13576945879861       -0.71388536670883
C            2.19781309912528        2.87620487781416       -1.03443063452118
F            3.35805303977818        2.28434800580526       -1.33218235794385
C            2.19394972756574        4.26895190139755       -1.09117285514100
F            3.32635536417409        4.90741834210776       -1.37432040958212
C            1.02178851120618        4.98283384901420       -0.87602045087559
F            1.01167129962704        6.30906436543880       -0.93042937654087
C           -0.14797463499049        4.27005846310753       -0.63269754847573
F           -1.30545428060388        4.90547388559414       -0.46719968295576
C           -0.11832159016239        2.88209431456005       -0.57638989975026
F           -1.28742371335792        2.26375246149326       -0.37814948408671
C           -0.13706151353498       -0.20356579504315       -0.03903689301143
C            0.33276346591189       -1.67112635992733        0.04540863857487
C           -0.08658004676302       -2.66678016766212       -0.83370089935695
F           -0.94472377044646       -2.38035405767363       -1.80758800637253
C            0.33462729295884       -3.99157865142205       -0.72946109893837
F           -0.10433476511499       -4.88936483522061       -1.60514134785989
C            1.20125494990036       -4.37128786436648        0.28961259362318
F            1.61495242168086       -5.62746470611228        0.39950631125195
C            1.61867205787709       -3.40535614667385        1.20024324260710
F            2.44576410187036       -3.72623570111065        2.19446420841135
C            1.18115656139277       -2.09102697844691        1.07464144985555
F            1.61385303326520       -1.22045475210899        1.99639225899878
C           -0.57362260271052        0.11969183045404        1.39298068343572
C           -0.22472266652171        1.18256049347842        2.22128324403804
F            0.60330856880041        2.15255222580112        1.83727444815486
C           -0.72210009643552        1.32281072702394        3.51927254892189
F           -0.33391697702701        2.37457583585485        4.23869336237598
C           -1.59998784977031        0.39441770258282        4.05523242062946
F           -2.07087653093744        0.52422602991403        5.29129321053140
C           -1.97967326267711       -0.67672016823284        3.25343897234829
F           -2.83573323750950       -1.59358634673546        3.70581028626067
C           -1.47550896273962       -0.79290105536014        1.96663273108080
F           -1.92556582672046       -1.83635932784636        1.25063642860898
B           -1.36718148732073       -0.04806380914059       -1.13007147148528
C           -2.92293950406694       -0.18797847411356       -0.98336022072383
C           -3.70040526318738        0.39619931199310        0.02375974759314
F           -3.13305967950747        1.14782693464310        0.97484474253737
C           -5.08375296226513        0.26892855058096        0.08706483050816
F           -5.75666044660616        0.85647916387170        1.07901487746394
C           -5.76137022094937       -0.46948754964435       -0.87754681989108
F           -7.08249771941054       -0.60604006857335       -0.82178648001186
C           -5.02925443395324       -1.05339740000643       -1.90605415607752
F           -5.65361868838668       -1.75610734680373       -2.85215313021625
C           -3.64679892629553       -0.89644495764024       -1.95593489145751
F           -3.01564568696846       -1.47272213016318       -2.97401823338490

          :  Hamiltonian                  GFN2-xTB          :
         :: gradient norm              0.000065630268 Eh/a0 ::
         :: HOMO-LUMO gap              2.846974338583 eV    ::
         :: SCC energy              -203.108420844425 Eh    ::
         :: -> dispersion             -0.108848540407 Eh    ::
         :: -> Gsolv                  -0.029780182015 Eh    ::
         :: repulsion energy           1.449994266113 Eh    ::

    * Orbital Energies and Occupations

         #    Occupation            Energy/Eh            Energy/eV
      -------------------------------------------------------------
         1        2.0000           -0.9021010             -24.5474
       ...           ...                  ...                  ...
       152        2.0000           -0.5040597             -13.7162
       153        2.0000           -0.4953553             -13.4793
       154        2.0000           -0.4878857             -13.2760
       155        2.0000           -0.4841077             -13.1732
       156        2.0000           -0.4820715             -13.1178
       157        2.0000           -0.4784310             -13.0188
       158        2.0000           -0.4773847             -12.9903
       159        2.0000           -0.4760645             -12.9544
       160        2.0000           -0.4732425             -12.8776
       161        2.0000           -0.4697387             -12.7822
       162        2.0000           -0.4667532             -12.7010
       163        2.0000           -0.4649800             -12.6527
       164        2.0000           -0.4643041             -12.6344 (HOMO)
       165                         -0.3596797              -9.7874 (LUMO)
       166                         -0.3307864              -9.0012
       167                         -0.3268779              -8.8948
       168                         -0.3242945              -8.8245
       169                         -0.3213344              -8.7440
       170                         -0.3168142              -8.6210
       171                         -0.3153062              -8.5799
       172                         -0.3147102              -8.5637
       173                         -0.3095113              -8.4222
       174                         -0.3054663              -8.3122
       175                         -0.3016870              -8.2093
       ...                                ...                  ...
       248                          0.5729594              15.5910
      -------------------------------------------------------------
                  HL-Gap            0.1046244 Eh            2.8470 eV

     #   Z          covCN         q      C6AA      α(0)
     1   9 F        0.786    -0.182    11.056     3.928
     2   6 C        2.684     0.081    26.170     8.372
     3   6 C        2.854     0.164    24.466     8.107
     4   9 F        0.785    -0.154    10.775     3.877
     5   6 C        3.913     0.038    19.874     6.336
     6   6 C        2.961    -0.016    28.404     8.742
     7   6 C        2.786     0.166    24.407     8.092
     8   9 F        0.788    -0.152    10.753     3.874
     9   6 C        2.777     0.149    24.742     8.147
    10   9 F        0.787    -0.149    10.722     3.868
    11   6 C        2.776     0.155    24.629     8.128
    12   9 F        0.787    -0.145    10.681     3.861
    13   6 C        2.776     0.144    24.848     8.164
    14   9 F        0.787    -0.154    10.769     3.876
    15   6 C        2.787     0.146    24.815     8.160
    16   9 F        0.788    -0.170    10.933     3.906
    17   6 C        3.022    -0.007    28.166     8.706
    18   6 C        2.788     0.161    24.500     8.108
    19   9 F        0.788    -0.165    10.879     3.896
    20   6 C        2.778     0.152    24.693     8.139
    21   9 F        0.787    -0.148    10.710     3.866
    22   6 C        2.775     0.156    24.600     8.123
    23   9 F        0.787    -0.143    10.662     3.857
    24   6 C        2.777     0.152    24.687     8.138
    25   9 F        0.787    -0.148    10.717     3.867
    26   6 C        2.789     0.150    24.739     8.147
    27   9 F        0.789    -0.155    10.778     3.878
    28   6 C        3.817    -0.031    21.109     6.539
    29   6 C        2.971    -0.021    28.519     8.760
    30   6 C        2.788     0.157    24.582     8.121
    31   9 F        0.789    -0.144    10.673     3.859
    32   6 C        2.776     0.153    24.667     8.135
    33   9 F        0.787    -0.144    10.673     3.859
    34   6 C        2.776     0.155    24.629     8.128
    35   9 F        0.787    -0.142    10.656     3.856
    36   6 C        2.776     0.143    24.869     8.168
    37   9 F        0.787    -0.152    10.756     3.874
    38   6 C        2.789     0.142    24.892     8.172
    39   9 F        0.788    -0.174    10.970     3.912
    40   6 C        2.966    -0.005    28.155     8.703
    41   6 C        2.789     0.162    24.494     8.107
    42   9 F        0.789    -0.166    10.890     3.898
    43   6 C        2.781     0.149    24.745     8.148
    44   9 F        0.788    -0.153    10.759     3.875
    45   6 C        2.775     0.154    24.654     8.132
    46   9 F        0.787    -0.150    10.733     3.870
    47   6 C        2.778     0.148    24.769     8.151
    48   9 F        0.787    -0.157    10.803     3.882
    49   6 C        2.797     0.144    24.846     8.166
    50   9 F        0.788    -0.181    11.040     3.925
    51   5 B        2.731     0.283    17.219     6.951
    52   6 C        2.878    -0.075    29.862     8.958
    53   6 C        2.787     0.159    24.544     8.115
    54   9 F        0.788    -0.179    11.024     3.922
    55   6 C        2.775     0.147    24.791     8.155
    56   9 F        0.787    -0.161    10.839     3.889
    57   6 C        2.776     0.157    24.595     8.123
    58   9 F        0.787    -0.150    10.728     3.869
    59   6 C        2.775     0.148    24.767     8.151
    60   9 F        0.787    -0.158    10.808     3.883
    61   6 C        2.788     0.167    24.398     8.091
    62   9 F        0.788    -0.153    10.758     3.874

molecular dipole:
                 x           y           z       tot (Debye)
 q only:        0.092       0.214      -0.124
   full:        0.214       0.208      -0.092       0.794

 projected vibrational frequencies (cm⁻¹)
eigval :       -0.00    -0.00    -0.00     0.00     0.00     0.00
eigval :       17.31    20.87    25.06    30.28    33.88    36.43
eigval :       38.47    41.46    47.57    50.69    57.89    63.98
eigval :       79.32    86.44    99.60   106.35   110.66   114.55
eigval :      116.62   123.72   125.97   132.40   133.05   134.78
eigval :      137.36   141.58   147.04   149.87   156.23   159.90
eigval :      162.98   167.87   172.25   174.60   178.96   181.97
eigval :      190.54   217.25   230.59   234.97   237.59   240.79
eigval :      241.68   241.87   242.59   242.90   243.67   246.31
eigval :      252.27   254.42   255.07   259.88   262.66   284.35
eigval :      293.45   295.10   298.62   301.18   303.53   320.96
eigval :      324.98   336.68   338.45   344.18   352.00   356.26
eigval :      387.37   407.16   407.92   408.77   410.85   413.17
eigval :      414.17   415.27   417.68   417.88   419.83   421.34
eigval :      429.90   438.64   450.37   453.93   455.49   459.88
eigval :      470.18   472.18   502.81   558.45   562.80   564.16
eigval :      564.96   567.27   568.47   569.39   584.37   587.86
eigval :      588.09   589.22   589.77   591.36   591.48   595.55
eigval :      600.38   616.07   629.60   631.88   641.79   649.55
eigval :      656.52   666.11   678.30   681.58   704.50   709.14
eigval :      719.77   734.68   747.35   765.50   776.30   853.93
eigval :      884.05   936.81   946.40   953.04   955.83   961.93
eigval :      971.22   986.83   992.62  1003.52  1021.67  1044.50
eigval :     1089.93  1093.10  1096.85  1098.30  1101.40  1105.84
eigval :     1108.45  1114.09  1119.94  1138.75  1197.66  1207.81
eigval :     1210.25  1210.95  1215.80  1226.49  1280.21  1282.75
eigval :     1284.80  1287.74  1288.98  1290.95  1373.86  1402.32
eigval :     1402.80  1406.24  1410.67  1423.55  1438.62  1440.11
eigval :     1445.80  1448.16  1475.69  1477.40  1478.46  1480.99
eigval :     1486.13  1537.00  1545.74  1549.83  1551.79  1554.94
eigval :     1556.10  1561.56  1563.09  1564.89  1569.98  1624.46

   temp. (K)  partition function   enthalpy   heat capacity  entropy
                                   cal/mol     cal/K/mol   cal/K/mol   J/K/mol
 298.15  VIB  0.369E+24            32404.695    184.841    201.654
         ROT  0.990E+08              888.752      2.981     39.567
         INT  0.365E+32            33293.448    187.822    241.221
         TR   0.275E+29             1481.254      4.968     46.351
         TOT                       34774.7015   192.7904   287.5715  1203.1993

       T/K    H(0)-H(T)+PV         H(T)/Eh          T*S/Eh         G(T)/Eh
   ------------------------------------------------------------------------
    298.15    0.554170E-01    0.325820E+00    0.136635E+00    0.189186E+00
   ------------------------------------------------------------------------

         :::::::::::::::::::::::::::::::::::::::::::::::::::::
         ::                  THERMODYNAMIC                  ::
         :::::::::::::::::::::::::::::::::::::::::::::::::::::
         :: total free energy        -201.469240729363 Eh   ::
         ::.................................................::
         :: total energy             -201.658426577957 Eh   ::
         :: zero point energy           0.270403354350 Eh   ::
         :: G(RRHO) w/o ZPVE           -0.081217505756 Eh   ::
         :: G(RRHO) contrib.            0.189185848594 Eh   ::
         :::::::::::::::::::::::::::::::::::::::::::::::::::::

           -------------------------------------------------
          | TOTAL ENERGY             -201.658426577957 Eh   |
          | TOTAL ENTHALPY           -201.332606209315 Eh   |
          | TOTAL FREE ENERGY        -201.469240729363 Eh   |
          | GRADIENT NORM               0.000065590731 Eh/α |
          | HOMO-LUMO GAP               2.846975070269 eV   |
           -------------------------------------------------

 * finished run on 2025/09/09 at 22:34:11.600
