   * xtb version 6.7.1 (edcfbbe) compiled by 'albert@albert-system' on 2024-07-22

   ID    Z sym.   atoms
    1    9 F      1, 4, 8, 10, 12, 14, 16, 19, 21, 23, 25, 27, 31, 33, 35,
                  37, 39, 42, 44, 46, 48, 50, 54, 56, 58, 60, 62
    2    6 C      2, 3, 5-7, 9, 11, 13, 15, 17, 18, 20, 22, 24, 26, 28-30,
                  32, 34, 36, 38, 40, 41, 43, 45, 47, 49, 52, 53, 55, 57, 59,
                  61
    3    5 B      51

          program call               : xtb data2507/toluene/Et3SiH/Et3SiH.xyz --gfn 2 --gbsa toluene --ohess vtight --parallel 40 --molden --ceasefiles --namespace data2507/toluene/Et3SiH/Et3SiH_toluene_S0_preOpt
      * Solvation model:               GBSA
        Solvent                        toluene
        Solvent mass                       9.2140E+01 g/mol
          :  Hamiltonian                  GFN2-xTB          :
 * total energy  :  -201.4792897 Eh     change       -0.2127649E-09 Eh
 * total energy  :  -201.5509512 Eh     change       -0.7166149E-01 Eh
 * total energy  :  -201.5796219 Eh     change       -0.2867064E-01 Eh
 * total energy  :  -201.5890885 Eh     change       -0.9466681E-02 Eh
 * total energy  :  -201.5945381 Eh     change       -0.5449547E-02 Eh
 * total energy  :  -201.5978200 Eh     change       -0.3281925E-02 Eh
 * total energy  :  -201.6007763 Eh     change       -0.2956301E-02 Eh
 * total energy  :  -201.6040752 Eh     change       -0.3298919E-02 Eh
 * total energy  :  -201.6077046 Eh     change       -0.3629370E-02 Eh
 * total energy  :  -201.6114534 Eh     change       -0.3748827E-02 Eh
 * total energy  :  -201.6537462 Eh     change       -0.5903426E-06 Eh
 * total energy  :  -201.6537468 Eh     change       -0.6164484E-06 Eh
 * total energy  :  -201.6537475 Eh     change       -0.6112528E-06 Eh
 * total energy  :  -201.6537481 Eh     change       -0.6152040E-06 Eh
 * total energy  :  -201.6537487 Eh     change       -0.6246868E-06 Eh
 * total energy  :  -201.6537493 Eh     change       -0.6300326E-06 Eh
 * total energy  :  -201.6537499 Eh     change       -0.5502679E-06 Eh
 * total energy  :  -201.6537503 Eh     change       -0.3791405E-06 Eh
 * total energy  :  -201.6537503 Eh     change       -0.2221810E-08 Eh
   *** GEOMETRY OPTIMIZATION CONVERGED AFTER 122 ITERATIONS ***

 final structure:
================
62
 xtb: 6.7.1 (edcfbbe)
F           -1.13070988707725        1.96091705254247       -3.08807792776747
C           -0.60809200351023        1.34686006961804       -2.02016017132568
C            0.69008248943085        1.46232344506797       -1.69107581426436
F            1.60161330478126        2.18850518903566       -2.31932181072386
C            1.05326126770472        0.86652953902559       -0.33544256929601
C            2.43361948336341        0.21511265025826       -0.35408109524204
C            3.28684002418873        0.15185660732354        0.75015952339409
F            2.94834504070921        0.69495514155677        1.91301584460127
C            4.54261717473400       -0.44983749572017        0.68618641127489
F            5.30860781325746       -0.47295854614122        1.77361861074018
C            4.99450880103115       -1.01657527413704       -0.49984969252942
F            6.18888326301114       -1.59228263601723       -0.56655875447368
C            4.16615713863066       -0.96916174711566       -1.61598979265349
F            4.55213738185531       -1.51550888615223       -2.76810675742929
C            2.91701175790536       -0.36364385504762       -1.53087073823845
F            2.16488575864013       -0.37527137742442       -2.63817211568615
C            1.02063732631797        2.19672493104990        0.43481577160395
C            2.13693056326955        3.03910507023214        0.45817371605558
F            3.29484488943034        2.67672153063225       -0.10144264065602
C            2.10659591480298        4.30296166857111        1.04405221562447
F            3.21415263198955        5.04054330805472        1.05259287386772
C            0.93178879603697        4.79512731531807        1.59891049881366
F            0.89546204039887        5.99885387556754        2.15789826555986
C           -0.21041455055840        4.00283713022175        1.53914323754091
F           -1.36247869068860        4.44013992961622        2.04092223410306
C           -0.15670143525203        2.74473655612497        0.95151040947730
F           -1.29280482154190        2.04080182318657        0.93143053700647
C           -0.12035254041955       -0.20506472460880       -0.08483467738792
C            0.37828364180738       -1.55635128840637       -0.63228024460837
C            0.05202723032397       -2.02491775805045       -1.90355892423553
F           -0.67127681242225       -1.26951672139784       -2.72916802399700
C            0.45750294383165       -3.27236363226161       -2.37269175956179
F            0.10986288879202       -3.65969366337694       -3.59450265660182
C            1.22527253785914       -4.10449875577283       -1.56446244610520
F            1.61942760537955       -5.29617297230153       -1.99557704566269
C            1.58058820615269       -3.65919830752323       -0.29462279088657
F            2.33458854741862       -4.41749905601983        0.49988970806543
C            1.15906125903989       -2.41077050479566        0.15103009026181
F            1.54732651227638       -2.03919902339127        1.37767101796122
C           -0.59699613206900       -0.51598167719551        1.34604075474239
C           -0.22528012021165        0.04960101624091        2.56671014763494
F            0.68722924983584        1.01240766439485        2.67738099236957
C           -0.77877101593304       -0.34201777415067        3.78828421642928
F           -0.36544762734379        0.27471820339325        4.89480778448316
C           -1.73159135585900       -1.34565835216306        3.86090870875881
F           -2.25991682540247       -1.71560916142221        5.02253648113902
C           -2.10574023420265       -1.95690382946566        2.67046772790063
F           -3.00202874158427       -2.94362167591337        2.66410784294248
C           -1.54047881873564       -1.54718596899131        1.46962507198738
F           -1.93455192518118       -2.22373676053938        0.38777513299331
B           -1.31781595741554        0.36496571404793       -1.08000635357864
C           -2.87702363477575        0.17018923989251       -1.16885873634259
C           -3.68348129597997        1.30369075020851       -0.99759389981192
F           -3.11602147313210        2.48223065770699       -0.72794355841486
C           -5.06961186051880        1.27320308585358       -1.09814318051573
F           -5.77984747495509        2.38507038619538       -0.89755287567827
C           -5.71219089253502        0.08326839660365       -1.42606351686671
F           -7.03796165776757        0.03628671733489       -1.53119138900087
C           -4.94214691577130       -1.04886646278822       -1.66637976378103
F           -5.52932022021192       -2.19283962668546       -2.02318562157581
C           -3.55578386047375       -0.99373646267022       -1.54260311356845
F           -2.88531970271500       -2.10459968732027       -1.84929236887505

          :  Hamiltonian                  GFN2-xTB          :
         :: gradient norm              0.000025048931 Eh/a0 ::
         :: HOMO-LUMO gap              2.844151538222 eV    ::
         :: SCC energy              -203.103931852700 Eh    ::
         :: -> dispersion             -0.107802090218 Eh    ::
         :: -> Gsolv                  -0.030925440842 Eh    ::
         :: repulsion energy           1.450181592672 Eh    ::

    * Orbital Energies and Occupations

         #    Occupation            Energy/Eh            Energy/eV
      -------------------------------------------------------------
         1        2.0000           -0.8997190             -24.4826
       ...           ...                  ...                  ...
       152        2.0000           -0.5048979             -13.7390
       153        2.0000           -0.4956504             -13.4873
       154        2.0000           -0.4877086             -13.2712
       155        2.0000           -0.4841683             -13.1749
       156        2.0000           -0.4817291             -13.1085
       157        2.0000           -0.4791324             -13.0379
       158        2.0000           -0.4766401             -12.9700
       159        2.0000           -0.4748782             -12.9221
       160        2.0000           -0.4736977             -12.8900
       161        2.0000           -0.4701543             -12.7936
       162        2.0000           -0.4677179             -12.7273
       163        2.0000           -0.4647427             -12.6463
       164        2.0000           -0.4632533             -12.6058 (HOMO)
       165                         -0.3587327              -9.7616 (LUMO)
       166                         -0.3304180              -8.9911
       167                         -0.3269150              -8.8958
       168                         -0.3223281              -8.7710
       169                         -0.3204915              -8.7210
       170                         -0.3175547              -8.6411
       171                         -0.3157837              -8.5929
       172                         -0.3151337              -8.5752
       173                         -0.3114485              -8.4749
       174                         -0.3052799              -8.3071
       175                         -0.3037723              -8.2661
       ...                                ...                  ...
       248                          0.5733525              15.6017
      -------------------------------------------------------------
                  HL-Gap            0.1045206 Eh            2.8442 eV

     #   Z          covCN         q      C6AA      α(0)
     1   9 F        0.786    -0.186    11.088     3.933
     2   6 C        2.685     0.080    26.191     8.375
     3   6 C        2.858     0.168    24.383     8.094
     4   9 F        0.785    -0.150    10.733     3.870
     5   6 C        3.912     0.038    19.879     6.337
     6   6 C        2.960    -0.015    28.385     8.739
     7   6 C        2.786     0.166    24.407     8.092
     8   9 F        0.789    -0.151    10.739     3.871
     9   6 C        2.777     0.149    24.743     8.147
    10   9 F        0.787    -0.149    10.717     3.867
    11   6 C        2.775     0.155    24.631     8.128
    12   9 F        0.787    -0.145    10.678     3.860
    13   6 C        2.776     0.144    24.844     8.164
    14   9 F        0.787    -0.153    10.765     3.876
    15   6 C        2.788     0.145    24.830     8.162
    16   9 F        0.788    -0.170    10.930     3.905
    17   6 C        3.027    -0.007    28.177     8.707
    18   6 C        2.787     0.161    24.512     8.110
    19   9 F        0.788    -0.165    10.877     3.896
    20   6 C        2.777     0.151    24.702     8.140
    21   9 F        0.787    -0.149    10.718     3.867
    22   6 C        2.776     0.156    24.610     8.125
    23   9 F        0.787    -0.144    10.670     3.859
    24   6 C        2.777     0.152    24.690     8.138
    25   9 F        0.787    -0.148    10.717     3.867
    26   6 C        2.788     0.152    24.698     8.141
    27   9 F        0.788    -0.163    10.862     3.893
    28   6 C        3.811    -0.029    21.077     6.535
    29   6 C        2.968    -0.020    28.513     8.759
    30   6 C        2.787     0.159    24.555     8.117
    31   9 F        0.789    -0.143    10.668     3.858
    32   6 C        2.776     0.155    24.633     8.129
    33   9 F        0.787    -0.143    10.662     3.857
    34   6 C        2.776     0.155    24.627     8.128
    35   9 F        0.787    -0.142    10.651     3.855
    36   6 C        2.776     0.144    24.847     8.164
    37   9 F        0.787    -0.151    10.745     3.872
    38   6 C        2.788     0.144    24.857     8.167
    39   9 F        0.788    -0.172    10.952     3.909
    40   6 C        2.960    -0.007    28.203     8.711
    41   6 C        2.793     0.160    24.523     8.112
    42   9 F        0.790    -0.165    10.878     3.896
    43   6 C        2.783     0.147    24.786     8.155
    44   9 F        0.788    -0.154    10.768     3.876
    45   6 C        2.774     0.153    24.664     8.134
    46   9 F        0.787    -0.150    10.729     3.869
    47   6 C        2.780     0.147    24.799     8.157
    48   9 F        0.787    -0.156    10.790     3.880
    49   6 C        2.800     0.143    24.866     8.169
    50   9 F        0.789    -0.171    10.943     3.908
    51   5 B        2.729     0.287    17.176     6.943
    52   6 C        2.879    -0.077    29.915     8.966
    53   6 C        2.790     0.159    24.543     8.115
    54   9 F        0.788    -0.169    10.923     3.904
    55   6 C        2.774     0.147    24.790     8.155
    56   9 F        0.787    -0.161    10.836     3.888
    57   6 C        2.777     0.154    24.655     8.133
    58   9 F        0.787    -0.154    10.769     3.876
    59   6 C        2.775     0.147    24.800     8.156
    60   9 F        0.787    -0.160    10.833     3.888
    61   6 C        2.786     0.164    24.442     8.098
    62   9 F        0.788    -0.165    10.876     3.896

molecular dipole:
                 x           y           z       tot (Debye)
 q only:        0.249       0.040       0.143
   full:        0.337       0.036       0.129       0.922

 projected vibrational frequencies (cm⁻¹)
eigval :       -0.00    -0.00    -0.00     0.00     0.00     0.00
eigval :       10.86    18.49    23.34    28.59    31.40    32.66
eigval :       36.92    39.68    50.47    56.86    58.26    62.86
eigval :       81.35    83.09    93.97   100.46   112.37   116.09
eigval :      121.15   122.35   124.73   129.47   131.94   137.64
eigval :      141.20   144.89   148.08   148.42   155.24   160.38
eigval :      166.03   168.31   171.88   178.94   182.44   191.21
eigval :      202.06   220.61   230.36   232.63   235.59   241.09
eigval :      241.46   242.40   242.59   243.04   244.90   246.18
eigval :      252.38   254.20   256.09   259.30   264.14   281.06
eigval :      293.68   295.40   296.76   300.30   304.77   317.81
eigval :      331.16   337.62   338.25   344.67   355.41   358.22
eigval :      392.62   405.03   407.43   409.18   409.74   410.93
eigval :      413.89   416.09   417.38   418.84   419.22   420.79
eigval :      431.79   438.18   450.36   451.36   456.05   459.28
eigval :      468.80   471.82   506.21   555.86   564.02   564.99
eigval :      565.66   566.83   567.63   573.48   581.93   584.23
eigval :      587.80   588.63   590.22   590.67   591.47   594.69
eigval :      599.46   615.27   629.32   629.77   644.24   647.09
eigval :      651.14   667.12   673.98   687.10   706.24   708.88
eigval :      718.37   732.83   744.72   765.42   775.28   852.34
eigval :      880.67   940.12   945.75   950.28   954.96   962.68
eigval :      973.66   985.08   990.34  1004.25  1019.23  1045.74
eigval :     1091.19  1094.27  1096.83  1100.35  1102.47  1104.21
eigval :     1107.69  1110.99  1115.61  1136.34  1198.16  1207.76
eigval :     1209.65  1210.24  1213.93  1226.40  1277.54  1282.96
eigval :     1284.06  1287.84  1288.90  1290.91  1380.05  1402.56
eigval :     1404.88  1408.39  1410.35  1426.01  1433.99  1441.32
eigval :     1445.31  1447.78  1474.46  1477.33  1478.08  1481.75
eigval :     1487.71  1539.81  1546.53  1549.04  1551.63  1552.39
eigval :     1558.80  1561.62  1562.88  1564.53  1568.93  1628.91

   temp. (K)  partition function   enthalpy   heat capacity  entropy
                                   cal/mol     cal/K/mol   cal/K/mol   J/K/mol
 298.15  VIB  0.760E+24            32396.326    184.745    202.017
         ROT  0.998E+08              888.752      2.981     39.583
         INT  0.758E+32            33285.078    187.726    241.600
         TR   0.275E+29             1481.254      4.968     46.351
         TOT                       34766.3318   192.6941   287.9509  1204.7864

       T/K    H(0)-H(T)+PV         H(T)/Eh          T*S/Eh         G(T)/Eh
   ------------------------------------------------------------------------
    298.15    0.554037E-01    0.325808E+00    0.136815E+00    0.188994E+00
   ------------------------------------------------------------------------

         :::::::::::::::::::::::::::::::::::::::::::::::::::::
         ::                  THERMODYNAMIC                  ::
         :::::::::::::::::::::::::::::::::::::::::::::::::::::
         :: total free energy        -201.464756710124 Eh   ::
         ::.................................................::
         :: total energy             -201.653750258374 Eh   ::
         :: zero point energy           0.270404615663 Eh   ::
         :: G(RRHO) w/o ZPVE           -0.081411067414 Eh   ::
         :: G(RRHO) contrib.            0.188993548249 Eh   ::
         :::::::::::::::::::::::::::::::::::::::::::::::::::::

           -------------------------------------------------
          | TOTAL ENERGY             -201.653750258374 Eh   |
          | TOTAL ENTHALPY           -201.327941966328 Eh   |
          | TOTAL FREE ENERGY        -201.464756710124 Eh   |
          | GRADIENT NORM               0.000025160337 Eh/α |
          | HOMO-LUMO GAP               2.844150696532 eV   |
           -------------------------------------------------

 * finished run on 2025/09/09 at 22:30:28.649
