   * xtb version 6.7.1 (edcfbbe) compiled by 'albert@albert-system' on 2024-07-22

   ID    Z sym.   atoms
    1    6 C      1-5, 7-22, 24-37, 39-44, 46, 47, 49, 50
    2    7 N      6, 23, 38
    3    8 O      45, 48
    4    1 H      51-79

          program call               : xtb data2507/gas/CDDPI/CDDPI_gas_T1_crest.xyz --gfn 2 --spinpol --tblite --uhf 2 --ohess vtight --parallel 40 --molden --ceasefiles --namespace data2507/gas/CDDPI/CDDPI_gas_T1_finalOpt
 * total energy  :  -128.0962775 Eh     change       -0.1307268E-07 Eh
 * total energy  :  -128.0963067 Eh     change       -0.2917604E-04 Eh
 * total energy  :  -128.0963189 Eh     change       -0.1222017E-04 Eh
 * total energy  :  -128.0963208 Eh     change       -0.1931577E-05 Eh
 * total energy  :  -128.0963208 Eh     change        0.6971274E-07 Eh
 * total energy  :  -128.0963221 Eh     change       -0.1372658E-05 Eh
 * total energy  :  -128.0963231 Eh     change       -0.9293080E-06 Eh
 * total energy  :  -128.0963242 Eh     change       -0.1117819E-05 Eh
 * total energy  :  -128.0963251 Eh     change       -0.8813285E-06 Eh
 * total energy  :  -128.0963259 Eh     change       -0.8392360E-06 Eh
 * total energy  :  -128.0963267 Eh     change       -0.7453100E-06 Eh
 * total energy  :  -128.0963272 Eh     change       -0.5722763E-06 Eh
 * total energy  :  -128.0963275 Eh     change       -0.3166208E-06 Eh
 * total energy  :  -128.0963276 Eh     change       -0.7492756E-07 Eh
   *** GEOMETRY OPTIMIZATION CONVERGED AFTER 14 ITERATIONS ***

 final structure:
================
79
 xtb: 6.7.1 (edcfbbe)
C            0.90365947910800        1.58381611295744        2.91834153852699
C            2.22649663828502        1.71728527905754        2.54273372065146
C            2.78740952985185        0.82996735028705        1.63847893111230
C            2.01315799025726       -0.17860453785867        1.04444265394809
C            2.58248678975562       -1.22256883352052        0.26024209201508
N            3.91956708200411       -1.18973721605795       -0.12088445280828
C            4.84227554411656       -2.19621606439219        0.08701896722199
C            4.71042914913537       -3.37633106423666        0.80648468200133
C            5.81172197839492       -4.20706606838054        0.88903493815727
C            7.02195925014214       -3.87257140425265        0.28549793732988
C            7.16841832462172       -2.68408604322329       -0.40488028951868
C            6.07605040252153       -1.83510532280359       -0.50365596432840
C            5.87581861795008       -0.54539191970778       -1.10621983527360
C            6.69257780887126        0.30029687925848       -1.84255072896210
C            6.16069289865016        1.48399543983769       -2.31750587534169
C            4.82979268161339        1.81836681370314       -2.07707469163035
C            3.99610085729102        0.99541842788696       -1.34388158694086
C            4.53327354660304       -0.18385223646870       -0.84478962675242
C            1.80426344479162       -2.36977153931822       -0.06021130929024
C            0.46625626057620       -2.38847145995032        0.15609165239738
C           -0.19638256408386       -1.22109429305959        0.67611638893040
C           -1.56687153463457       -1.10070163575244        0.41614254322049
N           -2.36136970817098       -2.16243618215979        0.21584136578434
C           -3.58464058474856       -1.68479511939235       -0.01121315475668
C           -4.78610981157792       -2.42962663622590       -0.19548546535292
C           -4.78293008824150       -3.82471019800261       -0.11502738596803
C           -5.95466367978741       -4.53098572312846       -0.24771748674320
C           -7.14567464224755       -3.84119203784722       -0.45524499100647
C           -7.15814144290259       -2.46663141350260       -0.54444144650208
C           -5.98168730603423       -1.71300292589716       -0.42902066847490
C           -5.95202774389283       -0.26633499492380       -0.56560675650922
C           -7.09655169874806        0.45805440291403       -0.91522025636357
C           -7.07267113010748        1.82196618428143       -1.10216666991829
C           -5.87687848539555        2.52292753546632       -0.96665383857433
C           -4.73232106070025        1.85468625567294       -0.61487355423985
C           -4.73930799454068        0.46631232449679       -0.38223650478765
C           -3.58539361428404       -0.26898295029302       -0.02224854987525
N           -2.29561165091097        0.09491545292757        0.26875851452077
C           -1.71209716627466        1.37016949903363        0.31009507109678
C           -2.16825686459089        2.33923485811188        1.20200953969894
C           -1.48210951671368        3.52769423640719        1.33265111953898
C           -0.32973132631001        3.76460965766613        0.59304338435058
C            0.08994198159160        2.82058406906932       -0.35006911159188
C           -0.60538668188343        1.62971565361067       -0.48671754070009
O            1.18608086178542        3.01881098702238       -1.14515716134580
C            1.67080446762047        4.34339039494761       -1.11959200423191
C            1.68699554699880        4.86803009081360        0.31424759471467
O            0.37280026469108        4.91742166045316        0.82421132698080
C            0.62438158671018       -0.23371127594526        1.34097010907581
C            0.11692243789591        0.59678690424469        2.33336660384104
H            0.47536056341934        2.23955478295483        3.66105893129725
H            2.84081579941797        2.49115817156866        2.98137456898884
H            3.83933106142188        0.90335527981762        1.40658547255927
H            3.78362612484029       -3.63114524847128        1.29709871554124
H            5.73420018494482       -5.13317994966310        1.43895692203958
H            7.85912549920543       -4.54917737363515        0.37086014176009
H            8.11274680551689       -2.41639543483925       -0.85441684426931
H            7.71859228072838        0.03203338192419       -2.04439698006581
H            6.77940838132773        2.15699236408004       -2.89246238476896
H            4.43736799572939        2.73969561901339       -2.48202102593140
H            2.96488981929034        1.26198059550443       -1.17193672907112
H            2.29366717244701       -3.19758130717232       -0.55087544691630
H           -0.15181800798393       -3.21439053081984       -0.15379656250290
H           -3.83922777648251       -4.31666994596351        0.06157481059987
H           -5.95697557073945       -5.60892061307467       -0.18474773035487
H           -8.07272659256439       -4.38849625158820       -0.54782279502853
H           -8.10630813287144       -1.97722801455698       -0.70105943819737
H           -8.03284164005408       -0.05644361471654       -1.05989449360903
H           -7.97813939761555        2.34497253694217       -1.37173603393826
H           -5.84907713967040        3.58785495139715       -1.14370285455398
H           -3.80422576140446        2.39743174178359       -0.53722465284820
H           -3.03741514577359        2.14293687262876        1.81112619714567
H           -1.80121482257046        4.28019391883452        2.03536006862137
H           -0.25561898448777        0.90308725917806       -1.20274558597723
H            2.67587179219730        4.31352196847444       -1.54191368414367
H            1.02894034819016        4.98829021705043       -1.73531007709147
H            2.07757385683515        5.88512838375359        0.36220792485306
H            2.30217450740056        4.20023584124908        0.93269754981266
H           -0.90347781924691        0.46596936081987        2.65962105452190

 projected vibrational frequencies (cm⁻¹)
eigval :       -0.00    -0.00    -0.00    -0.00    -0.00     0.00
eigval :       14.95    19.51    25.64    28.34    38.00    42.79
eigval :       52.59    60.54    68.63    79.60    87.66    93.65
eigval :      100.97   110.92   122.32   136.93   141.06   146.01
eigval :      164.15   173.99   178.47   189.75   200.18   207.73
eigval :      221.89   248.99   254.79   263.31   272.27   285.36
eigval :      302.01   308.18   319.20   339.90   351.35   370.78
eigval :      381.25   395.62   396.50   402.00   408.97   421.99
eigval :      426.95   432.57   436.74   438.09   444.33   451.97
eigval :      467.27   468.87   493.31   500.48   503.95   513.97
eigval :      518.63   527.89   529.79   538.72   544.04   548.53
eigval :      569.92   581.16   585.27   586.15   596.93   614.87
eigval :      626.12   628.44   646.81   655.29   664.05   671.97
eigval :      673.88   675.55   684.57   686.06   698.67   709.41
eigval :      716.34   731.88   755.35   761.58   761.60   767.48
eigval :      770.09   771.79   778.32   779.24   779.82   790.21
eigval :      834.79   840.49   849.64   861.63   865.33   870.93
eigval :      872.44   874.36   875.67   893.36   895.36   901.85
eigval :      903.29   905.20   907.07   911.70   912.49   915.31
eigval :      922.18   922.74   923.04   924.64   925.17   928.72
eigval :      945.66   955.02  1000.61  1008.90  1028.32  1041.18
eigval :     1046.39  1069.17  1071.53  1073.50  1074.42  1084.65
eigval :     1095.10  1105.40  1105.57  1110.70  1121.10  1124.51
eigval :     1137.04  1142.38  1147.76  1160.60  1166.47  1174.76
eigval :     1177.77  1179.64  1181.79  1182.58  1185.35  1191.54
eigval :     1194.19  1207.48  1217.59  1228.83  1231.80  1234.72
eigval :     1237.46  1248.40  1252.76  1255.98  1271.85  1282.43
eigval :     1286.47  1290.98  1293.25  1299.19  1303.65  1316.64
eigval :     1334.33  1335.91  1337.25  1338.09  1340.69  1343.94
eigval :     1353.85  1360.94  1373.02  1387.38  1396.04  1408.22
eigval :     1412.57  1418.62  1419.81  1428.55  1434.78  1443.00
eigval :     1450.12  1450.89  1454.81  1465.44  1469.91  1484.97
eigval :     1488.44  1493.68  1519.62  1525.99  1530.90  1546.75
eigval :     1549.55  1566.90  1567.88  1570.15  1578.80  1582.36
eigval :     1585.96  1591.70  1593.32  1604.68  2897.44  2914.58
eigval :     3001.93  3005.87  3066.41  3073.71  3074.99  3077.70
eigval :     3079.06  3082.89  3083.84  3084.96  3086.13  3086.68
eigval :     3088.01  3090.21  3092.33  3094.26  3095.48  3096.23
eigval :     3097.23  3098.60  3106.28  3106.75  3110.20  3111.04
eigval :     3115.56  3117.57  3118.50

   temp. (K)  partition function   enthalpy   heat capacity  entropy
                                   cal/mol     cal/K/mol   cal/K/mol   J/K/mol
 298.15  VIB  0.404E+16            21987.521    144.664    133.588
         ROT  0.756E+08              888.752      2.981     39.032
         INT  0.306E+24            22876.273    147.645    172.619
         TR   0.158E+29             1481.254      4.968     45.248
         TOT                       24357.5270   152.6133   217.8675   911.5575

       T/K    H(0)-H(T)+PV         H(T)/Eh          T*S/Eh         G(T)/Eh
   ------------------------------------------------------------------------
    298.15    0.388162E-01    0.637538E+00    0.103516E+00    0.534022E+00
   ------------------------------------------------------------------------

         :::::::::::::::::::::::::::::::::::::::::::::::::::::
         ::                  THERMODYNAMIC                  ::
         :::::::::::::::::::::::::::::::::::::::::::::::::::::
         :: total free energy        -127.562305636572 Eh   ::
         ::.................................................::
         :: total energy             -128.096327536352 Eh   ::
         :: zero point energy           0.598721573832 Eh   ::
         :: G(RRHO) w/o ZPVE           -0.064699674052 Eh   ::
         :: G(RRHO) contrib.            0.534021899780 Eh   ::
         :::::::::::::::::::::::::::::::::::::::::::::::::::::

           -------------------------------------------------
          | TOTAL ENERGY             -128.096327536352 Eh   |
          | TOTAL ENTHALPY           -127.458789772431 Eh   |
          | TOTAL FREE ENERGY        -127.562305636572 Eh   |
          | GRADIENT NORM               0.000133498188 Eh/α |
           -------------------------------------------------

 * finished run on 2025/09/12 at 18:48:24.383
