   * xtb version 6.7.1 (edcfbbe) compiled by 'albert@albert-system' on 2024-07-22

   ID    Z sym.   atoms
    1    6 C      1-5, 7-22, 24-37, 39-44, 46, 47, 49, 50
    2    7 N      6, 23, 38
    3    8 O      45, 48
    4    1 H      51-79

          program call               : xtb data2507/gas/CDDPI/CDDPI_gas_S0_crest.xyz --gfn 2 --ohess vtight --parallel 40 --molden --ceasefiles --namespace data2507/gas/CDDPI/CDDPI_gas_S0_finalOpt
          :  Hamiltonian                  GFN2-xTB          :
 * total energy  :  -128.1711450 Eh     change       -0.3857508E-08 Eh
 * total energy  :  -128.1711466 Eh     change       -0.1663750E-05 Eh
 * total energy  :  -128.1711477 Eh     change       -0.1093639E-05 Eh
 * total energy  :  -128.1711510 Eh     change       -0.3299158E-05 Eh
 * total energy  :  -128.1711555 Eh     change       -0.4426303E-05 Eh
 * total energy  :  -128.1711590 Eh     change       -0.3517782E-05 Eh
 * total energy  :  -128.1711612 Eh     change       -0.2262665E-05 Eh
 * total energy  :  -128.1711630 Eh     change       -0.1810286E-05 Eh
 * total energy  :  -128.1711648 Eh     change       -0.1769154E-05 Eh
 * total energy  :  -128.1711663 Eh     change       -0.1532083E-05 Eh
 * total energy  :  -128.1711809 Eh     change       -0.2987251E-06 Eh
 * total energy  :  -128.1711812 Eh     change       -0.2893119E-06 Eh
 * total energy  :  -128.1711814 Eh     change       -0.2233153E-06 Eh
 * total energy  :  -128.1711815 Eh     change       -0.1525413E-06 Eh
 * total energy  :  -128.1711816 Eh     change       -0.1042812E-06 Eh
 * total energy  :  -128.1711818 Eh     change       -0.1460475E-06 Eh
 * total energy  :  -128.1711819 Eh     change       -0.1623501E-06 Eh
 * total energy  :  -128.1711821 Eh     change       -0.1251131E-06 Eh
 * total energy  :  -128.1711822 Eh     change       -0.7936504E-07 Eh
   *** GEOMETRY OPTIMIZATION CONVERGED AFTER 38 ITERATIONS ***

 final structure:
================
79
 xtb: 6.7.1 (edcfbbe)
C            0.67149603106976        0.75486494280350        3.16379029543316
C            2.06223804983891        0.84691278901977        3.01878620483080
C            2.69052845946304        0.21572183348287        1.98190861614521
C            1.95211647489406       -0.50169401283694        1.01710136938159
C            2.57649535283277       -1.21425966861366       -0.04302569956421
N            3.96875642789636       -1.14887809926261       -0.21312314469518
C            4.82856685818776       -2.22775827306984       -0.19930741416639
C            4.55500277324648       -3.56684532320043        0.03781796088858
C            5.61574966760874       -4.45156830716606        0.02139319208868
C            6.91935878220341       -4.02033093300605       -0.21729334600909
C            7.19858586077539       -2.68656102204495       -0.43759991437479
C            6.14890401103508       -1.77710213921909       -0.42777788717836
C            6.06852404794953       -0.35402370965409       -0.60354672076485
C            7.00794189874889        0.63428514221472       -0.86731345541893
C            6.57615891032085        1.93884597155987       -0.99838607370905
C            5.22510952239759        2.26256083651424       -0.88733712263122
C            4.26988173553724        1.29870000654018       -0.62881968227130
C            4.70361290082842       -0.00993111750528       -0.46869476346339
C            1.82476261300847       -1.99483094943005       -0.88921177242084
C            0.43176693383244       -2.00701004919306       -0.79524063520423
C           -0.21592306222348       -1.25617681073773        0.15805285835933
C           -1.67038169397997       -1.14554827956719        0.09435383487187
N           -2.50516720058518       -2.14786737024210        0.05967267966069
C           -3.74484240781623       -1.59667443514002       -0.06438314412696
C           -4.99778909550640       -2.26856685262279       -0.10200644029338
C           -5.07770496851528       -3.66091256747276        0.00750048422013
C           -6.29877078494531       -4.28708615024952        0.00500682561794
C           -7.45943540555930       -3.52332583383540       -0.10309700595545
C           -7.39221879959644       -2.15458145101065       -0.21843688241494
C           -6.16289237643322       -1.47782676261829       -0.23052355476487
C           -6.05656224550888       -0.03805193877587       -0.39147488306881
C           -7.18556095027315        0.76366713692861       -0.61290424395027
C           -7.08826136563052        2.11943479017796       -0.81802088254681
C           -5.84140064119535        2.73690667877790       -0.83033094489361
C           -4.71111032059282        1.99005396686900       -0.60802395261879
C           -4.79217971596092        0.61167954124678       -0.36372685875651
C           -3.65258673771972       -0.20788723587927       -0.12859886752698
N           -2.31005035196905        0.07452531910734       -0.01568053459956
C           -1.64172156081772        1.30835723054824        0.07954696179870
C           -1.97960880154213        2.22386593653211        1.07383534467378
C           -1.21650280439402        3.35862066519046        1.24909389216346
C           -0.10554184809312        3.59499695922292        0.44853276547232
C            0.19692031304482        2.70548805052318       -0.58771596283112
C           -0.57139400834743        1.56435086504829       -0.76373494893867
O            1.24390284017107        2.91282512240811       -1.44362989664727
C            1.77160464523872        4.21983251791427       -1.37811107979986
C            1.93080297027223        4.64611868963439        0.08010739959968
O            0.66861617706859        4.69377671122753        0.70931857934962
C            0.53882010796659       -0.55337536441501        1.13599982537878
C           -0.06974345052560        0.05965346210083        2.25046974671339
H            0.19188105372426        1.22125815991839        4.01123031120362
H            2.63908937111557        1.39472786060153        3.74927388374222
H            3.76706490727919        0.24652039755749        1.90569358966957
H            3.54823085690603       -3.90395282180456        0.23422164555088
H            5.43134227222378       -5.50066608112958        0.19969218915736
H            7.72084516918218       -4.74398662469631       -0.22339519725735
H            8.21021574024079       -2.35214922455815       -0.61197536685497
H            8.05267054822116        0.38240606815829       -0.96977698267763
H            7.29094612485058        2.72305099098327       -1.19943696685861
H            4.92086534022584        3.29265359321494       -1.00872616113460
H            3.22153005586081        1.54682031772291       -0.56442055431811
H            2.31537788967530       -2.56242292596276       -1.66606066966667
H           -0.15036533718661       -2.57477479084367       -1.50468525158724
H           -4.15516735605477       -4.21265629825200        0.09989286665129
H           -6.36568042771736       -5.36158068487330        0.09126134583577
H           -8.42354858009317       -4.01122687966703       -0.09677416094378
H           -8.31707079639588       -1.60527760010715       -0.29653826566619
H           -8.16548852935522        0.31502094606708       -0.63668359588483
H           -7.98083574222900        2.70415537309115       -0.98550718368124
H           -5.76191494396181        3.79737191386118       -1.01866515504505
H           -3.74348494282324        2.46610711374518       -0.63899659702803
H           -2.82509191302721        2.03227861719983        1.71652094981392
H           -1.44680952722838        4.06971228023565        2.02553373014336
H           -0.30897405248947        0.88231041952724       -1.55641161236621
H            2.73074514963555        4.19002949533981       -1.89609857868459
H            1.09766030394795        4.92113605148267       -1.88862387706928
H            2.35372365004743        5.64841737731790        0.15838839406762
H            2.58033119989980        3.92760205173963        0.59930233034574
H           -1.13327881827785       -0.05679515319179        2.39234131370509

          :  Hamiltonian                  GFN2-xTB          :
         :: gradient norm              0.000020746650 Eh/a0 ::
         :: HOMO-LUMO gap              2.272689438233 eV    ::
         :: SCC energy              -130.416721028252 Eh    ::
         :: -> dispersion             -0.123528872108 Eh    ::
         :: repulsion energy           2.245538873765 Eh    ::

    * Orbital Energies and Occupations

         #    Occupation            Energy/Eh            Energy/eV
      -------------------------------------------------------------
         1        2.0000           -0.7422841             -20.1986
       ...           ...                  ...                  ...
       106        2.0000           -0.4147301             -11.2854
       107        2.0000           -0.4133983             -11.2491
       108        2.0000           -0.4084519             -11.1145
       109        2.0000           -0.4072699             -11.0824
       110        2.0000           -0.4044126             -11.0046
       111        2.0000           -0.3999771             -10.8839
       112        2.0000           -0.3921110             -10.6699
       113        2.0000           -0.3873734             -10.5410
       114        2.0000           -0.3783187             -10.2946
       115        2.0000           -0.3781970             -10.2913
       116        2.0000           -0.3755964             -10.2205
       117        2.0000           -0.3657721              -9.9532
       118        2.0000           -0.3590253              -9.7696 (HOMO)
       119                         -0.2755055              -7.4969 (LUMO)
       120                         -0.2531193              -6.8877
       121                         -0.2463300              -6.7030
       122                         -0.2444432              -6.6516
       123                         -0.2412814              -6.5656
       124                         -0.2381223              -6.4796
       125                         -0.2325070              -6.3268
       126                         -0.2213480              -6.0232
       127                         -0.2185659              -5.9475
       128                         -0.2052866              -5.5861
       129                         -0.1923618              -5.2344
       ...                                ...                  ...
       229                          0.7465643              20.3150
      -------------------------------------------------------------
                  HL-Gap            0.0835198 Eh            2.2727 eV

     #   Z          covCN         q      C6AA      α(0)
     1   6 C        2.916    -0.029    28.727     8.789
     2   6 C        2.916    -0.030    28.741     8.791
     3   6 C        2.918    -0.032    28.799     8.800
     4   6 C        2.986     0.003    27.940     8.671
     5   6 C        2.910     0.058    26.695     8.472
     6   7 N        2.803    -0.043    22.074     6.978
     7   6 C        3.079     0.047    26.867     8.498
     8   6 C        2.909    -0.050    29.252     8.869
     9   6 C        2.924    -0.033    28.812     8.803
    10   6 C        2.920    -0.041    29.014     8.833
    11   6 C        2.912    -0.033    28.819     8.803
    12   6 C        3.068    -0.018    28.377     8.735
    13   6 C        3.068    -0.018    28.376     8.735
    14   6 C        2.913    -0.033    28.824     8.804
    15   6 C        2.920    -0.042    29.044     8.838
    16   6 C        2.925    -0.034    28.856     8.809
    17   6 C        2.909    -0.051    29.277     8.872
    18   6 C        3.079     0.048    26.837     8.493
    19   6 C        2.919    -0.043    29.060     8.840
    20   6 C        2.924    -0.029    28.721     8.789
    21   6 C        2.971    -0.005    28.139     8.701
    22   6 C        3.199     0.130    24.668     8.095
    23   7 N        1.891    -0.288    28.313     7.888
    24   6 C        3.212     0.056    26.121     8.318
    25   6 C        2.985     0.003    27.943     8.671
    26   6 C        2.922    -0.031    28.780     8.798
    27   6 C        2.917    -0.030    28.753     8.793
    28   6 C        2.917    -0.033    28.820     8.803
    29   6 C        2.922    -0.035    28.866     8.811
    30   6 C        2.979    -0.001    28.057     8.689
    31   6 C        2.980     0.002    27.975     8.676
    32   6 C        2.922    -0.034    28.841     8.807
    33   6 C        2.916    -0.033    28.830     8.805
    34   6 C        2.917    -0.032    28.790     8.799
    35   6 C        2.919    -0.040    29.001     8.831
    36   6 C        2.979    -0.001    28.056     8.688
    37   6 C        3.072     0.019    27.520     8.601
    38   7 N        2.841    -0.040    22.012     6.968
    39   6 C        2.913     0.058    26.707     8.474
    40   6 C        2.921    -0.048    29.201     8.862
    41   6 C        2.919    -0.056    29.384     8.889
    42   6 C        2.887     0.113    25.497     8.278
    43   6 C        2.887     0.117    25.421     8.266
    44   6 C        2.923    -0.069    29.722     8.940
    45   8 O        1.705    -0.272    18.506     5.808
    46   6 C        3.716     0.074    19.457     6.302
    47   6 C        3.717     0.074    19.468     6.303
    48   8 O        1.704    -0.271    18.500     5.807
    49   6 C        2.988     0.009    27.816     8.651
    50   6 C        2.919    -0.033    28.835     8.806
    51   1 H        0.926     0.035     2.520     2.483
    52   1 H        0.926     0.034     2.530     2.487
    53   1 H        0.926     0.039     2.467     2.456
    54   1 H        0.926     0.028     2.614     2.528
    55   1 H        0.926     0.030     2.585     2.514
    56   1 H        0.926     0.028     2.611     2.527
    57   1 H        0.926     0.031     2.578     2.511
    58   1 H        0.926     0.031     2.572     2.508
    59   1 H        0.926     0.026     2.639     2.540
    60   1 H        0.926     0.018     2.766     2.601
    61   1 H        0.926     0.030     2.592     2.517
    62   1 H        0.926     0.046     2.373     2.409
    63   1 H        0.926     0.051     2.305     2.374
    64   1 H        0.926     0.051     2.309     2.376
    65   1 H        0.926     0.030     2.584     2.514
    66   1 H        0.926     0.028     2.616     2.529
    67   1 H        0.926     0.031     2.578     2.511
    68   1 H        0.926     0.034     2.525     2.485
    69   1 H        0.926     0.029     2.605     2.524
    70   1 H        0.926     0.027     2.626     2.534
    71   1 H        0.926     0.027     2.628     2.535
    72   1 H        0.926     0.055     2.262     2.352
    73   1 H        0.926     0.062     2.171     2.304
    74   1 H        0.926     0.059     2.209     2.324
    75   1 H        0.924     0.060     2.198     2.319
    76   1 H        0.923     0.044     2.395     2.420
    77   1 H        0.924     0.058     2.219     2.329
    78   1 H        0.923     0.045     2.378     2.412
    79   1 H        0.926     0.034     2.530     2.487

molecular dipole:
                 x           y           z       tot (Debye)
 q only:        0.424       0.996       0.090
   full:        0.426       1.524       0.021       4.023

 projected vibrational frequencies (cm⁻¹)
eigval :       -0.00    -0.00    -0.00     0.00     0.00     0.00
eigval :       14.84    17.93    21.02    25.94    36.01    43.81
eigval :       47.92    54.03    63.86    77.64    86.83   100.07
eigval :      103.78   106.89   121.39   132.96   141.02   145.41
eigval :      156.97   168.30   179.95   188.01   196.62   210.61
eigval :      224.51   235.73   256.01   263.58   272.01   296.67
eigval :      308.59   310.99   322.84   355.68   364.92   383.86
eigval :      395.99   396.85   401.23   405.79   418.37   422.82
eigval :      431.03   433.87   435.62   438.78   446.75   457.66
eigval :      467.93   471.31   494.80   505.00   512.57   518.76
eigval :      532.68   533.87   535.95   541.35   544.63   563.88
eigval :      580.57   586.15   590.00   595.71   601.58   633.53
eigval :      636.60   649.87   656.11   660.00   673.18   673.41
eigval :      680.41   685.22   690.46   695.16   708.77   718.47
eigval :      733.07   735.73   756.54   766.34   769.05   769.22
eigval :      774.89   780.08   781.03   782.07   783.47   835.61
eigval :      842.89   851.17   865.35   868.89   871.07   871.51
eigval :      873.16   876.25   883.62   898.19   900.87   902.88
eigval :      906.68   912.49   914.90   916.07   920.42   922.37
eigval :      923.34   924.85   926.30   927.55   932.90   934.89
eigval :      951.60   955.51  1012.15  1016.46  1039.84  1044.84
eigval :     1054.30  1069.21  1072.55  1073.46  1073.55  1085.76
eigval :     1089.84  1103.90  1107.52  1121.43  1131.18  1136.14
eigval :     1151.78  1153.84  1168.31  1173.66  1177.05  1180.85
eigval :     1181.93  1183.05  1185.92  1186.46  1194.12  1198.03
eigval :     1206.98  1212.94  1217.12  1231.17  1237.75  1242.97
eigval :     1247.80  1250.84  1256.44  1273.52  1284.12  1285.34
eigval :     1298.61  1303.96  1305.66  1317.32  1321.34  1325.55
eigval :     1337.53  1340.48  1344.01  1353.46  1358.49  1364.31
eigval :     1377.36  1384.01  1388.26  1408.36  1410.65  1413.23
eigval :     1427.56  1428.75  1431.05  1435.29  1445.13  1454.45
eigval :     1455.46  1457.31  1476.43  1489.42  1490.48  1505.22
eigval :     1515.41  1518.24  1550.87  1560.43  1564.33  1568.76
eigval :     1573.25  1573.88  1580.57  1589.61  1595.31  1597.24
eigval :     1599.02  1605.23  1609.09  1615.24  2896.43  2914.06
eigval :     3002.99  3007.28  3067.64  3072.16  3075.51  3076.94
eigval :     3078.98  3080.79  3082.02  3083.66  3085.79  3086.16
eigval :     3087.88  3089.15  3093.05  3095.07  3096.35  3096.73
eigval :     3098.04  3099.37  3100.15  3101.94  3105.24  3106.50
eigval :     3110.43  3116.23  3117.85

   temp. (K)  partition function   enthalpy   heat capacity  entropy
                                   cal/mol     cal/K/mol   cal/K/mol   J/K/mol
 298.15  VIB  0.670E+16            21831.231    142.875    133.119
         ROT  0.746E+08              888.752      2.981     39.005
         INT  0.499E+24            22719.983    145.856    172.123
         TR   0.158E+29             1481.254      4.968     45.248
         TOT                       24201.2371   150.8241   217.3714   909.4819

       T/K    H(0)-H(T)+PV         H(T)/Eh          T*S/Eh         G(T)/Eh
   ------------------------------------------------------------------------
    298.15    0.385671E-01    0.640703E+00    0.103280E+00    0.537422E+00
   ------------------------------------------------------------------------

         :::::::::::::::::::::::::::::::::::::::::::::::::::::
         ::                  THERMODYNAMIC                  ::
         :::::::::::::::::::::::::::::::::::::::::::::::::::::
         :: total free energy        -127.633759784972 Eh   ::
         ::.................................................::
         :: total energy             -128.171182154483 Eh   ::
         :: zero point energy           0.602135404220 Eh   ::
         :: G(RRHO) w/o ZPVE           -0.064713034709 Eh   ::
         :: G(RRHO) contrib.            0.537422369511 Eh   ::
         :::::::::::::::::::::::::::::::::::::::::::::::::::::

           -------------------------------------------------
          | TOTAL ENERGY             -128.171182154483 Eh   |
          | TOTAL ENTHALPY           -127.530479623972 Eh   |
          | TOTAL FREE ENERGY        -127.633759784972 Eh   |
          | GRADIENT NORM               0.000020717526 Eh/α |
          | HOMO-LUMO GAP               2.272689283780 eV   |
           -------------------------------------------------

 * finished run on 2025/09/12 at 18:44:07.586
