   * xtb version 6.7.1 (edcfbbe) compiled by 'albert@albert-system' on 2024-07-22

   ID    Z sym.   atoms
    1    6 C      1-5, 7-22, 24-37, 39-44, 46, 47, 49, 50
    2    7 N      6, 23, 38
    3    8 O      45, 48
    4    1 H      51-79

          program call               : xtb data2507/gas/CDDPI/CDDPI_gas_S0_finalOpt.xtbopt.xyz --gfn 2 --spinpol --tblite --uhf 2 --ohess vtight --parallel 40 --molden --ceasefiles --namespace data2507/gas/CDDPI/CDDPI_gas_T1_preOpt
 * total energy  :  -128.0814719 Eh     change       -0.1194178E-07 Eh
 * total energy  :  -128.0884993 Eh     change       -0.7027398E-02 Eh
 * total energy  :  -128.0910296 Eh     change       -0.2530325E-02 Eh
 * total energy  :  -128.0916410 Eh     change       -0.6114337E-03 Eh
 * total energy  :  -128.0924443 Eh     change       -0.8032084E-03 Eh
 * total energy  :  -128.0929462 Eh     change       -0.5019572E-03 Eh
 * total energy  :  -128.0933691 Eh     change       -0.4229329E-03 Eh
 * total energy  :  -128.0936305 Eh     change       -0.2613327E-03 Eh
 * total energy  :  -128.0938024 Eh     change       -0.1718881E-03 Eh
 * total energy  :  -128.0939448 Eh     change       -0.1424616E-03 Eh
 * total energy  :  -128.0962985 Eh     change       -0.5684838E-06 Eh
 * total energy  :  -128.0962990 Eh     change       -0.5195104E-06 Eh
 * total energy  :  -128.0962995 Eh     change       -0.4854268E-06 Eh
 * total energy  :  -128.0963001 Eh     change       -0.5582418E-06 Eh
 * total energy  :  -128.0963006 Eh     change       -0.5682118E-06 Eh
 * total energy  :  -128.0963020 Eh     change       -0.1329541E-05 Eh
 * total energy  :  -128.0963027 Eh     change       -0.7186772E-06 Eh
 * total energy  :  -128.0963035 Eh     change       -0.8313638E-06 Eh
 * total energy  :  -128.0963036 Eh     change       -0.6120723E-07 Eh
   *** GEOMETRY OPTIMIZATION CONVERGED AFTER 152 ITERATIONS ***

 final structure:
================
79
 xtb: 6.7.1 (edcfbbe)
C            0.85389300267685        1.40250508724099        3.02157832512624
C            2.18918543243344        1.52733700764191        2.69051061949973
C            2.75649556127973        0.68072572971339        1.75164737314002
C            1.97807065661651       -0.27256815743663        1.07726837932190
C            2.54681812335738       -1.28173262517699        0.24812737355419
N            3.89742851344768       -1.26436538131743       -0.08351774232724
C            4.78514953173541       -2.30657591267343        0.10020404285602
C            4.59275330470076       -3.52510165386448        0.73727365721516
C            5.66865301858409       -4.38900379831525        0.81412169522809
C            6.91242420318367       -4.05062840294912        0.28561448094132
C            7.11842190951992       -2.82589915670915       -0.32110390042334
C            6.05246268402824       -1.94321526336502       -0.41293368983798
C            5.91108018593759       -0.61348684071300       -0.94039653454514
C            6.78115011947572        0.25466573337162       -1.58361020606177
C            6.30046649585468        1.47999695606157       -2.00435159195564
C            4.96798570285586        1.83372830429148       -1.80347475897186
C            4.08158559111602        0.98885562614648       -1.16297340228645
C            4.56707614229558       -0.23300143090362       -0.71579558882520
C            1.75180860832359       -2.38596460344094       -0.16747990061086
C            0.40807406823741       -2.38616219257997        0.01124351086087
C           -0.24295589707390       -1.24017555683818        0.58931313511774
C           -1.60596070466676       -1.07666530303026        0.31288114767798
N           -2.41836130234381       -2.10740643226030        0.03823081903564
C           -3.62868879948344       -1.59127596139160       -0.17390644801199
C           -4.84135803221826       -2.29913766750865       -0.41964840023750
C           -4.86370602197408       -3.69631542804443       -0.43462135789827
C           -6.04564751898578       -4.37025292188135       -0.62986985151705
C           -7.22132854757480       -3.64601419663985       -0.80492640683977
C           -7.20861979190757       -2.26858795095322       -0.79928389542691
C           -6.02100768324414       -1.54619832454451       -0.61701113224339
C           -5.96426930042735       -0.09435792736924       -0.65210610232142
C           -7.09476182196584        0.67399416231990       -0.94980010154436
C           -7.04552381406763        2.04695236445310       -1.04084849742426
C           -5.83675191886731        2.71426235373883       -0.85853925133453
C           -4.70535843931851        2.00190745803660       -0.55406521998406
C           -4.73876549049982        0.60128949585704       -0.41609815770716
C           -3.60123944337351       -0.17757207902645       -0.09824704650141
N           -2.30783227856748        0.14097883943558        0.22823631761415
C           -1.69028672888712        1.39634835803068        0.33684332263463
C           -2.12365491628418        2.33329518898800        1.27322128391387
C           -1.40368944127993        3.49307622897711        1.46606111311723
C           -0.23971099470002        3.73188402711666        0.74563355224204
C            0.15849404238633        2.82326664001637       -0.24061946890984
C           -0.57062934467084        1.66187754874839       -0.43963779858070
O            1.26528533797489        3.02793152278316       -1.01927087857500
C            1.78605674718601        4.33574814996712       -0.92713304093414
C            1.81015222834028        4.78782967530872        0.53111660201117
O            0.49512589784374        4.85023369018418        1.03758086471992
C            0.58044589819798       -0.31265243832365        1.33205653951309
C            0.06340326634723        0.46922540760790        2.35853949920966
H            0.41870916265793        2.02343265048649        3.78974183490710
H            2.80691137931834        2.26087246069196        3.18937764030487
H            3.81617935512580        0.74277073426259        1.55449024450186
H            3.63918375765732       -3.78488182610086        1.17060942899927
H            5.54402689304478       -5.34513547038425        1.30032296140491
H            7.72825414185707       -4.75361654369660        0.36406153927305
H            8.08816520251656       -2.55621449454067       -0.71143361110464
H            7.80862808812371       -0.02788787398319       -1.75633098309913
H            6.96116022050325        2.17146241390968       -2.50598880053593
H            4.61770170252658        2.78926784318996       -2.16558746888383
H            3.04958639524969        1.27023927321888       -1.02174954673528
H            2.23606242619951       -3.19234078890705       -0.69739667361622
H           -0.21907463905651       -3.17574494187419       -0.36755605117587
H           -3.93111551073125       -4.21635213834276       -0.28094333702701
H           -6.06767832041580       -5.44974162009437       -0.64106183861798
H           -8.15630611265109       -4.16851711730291       -0.94755933137733
H           -8.14572142266429       -1.75257888696910       -0.93564114133286
H           -8.04076940975160        0.18863658090580       -1.12793422526537
H           -7.94120019953300        2.60430072901693       -1.27147059562715
H           -5.78884480568410        3.78816181101562       -0.96164277810748
H           -3.76727806572231        2.52038698093408       -0.43977076424583
H           -3.00163842773919        2.13305244222748        1.86821201966183
H           -1.70534999774951        4.21912853147593        2.20342970652333
H           -0.23676173102049        0.96121005230755       -1.18842091678901
H            2.79149440696390        4.29914658945988       -1.34787250229748
H            1.16477684724685        5.02776304439724       -1.51202713633700
H            2.22980204276404        5.78942640630256        0.63120184591582
H            2.40257541634999        4.07253896020614        1.11798866432849
H           -0.96759992954484        0.34104545023186        2.65067370280275

 projected vibrational frequencies (cm⁻¹)
eigval :       -0.00    -0.00    -0.00    -0.00     0.00     0.00
eigval :       14.49    19.39    25.58    26.94    37.55    43.46
eigval :       52.92    60.08    68.37    79.15    87.61    93.60
eigval :      100.74   111.17   122.28   136.84   141.03   146.08
eigval :      165.16   174.14   179.29   189.79   200.52   207.44
eigval :      222.15   249.01   254.34   262.83   272.27   285.99
eigval :      302.09   308.99   319.73   339.77   350.92   370.99
eigval :      381.29   395.63   396.54   402.41   409.01   422.02
eigval :      427.28   432.39   436.73   437.90   444.37   452.01
eigval :      467.18   468.66   493.19   500.55   503.94   514.13
eigval :      518.67   527.82   529.76   538.68   544.06   548.50
eigval :      569.80   581.23   585.26   586.21   596.79   614.93
eigval :      626.36   628.48   646.81   655.29   664.18   672.09
eigval :      673.90   675.45   684.48   685.93   698.76   709.40
eigval :      716.33   731.84   755.41   761.33   761.55   767.54
eigval :      769.93   771.95   778.42   779.12   779.64   790.78
eigval :      835.03   840.64   849.66   861.61   865.29   870.95
eigval :      872.35   874.37   875.47   893.46   895.59   901.93
eigval :      903.17   905.08   907.20   911.24   912.65   915.39
eigval :      921.77   922.52   923.05   925.09   925.75   928.62
eigval :      945.77   955.12  1000.48  1008.97  1028.29  1041.16
eigval :     1046.36  1069.28  1071.56  1073.55  1074.29  1084.65
eigval :     1095.41  1105.20  1105.58  1110.94  1121.02  1124.66
eigval :     1136.89  1142.35  1147.85  1160.52  1166.66  1174.68
eigval :     1177.98  1179.68  1181.79  1182.72  1185.31  1191.45
eigval :     1194.22  1207.16  1217.29  1228.94  1231.90  1234.87
eigval :     1237.45  1248.52  1253.02  1256.09  1271.65  1282.14
eigval :     1286.50  1291.00  1293.35  1299.29  1303.39  1316.67
eigval :     1334.41  1336.07  1337.34  1338.28  1340.83  1344.04
eigval :     1353.93  1361.01  1372.54  1387.37  1396.01  1408.01
eigval :     1412.44  1418.49  1419.87  1428.64  1434.72  1442.87
eigval :     1450.08  1451.23  1454.84  1465.53  1469.68  1485.17
eigval :     1488.47  1493.49  1519.26  1525.95  1530.79  1546.71
eigval :     1549.56  1567.13  1568.13  1570.18  1578.83  1582.35
eigval :     1586.01  1591.70  1593.39  1604.74  2897.22  2914.21
eigval :     3002.37  3006.22  3067.26  3073.74  3074.64  3077.75
eigval :     3079.10  3082.85  3084.03  3085.00  3086.19  3086.63
eigval :     3088.07  3090.55  3092.43  3094.38  3095.54  3096.40
eigval :     3097.38  3098.71  3105.52  3106.79  3110.44  3110.90
eigval :     3115.68  3117.92  3118.34

   temp. (K)  partition function   enthalpy   heat capacity  entropy
                                   cal/mol     cal/K/mol   cal/K/mol   J/K/mol
 298.15  VIB  0.440E+16            21987.927    144.639    133.638
         ROT  0.755E+08              888.752      2.981     39.030
         INT  0.332E+24            22876.679    147.620    172.668
         TR   0.158E+29             1481.254      4.968     45.248
         TOT                       24357.9330   152.5884   217.9160   911.7607

       T/K    H(0)-H(T)+PV         H(T)/Eh          T*S/Eh         G(T)/Eh
   ------------------------------------------------------------------------
    298.15    0.388168E-01    0.637548E+00    0.103539E+00    0.534009E+00
   ------------------------------------------------------------------------

         :::::::::::::::::::::::::::::::::::::::::::::::::::::
         ::                  THERMODYNAMIC                  ::
         :::::::::::::::::::::::::::::::::::::::::::::::::::::
         :: total free energy        -127.562294740826 Eh   ::
         ::.................................................::
         :: total energy             -128.096303527489 Eh   ::
         :: zero point energy           0.598730895748 Eh   ::
         :: G(RRHO) w/o ZPVE           -0.064722109085 Eh   ::
         :: G(RRHO) contrib.            0.534008786663 Eh   ::
         :::::::::::::::::::::::::::::::::::::::::::::::::::::

           -------------------------------------------------
          | TOTAL ENERGY             -128.096303527489 Eh   |
          | TOTAL ENTHALPY           -127.458755794780 Eh   |
          | TOTAL FREE ENERGY        -127.562294740826 Eh   |
          | GRADIENT NORM               0.000067204588 Eh/α |
           -------------------------------------------------

 * finished run on 2025/09/12 at 18:44:26.945
