   * xtb version 6.7.1 (edcfbbe) compiled by 'albert@albert-system' on 2024-07-22

   ID    Z sym.   atoms
    1    6 C      1-5, 7-22, 24-37, 39-44, 46, 47, 49, 50
    2    7 N      6, 23, 38
    3    8 O      45, 48
    4    1 H      51-79

          program call               : xtb data2507/gas/CDDPI/CDDPI.xyz --gfn 2 --ohess vtight --parallel 40 --molden --ceasefiles --namespace data2507/gas/CDDPI/CDDPI_gas_S0_preOpt
          :  Hamiltonian                  GFN2-xTB          :
 * total energy  :  -128.1433471 Eh     change       -0.4069364E-08 Eh
 * total energy  :  -128.1594172 Eh     change       -0.1607013E-01 Eh
 * total energy  :  -128.1635096 Eh     change       -0.4092328E-02 Eh
 * total energy  :  -128.1643312 Eh     change       -0.8216632E-03 Eh
 * total energy  :  -128.1648018 Eh     change       -0.4706065E-03 Eh
 * total energy  :  -128.1649957 Eh     change       -0.1939132E-03 Eh
 * total energy  :  -128.1651559 Eh     change       -0.1601218E-03 Eh
 * total energy  :  -128.1652641 Eh     change       -0.1081994E-03 Eh
 * total energy  :  -128.1653511 Eh     change       -0.8704297E-04 Eh
 * total energy  :  -128.1654353 Eh     change       -0.8424087E-04 Eh
 * total energy  :  -128.1679121 Eh     change       -0.4405792E-06 Eh
 * total energy  :  -128.1679125 Eh     change       -0.3529766E-06 Eh
 * total energy  :  -128.1679129 Eh     change       -0.3934437E-06 Eh
 * total energy  :  -128.1679134 Eh     change       -0.5361427E-06 Eh
 * total energy  :  -128.1679141 Eh     change       -0.7248473E-06 Eh
 * total energy  :  -128.1679148 Eh     change       -0.7179724E-06 Eh
 * total energy  :  -128.1679151 Eh     change       -0.2044058E-06 Eh
 * total energy  :  -128.1679154 Eh     change       -0.3226184E-06 Eh
 * total energy  :  -128.1679155 Eh     change       -0.8231692E-07 Eh
   *** GEOMETRY OPTIMIZATION CONVERGED AFTER 96 ITERATIONS ***

 final structure:
================
79
 xtb: 6.7.1 (edcfbbe)
C            1.16142809331002       -3.35957211445419        2.70958586775510
C            2.55493859302866       -3.24153126248458        2.61813584877152
C            3.11317517713372       -2.37863677650257        1.71766107853670
C            2.30336311234500       -1.59687196761610        0.86632782139126
C            2.85999216595337       -0.68980889731069       -0.07497645325433
N            4.24804421571827       -0.48276467766124       -0.12580710583624
C            5.04616058514611       -0.67463254702913       -1.23408718355709
C            4.71182079760165       -1.18556690055392       -2.47964602918493
C            5.71951803515510       -1.30366693183968       -3.41717010720936
C            7.03047840443451       -0.93059214362064       -3.12671316223920
C            7.37083608104864       -0.43548698611531       -1.88377662467902
C            6.37534005920819       -0.30554340903965       -0.92411864372684
C            6.36368837616692        0.15036418505593        0.43783851784915
C            7.33936409305073        0.65193785384112        1.28967660369769
C            6.97290951937885        1.02892172161313        2.56611272675332
C            5.65135747763752        0.92138240961285        2.99529897674848
C            4.66279229982574        0.42484168549739        2.16824348134796
C            5.02997073032856        0.02678792535443        0.89060628636979
C            2.04417402231245       -0.02029689708469       -0.95499461878984
C            0.65961989930684       -0.18081034942068       -0.90377747897718
C            0.07176169708557       -1.00140667992551        0.03387270409543
C           -1.38024824609817       -1.11182925151115        0.09051651287181
N           -2.05147672222919       -2.23196060742018        0.17079629865338
C           -3.36573268577168       -1.88575503473663        0.15800666203056
C           -4.49271652202788       -2.75286893177279        0.19001490976754
C           -4.33732637631613       -4.14241605808982        0.23073425071438
C           -5.43779013535920       -4.96235820607367        0.22874686715806
C           -6.71115262172747       -4.39829699480034        0.18110259926515
C           -6.87507791954010       -3.03319780533322        0.14688559498631
C           -5.77581555867071       -2.16091964207636        0.15782999796962
C           -5.91441090785191       -0.71471064287393        0.16164922706607
C           -7.17307519169346       -0.09862340864458        0.20995751263633
C           -7.31550706185794        1.26745899359776        0.26444185507125
C           -6.19069422066321        2.08557381714904        0.29277387013744
C           -4.93943057966028        1.52330882680685        0.23733142278694
C           -4.77297143713110        0.13384734985245        0.14810851751146
C           -3.50003748484163       -0.50071834037201        0.08350014340292
N           -2.21352692980306       -0.01408314380348        0.02595310410054
C           -1.76874336987579        1.31711904784793       -0.08418432063391
C           -0.95668631987371        1.85875622754460        0.90650302881094
C           -0.46805481914587        3.14155783062456        0.76626271521767
C           -0.79047308284684        3.90339350803617       -0.34984121646740
C           -1.63914249882194        3.37134753436707       -1.32864839394797
C           -2.10709236482112        2.07189026692325       -1.19976918744775
O           -2.02812469507453        4.09223894013942       -2.42487361908047
C           -1.77583584594712        5.47513917756470       -2.30350826632566
C           -0.36981662499973        5.70726378670014       -1.75328495427991
O           -0.25791152803409        5.15989751307911       -0.45781167222972
C            0.89142061957132       -1.74741207221282        0.92825847278705
C            0.35028892793111       -2.63393308066509        1.88227939732175
H            0.73129737138623       -4.03731689919282        3.43202173775172
H            3.18608838323194       -3.83735754640706        3.26078730949038
H            4.18702101885421       -2.29635226760691        1.64318720746345
H            3.69940299362052       -1.48637015462487       -2.70461920786646
H            5.48716820280063       -1.69648081840776       -4.39612382224567
H            7.78957767623664       -1.03793807883688       -3.88730109007999
H            8.38891522227003       -0.15671372514901       -1.65687345852338
H            8.36132576626879        0.74651721795351        0.95458177874499
H            7.71706627605933        1.41963987901816        3.24419567485860
H            5.39418867218299        1.23507654806355        3.99631918799635
H            3.63939250637294        0.34676221223320        2.50368376394575
H            2.47961679796735        0.64717952480483       -1.68394687865462
H            0.04981300787296        0.35006656513579       -1.61890848408077
H           -3.33351966166501       -4.53746425852000        0.25565131229742
H           -5.32342497670971       -6.03588400154899        0.25852941406894
H           -7.58048251327171       -5.03998069187214        0.17122236047176
H           -7.87992049284730       -2.64349610712991        0.10792241683183
H           -8.06576655152304       -0.70287649588277        0.21458253606799
H           -8.30220572473887        1.70539485417419        0.29994699734828
H           -6.30038464486033        3.15776390243894        0.36257278905706
H           -4.06940585118542        2.15890999818122        0.27961539728197
H           -0.70378616156702        1.26916636386971        1.77371834740860
H            0.17477590448111        3.57804992806827        1.51303404565012
H           -2.74513753567937        1.66915118190314       -1.97089845237616
H           -1.88772923215997        5.89890441180799       -3.30219364952186
H           -2.50979639584088        5.93032949664149       -1.62456912635318
H           -0.15006240791603        6.77147043113955       -1.65997649733685
H            0.36302043281824        5.23605764108239       -2.42253415532376
H           -0.72062131441304       -2.74896895148976        1.92834870996996

          :  Hamiltonian                  GFN2-xTB          :
         :: gradient norm              0.000080648939 Eh/a0 ::
         :: HOMO-LUMO gap              2.292086350041 eV    ::
         :: SCC energy              -130.412126590896 Eh    ::
         :: -> dispersion             -0.116602296510 Eh    ::
         :: repulsion energy           2.244211133300 Eh    ::

    * Orbital Energies and Occupations

         #    Occupation            Energy/Eh            Energy/eV
      -------------------------------------------------------------
         1        2.0000           -0.7430316             -20.2189
       ...           ...                  ...                  ...
       106        2.0000           -0.4132113             -11.2441
       107        2.0000           -0.4116078             -11.2004
       108        2.0000           -0.4078256             -11.0975
       109        2.0000           -0.4056183             -11.0374
       110        2.0000           -0.4020415             -10.9401
       111        2.0000           -0.3996467             -10.8749
       112        2.0000           -0.3920449             -10.6681
       113        2.0000           -0.3858204             -10.4987
       114        2.0000           -0.3789666             -10.3122
       115        2.0000           -0.3757007             -10.2233
       116        2.0000           -0.3753026             -10.2125
       117        2.0000           -0.3649876              -9.9318
       118        2.0000           -0.3573435              -9.7238 (HOMO)
       119                         -0.2731108              -7.4317 (LUMO)
       120                         -0.2510496              -6.8314
       121                         -0.2464550              -6.7064
       122                         -0.2418897              -6.5822
       123                         -0.2417257              -6.5777
       124                         -0.2347164              -6.3870
       125                         -0.2338131              -6.3624
       126                         -0.2193982              -5.9701
       127                         -0.2187531              -5.9526
       128                         -0.2017989              -5.4912
       129                         -0.1913751              -5.2076
       ...                                ...                  ...
       229                          0.7489502              20.3800
      -------------------------------------------------------------
                  HL-Gap            0.0842327 Eh            2.2921 eV

     #   Z          covCN         q      C6AA      α(0)
     1   6 C        2.916    -0.027    28.673     8.781
     2   6 C        2.916    -0.028    28.696     8.784
     3   6 C        2.918    -0.032    28.790     8.799
     4   6 C        2.986     0.003    27.946     8.672
     5   6 C        2.910     0.057    26.718     8.476
     6   7 N        2.803    -0.044    22.088     6.980
     7   6 C        3.079     0.047    26.869     8.498
     8   6 C        2.909    -0.051    29.256     8.869
     9   6 C        2.924    -0.033    28.828     8.805
    10   6 C        2.920    -0.041    29.027     8.835
    11   6 C        2.912    -0.033    28.826     8.804
    12   6 C        3.068    -0.018    28.380     8.735
    13   6 C        3.068    -0.018    28.386     8.736
    14   6 C        2.912    -0.033    28.828     8.804
    15   6 C        2.920    -0.041    29.029     8.835
    16   6 C        2.924    -0.033    28.834     8.806
    17   6 C        2.909    -0.050    29.230     8.865
    18   6 C        3.078     0.048    26.848     8.495
    19   6 C        2.918    -0.045    29.119     8.849
    20   6 C        2.922    -0.036    28.908     8.817
    21   6 C        2.970    -0.006    28.175     8.707
    22   6 C        3.189     0.129    24.742     8.114
    23   7 N        1.894    -0.289    28.340     7.892
    24   6 C        3.208     0.056    26.144     8.325
    25   6 C        2.986     0.003    27.951     8.672
    26   6 C        2.922    -0.031    28.781     8.798
    27   6 C        2.917    -0.030    28.753     8.793
    28   6 C        2.917    -0.033    28.818     8.803
    29   6 C        2.922    -0.035    28.864     8.810
    30   6 C        2.979    -0.001    28.053     8.688
    31   6 C        2.980     0.002    27.968     8.675
    32   6 C        2.922    -0.034    28.839     8.807
    33   6 C        2.916    -0.033    28.827     8.804
    34   6 C        2.917    -0.031    28.779     8.797
    35   6 C        2.919    -0.040    28.991     8.830
    36   6 C        2.978    -0.001    28.051     8.688
    37   6 C        3.071     0.019    27.503     8.599
    38   7 N        2.843    -0.040    22.012     6.968
    39   6 C        2.912     0.058    26.695     8.472
    40   6 C        2.921    -0.051    29.258     8.870
    41   6 C        2.919    -0.054    29.350     8.884
    42   6 C        2.886     0.115    25.474     8.275
    43   6 C        2.886     0.117    25.414     8.265
    44   6 C        2.921    -0.066    29.643     8.928
    45   8 O        1.705    -0.270    18.478     5.804
    46   6 C        3.716     0.073    19.485     6.306
    47   6 C        3.715     0.072    19.489     6.307
    48   8 O        1.704    -0.270    18.482     5.804
    49   6 C        2.987     0.015    27.677     8.630
    50   6 C        2.918    -0.033    28.815     8.803
    51   1 H        0.926     0.036     2.503     2.474
    52   1 H        0.926     0.034     2.529     2.487
    53   1 H        0.926     0.038     2.477     2.461
    54   1 H        0.926     0.026     2.640     2.541
    55   1 H        0.926     0.029     2.605     2.524
    56   1 H        0.926     0.027     2.625     2.534
    57   1 H        0.926     0.030     2.584     2.514
    58   1 H        0.926     0.030     2.582     2.513
    59   1 H        0.926     0.027     2.625     2.534
    60   1 H        0.926     0.028     2.613     2.528
    61   1 H        0.926     0.024     2.671     2.556
    62   1 H        0.926     0.039     2.457     2.451
    63   1 H        0.926     0.032     2.558     2.501
    64   1 H        0.926     0.050     2.317     2.381
    65   1 H        0.926     0.030     2.584     2.514
    66   1 H        0.926     0.028     2.615     2.529
    67   1 H        0.926     0.031     2.577     2.510
    68   1 H        0.926     0.035     2.523     2.484
    69   1 H        0.926     0.029     2.605     2.524
    70   1 H        0.926     0.026     2.637     2.539
    71   1 H        0.926     0.026     2.643     2.542
    72   1 H        0.926     0.050     2.323     2.383
    73   1 H        0.926     0.062     2.170     2.304
    74   1 H        0.926     0.065     2.146     2.291
    75   1 H        0.924     0.059     2.212     2.326
    76   1 H        0.923     0.045     2.384     2.415
    77   1 H        0.924     0.059     2.213     2.327
    78   1 H        0.923     0.045     2.387     2.416
    79   1 H        0.926     0.058     2.227     2.334

molecular dipole:
                 x           y           z       tot (Debye)
 q only:       -0.114       1.067      -0.080
   full:       -0.300       1.660      -0.243       4.331

 projected vibrational frequencies (cm⁻¹)
eigval :       -0.00    -0.00    -0.00     0.00     0.00     0.00
eigval :       10.61    11.65    16.63    22.38    29.96    35.28
eigval :       39.87    46.35    51.18    74.09    85.16   100.16
eigval :      106.45   111.34   121.07   128.61   138.41   142.07
eigval :      145.64   155.71   173.99   189.36   196.67   217.95
eigval :      223.29   233.70   259.44   261.67   271.38   293.26
eigval :      301.93   313.32   320.87   359.36   366.54   383.66
eigval :      390.14   395.23   401.40   404.41   417.61   422.00
eigval :      427.28   433.84   437.16   438.07   441.31   453.60
eigval :      467.56   482.42   488.41   509.55   511.85   518.12
eigval :      531.48   535.30   535.91   540.66   541.90   564.14
eigval :      571.61   585.61   588.37   596.63   608.36   633.74
eigval :      634.98   650.47   657.18   658.76   673.12   675.47
eigval :      680.89   686.68   692.61   696.24   708.57   715.23
eigval :      733.31   735.56   755.90   765.74   768.80   770.37
eigval :      772.85   779.17   780.36   780.90   782.86   829.68
eigval :      842.38   853.63   862.44   868.61   870.45   872.38
eigval :      874.82   877.90   880.07   898.11   901.42   902.57
eigval :      903.75   908.23   913.92   914.72   919.16   921.33
eigval :      922.62   924.22   924.73   927.67   930.55   933.57
eigval :      948.85   951.99  1011.77  1017.35  1040.24  1045.96
eigval :     1056.89  1068.65  1071.66  1072.50  1073.82  1086.23
eigval :     1091.54  1104.62  1108.49  1121.50  1134.57  1139.10
eigval :     1151.23  1155.20  1172.22  1175.33  1176.34  1181.35
eigval :     1181.96  1183.10  1186.09  1186.46  1194.50  1204.36
eigval :     1207.97  1216.42  1217.36  1229.90  1237.11  1245.48
eigval :     1247.14  1253.05  1256.45  1273.09  1284.44  1291.62
eigval :     1299.12  1303.83  1303.97  1315.88  1320.01  1326.52
eigval :     1333.66  1340.32  1343.81  1351.52  1358.82  1363.52
eigval :     1378.71  1382.52  1385.86  1408.30  1410.87  1416.78
eigval :     1428.12  1428.79  1430.67  1436.68  1442.42  1455.11
eigval :     1455.26  1457.16  1476.02  1488.85  1489.55  1506.28
eigval :     1513.05  1515.05  1541.86  1559.80  1562.70  1567.02
eigval :     1571.64  1573.54  1584.00  1589.68  1594.72  1595.31
eigval :     1599.26  1605.10  1607.70  1615.30  2897.08  2914.08
eigval :     3002.67  3006.36  3072.29  3075.16  3075.44  3075.85
eigval :     3078.63  3080.12  3081.23  3083.70  3084.79  3085.73
eigval :     3087.06  3087.45  3088.99  3094.49  3096.05  3097.07
eigval :     3097.27  3097.78  3102.12  3103.78  3109.60  3110.79
eigval :     3114.29  3114.39  3119.14

   temp. (K)  partition function   enthalpy   heat capacity  entropy
                                   cal/mol     cal/K/mol   cal/K/mol   J/K/mol
 298.15  VIB  0.576E+17            21968.317    142.118    134.888
         ROT  0.862E+08              888.752      2.981     39.292
         INT  0.497E+25            22857.069    145.099    174.180
         TR   0.158E+29             1481.254      4.968     45.248
         TOT                       24338.3233   150.0671   219.4285   918.0888

       T/K    H(0)-H(T)+PV         H(T)/Eh          T*S/Eh         G(T)/Eh
   ------------------------------------------------------------------------
    298.15    0.387856E-01    0.640608E+00    0.104258E+00    0.536351E+00
   ------------------------------------------------------------------------

         :::::::::::::::::::::::::::::::::::::::::::::::::::::
         ::                  THERMODYNAMIC                  ::
         :::::::::::::::::::::::::::::::::::::::::::::::::::::
         :: total free energy        -127.631564577743 Eh   ::
         ::.................................................::
         :: total energy             -128.167915457591 Eh   ::
         :: zero point energy           0.601822848211 Eh   ::
         :: G(RRHO) w/o ZPVE           -0.065471968364 Eh   ::
         :: G(RRHO) contrib.            0.536350879847 Eh   ::
         :::::::::::::::::::::::::::::::::::::::::::::::::::::

           -------------------------------------------------
          | TOTAL ENERGY             -128.167915457591 Eh   |
          | TOTAL ENTHALPY           -127.527307022407 Eh   |
          | TOTAL FREE ENERGY        -127.631564577743 Eh   |
          | GRADIENT NORM               0.000080701937 Eh/α |
          | HOMO-LUMO GAP               2.292087485640 eV   |
           -------------------------------------------------

 * finished run on 2025/09/12 at 18:38:27.321
