   * xtb version 6.7.1 (edcfbbe) compiled by 'albert@albert-system' on 2024-07-22

   ID    Z sym.   atoms
    1    6 C      1-8, 10-25, 27-40, 42-48, 50-56, 58-62
    2    7 N      9, 26, 41, 49, 57
    3    1 H      63-101

          program call               : xtb data2507/toluene/CzTPA-m-Trz/CzTPA-m-Trz_toluene_S0_crest.xyz --gfn 2 --gbsa toluene --ohess vtight --parallel 40 --molden --ceasefiles --namespace data2507/toluene/CzTPA-m-Trz/CzTPA-m-Trz_toluene_S0_finalOpt
      * Solvation model:               GBSA
        Solvent                        toluene
        Solvent mass                       9.2140E+01 g/mol
          :  Hamiltonian                  GFN2-xTB          :
 * total energy  :  -156.6831638 Eh     change       -0.1579508E-08 Eh
 * total energy  :  -156.6832283 Eh     change       -0.6446451E-04 Eh
 * total energy  :  -156.6832769 Eh     change       -0.4868924E-04 Eh
 * total energy  :  -156.6833089 Eh     change       -0.3199779E-04 Eh
 * total energy  :  -156.6833398 Eh     change       -0.3089819E-04 Eh
 * total energy  :  -156.6833854 Eh     change       -0.4553708E-04 Eh
 * total energy  :  -156.6834176 Eh     change       -0.3225638E-04 Eh
 * total energy  :  -156.6834392 Eh     change       -0.2155845E-04 Eh
 * total energy  :  -156.6834690 Eh     change       -0.2979127E-04 Eh
 * total energy  :  -156.6834850 Eh     change       -0.1603608E-04 Eh
 * total energy  :  -156.6837935 Eh     change       -0.5897696E-06 Eh
 * total energy  :  -156.6837940 Eh     change       -0.5251391E-06 Eh
 * total energy  :  -156.6837946 Eh     change       -0.5235347E-06 Eh
 * total energy  :  -156.6837949 Eh     change       -0.3396652E-06 Eh
 * total energy  :  -156.6837951 Eh     change       -0.2360080E-06 Eh
 * total energy  :  -156.6837953 Eh     change       -0.1858917E-06 Eh
 * total energy  :  -156.6837955 Eh     change       -0.2179998E-06 Eh
 * total energy  :  -156.6837958 Eh     change       -0.2989191E-06 Eh
 * total energy  :  -156.6837958 Eh     change       -0.3728985E-08 Eh
   *** GEOMETRY OPTIMIZATION CONVERGED AFTER 94 ITERATIONS ***

 final structure:
================
101
 xtb: 6.7.1 (edcfbbe)
C           -4.06626163222559        7.91098663004700       -0.62934301368650
C           -4.87106797978238        6.79186609836168       -0.76695774890023
C           -4.30736715144932        5.52998049016711       -0.80809483120592
C           -2.92710635042298        5.36403652318984       -0.70549306033648
C           -2.32950132398172        4.02177654518331       -0.74114078397968
C           -2.80430825796384        3.04996149370130       -1.62134035580873
C           -2.24990255130554        1.78772761201006       -1.65501229931610
C           -1.20575400792159        1.45063711966116       -0.79338809153494
N           -0.64676635676014        0.16513517705348       -0.81474842614148
C            0.73826241165735        0.01459874571784       -0.64748996823203
C            1.25545969493331       -1.02746686594409        0.12097983677864
C            2.61861166797131       -1.16956947882042        0.27778905976398
C            3.50971225700406       -0.27370658593198       -0.31229488065655
C            4.96151342117479       -0.42244476510293       -0.13980608422887
C            5.54701126032406       -1.69682274849665       -0.17160669727900
C            6.90472578407291       -1.88510997690543       -0.01645911396561
C            7.69987586291159       -0.76607598125162        0.19035746303162
C            7.13311866110268        0.52956713681049        0.20626134526181
C            5.76640295587638        0.69562208420158        0.04269343054230
C            8.22236733681269        1.44755617624185        0.39405723546960
C            8.30020622479406        2.82993614244446        0.50623629450930
C            9.53774569803893        3.40934699694107        0.70482001039012
C           10.68731301343044        2.62761275973369        0.80409197471420
C           10.63560279162816        1.25086925121169        0.69538781219169
C            9.39747924776816        0.66414340836504        0.47334506148768
N            9.06643322628212       -0.67061117179400        0.35059396419852
C            9.96717740020184       -1.74819799580404        0.37743051855097
C           11.07901414893481       -1.75034128228714       -0.45977810594077
C           11.96475466671517       -2.81212434427005       -0.42760404030886
C           11.74551630580737       -3.87950205864401        0.42799450368275
C           10.63642344180185       -3.88068803173737        1.25813603495875
C            9.75047069662376       -2.81870811088568        1.24005541570444
C            2.98326544222957        0.77103934806234       -1.07150071658691
C            1.62223141842574        0.91317750835258       -1.24331219970843
C           -1.46374228015959       -0.95033390041983       -0.98231683989031
C           -1.00106517252862       -2.08605731199524       -1.65461867877505
C           -1.82323148850761       -3.18542118475499       -1.82039088947492
C           -3.11914234647543       -3.17868253182787       -1.33745950122998
C           -3.59433081872220       -2.05043687919711       -0.66968501246831
C           -4.96552529195289       -2.00760463940777       -0.16126271879668
N           -5.40575238406788       -0.85566519313212        0.33857974190615
C           -6.66737831334122       -0.84611691037925        0.75946786604614
C           -7.19760111253353        0.40316062198474        1.30737227653736
C           -6.37672830992494        1.52506230071843        1.41902865286809
C           -6.87989049679376        2.70300315366893        1.93727838419080
C           -8.20360130676512        2.77419369775955        2.34449740917382
C           -9.02493310080193        1.66209909787670        2.23586327212307
C           -8.52676538999164        0.48045397978513        1.72142218555549
N           -7.47596783560779       -1.90215933106239        0.70952907062071
C           -6.94687774611192       -3.01837544761779        0.21462072162523
C           -7.79086584533484       -4.21255191761996        0.15888977040737
C           -9.13835450578247       -4.13763349654516        0.50903933730197
C           -9.93262325904688       -5.26682607241632        0.45392985060853
C           -9.39154879382667       -6.47896070678765        0.05272555086957
C           -8.05147997629557       -6.56043005515521       -0.29456306702691
C           -7.25262396879402       -5.43425197411347       -0.24348874763561
N           -5.69804217078330       -3.11542787982663       -0.23534667915838
C           -2.76569137356217       -0.95025758173125       -0.48679690777817
C           -0.72329522871669        2.41888600908152        0.08671372052902
C           -1.27428179373350        3.68343398152867        0.10500733626918
C           -2.12779800244423        6.49746487862621       -0.56613093085628
C           -2.69277595762051        7.75897487134654       -0.53155444630319
H           -4.50727495813179        8.89669691473156       -0.59970512629961
H           -5.94360356396003        6.90273949118620       -0.84093241461352
H           -4.94276324598125        4.66112060738238       -0.90283036730553
H           -3.60220035654646        3.29488073428465       -2.30706122436610
H           -2.62280180939049        1.05182368615289       -2.35281980967980
H            0.57884824494015       -1.72062462906008        0.60007280910049
H            2.99788569105713       -1.97218220940076        0.89309410578398
H            4.91619081392624       -2.55533846335684       -0.34940693385993
H            7.33419305641093       -2.87438013348429       -0.06817543126387
H            5.33213350925431        1.68348837602598        0.07541489179794
H            7.40797129111109        3.43515356311816        0.44433027516348
H            9.62018654720539        4.48286984797873        0.79301830516471
H           11.63976946476819        3.10862957907041        0.97380146121520
H           11.52968316992377        0.65286349007933        0.78864916132219
H           11.23561091080551       -0.92528191812590       -1.13897030019903
H           12.82600592317473       -2.80879998377253       -1.07949641544351
H           12.43741872520514       -4.70815439499474        0.44764188157010
H           10.46366118443883       -4.70846892454187        1.93017602879694
H            8.89507993557855       -2.80615160629816        1.89926415220803
H            3.65248238948372        1.46495213466383       -1.55854805424015
H            1.23218535653974        1.72037752982436       -1.84616745261804
H            0.00338825049104       -2.09596768904364       -2.05078688205374
H           -1.44978605522039       -4.05259157495920       -2.34452360035729
H           -3.77358568428314       -4.02443540223559       -1.47250889544668
H           -5.34936153845311        1.45243717089194        1.09734930125935
H           -6.23941399581253        3.56806413252541        2.02575901712146
H           -8.59473528595544        3.69641162685066        2.74803493215411
H          -10.05560770286207        1.71786227178708        2.55353285508457
H           -9.15053692927064       -0.39517160318285        1.63122166082321
H           -9.54233234521854       -3.18645065120908        0.81881986038903
H          -10.97616945439189       -5.20341489999886        0.72469758575624
H          -10.01413373520987       -7.36044430848600        0.01121245559661
H           -7.62993718674868       -7.50473391020111       -0.60583912009245
H           -6.20751535221366       -5.47912940401054       -0.50771376681473
H           -3.14854788401628       -0.09478732008845        0.04665109886374
H            0.08285601555353        2.16915471675198        0.76103169600970
H           -0.90136399348439        4.41196733214596        0.80982425493592
H           -1.05463156026946        6.38796941973943       -0.50584032004778
H           -2.05895158584827        8.62843079543848       -0.42977117939241

          :  Hamiltonian                  GFN2-xTB          :
         :: gradient norm              0.000044818471 Eh/a0 ::
         :: HOMO-LUMO gap              1.552582887187 eV    ::
         :: SCC energy              -159.611477841026 Eh    ::
         :: -> dispersion             -0.138106536989 Eh    ::
         :: -> Gsolv                  -0.071704697063 Eh    ::
         :: repulsion energy           2.927681996395 Eh    ::

    * Orbital Energies and Occupations

         #    Occupation            Energy/Eh            Energy/eV
      -------------------------------------------------------------
         1        2.0000           -0.6897416             -18.7688
       ...           ...                  ...                  ...
       134        2.0000           -0.4118204             -11.2062
       135        2.0000           -0.4104502             -11.1689
       136        2.0000           -0.4090191             -11.1300
       137        2.0000           -0.4081885             -11.1074
       138        2.0000           -0.4061044             -11.0507
       139        2.0000           -0.4033079             -10.9746
       140        2.0000           -0.3989224             -10.8552
       141        2.0000           -0.3904558             -10.6248
       142        2.0000           -0.3798591             -10.3365
       143        2.0000           -0.3797366             -10.3332
       144        2.0000           -0.3778049             -10.2806
       145        2.0000           -0.3626475              -9.8681
       146        2.0000           -0.3496303              -9.5139 (HOMO)
       147                         -0.2925739              -7.9613 (LUMO)
       148                         -0.2919765              -7.9451
       149                         -0.2495862              -6.7916
       150                         -0.2484349              -6.7603
       151                         -0.2454575              -6.6792
       152                         -0.2424986              -6.5987
       153                         -0.2335254              -6.3546
       154                         -0.2334324              -6.3520
       155                         -0.2321913              -6.3182
       156                         -0.2307997              -6.2804
       157                         -0.2268288              -6.1723
       ...                                ...                  ...
       287                          0.7469715              20.3261
      -------------------------------------------------------------
                  HL-Gap            0.0570564 Eh            1.5526 eV

     #   Z          covCN         q      C6AA      α(0)
     1   6 C        2.920    -0.033    28.815     8.803
     2   6 C        2.918    -0.031    28.774     8.796
     3   6 C        2.925    -0.036    28.886     8.814
     4   6 C        2.976     0.009    27.801     8.649
     5   6 C        2.975     0.002    27.969     8.675
     6   6 C        2.924    -0.034    28.857     8.809
     7   6 C        2.920    -0.048    29.182     8.859
     8   6 C        2.924     0.062    26.611     8.460
     9   7 N        2.752    -0.074    22.680     7.073
    10   6 C        2.924     0.060    26.651     8.466
    11   6 C        2.920    -0.049    29.205     8.862
    12   6 C        2.924    -0.036    28.886     8.814
    13   6 C        2.976     0.004    27.931     8.669
    14   6 C        2.975    -0.003    28.085     8.693
    15   6 C        2.928    -0.040    28.987     8.830
    16   6 C        2.908    -0.052    29.301     8.876
    17   6 C        3.077     0.046    26.888     8.501
    18   6 C        3.064    -0.019    28.421     8.742
    19   6 C        2.918    -0.040    28.992     8.830
    20   6 C        3.067    -0.019    28.406     8.739
    21   6 C        2.912    -0.035    28.869     8.810
    22   6 C        2.920    -0.043    29.065     8.841
    23   6 C        2.924    -0.035    28.875     8.812
    24   6 C        2.909    -0.052    29.287     8.874
    25   6 C        3.077     0.047    26.855     8.496
    26   7 N        2.802    -0.046    22.129     6.987
    27   6 C        2.913     0.064    26.564     8.451
    28   6 C        2.922    -0.042    29.043     8.838
    29   6 C        2.920    -0.028    28.701     8.785
    30   6 C        2.919    -0.033    28.818     8.803
    31   6 C        2.920    -0.028    28.701     8.785
    32   6 C        2.922    -0.042    29.044     8.838
    33   6 C        2.925    -0.035    28.878     8.813
    34   6 C        2.920    -0.047    29.176     8.858
    35   6 C        2.920     0.069    26.461     8.436
    36   6 C        2.922    -0.045    29.113     8.848
    37   6 C        2.917    -0.029    28.721     8.788
    38   6 C        2.922    -0.038    28.954     8.824
    39   6 C        2.983    -0.010    28.263     8.721
    40   6 C        2.982     0.220    23.364     7.929
    41   7 N        1.844    -0.325    29.271     8.018
    42   6 C        2.980     0.219    23.395     7.934
    43   6 C        2.983    -0.010    28.259     8.720
    44   6 C        2.923    -0.025    28.633     8.775
    45   6 C        2.918    -0.027    28.673     8.781
    46   6 C        2.920    -0.022    28.558     8.763
    47   6 C        2.918    -0.027    28.684     8.783
    48   6 C        2.923    -0.026    28.656     8.779
    49   7 N        1.844    -0.325    29.267     8.018
    50   6 C        2.981     0.218    23.403     7.936
    51   6 C        2.983    -0.010    28.258     8.720
    52   6 C        2.923    -0.026    28.652     8.778
    53   6 C        2.918    -0.027    28.684     8.783
    54   6 C        2.920    -0.022    28.564     8.764
    55   6 C        2.918    -0.027    28.683     8.782
    56   6 C        2.923    -0.026    28.653     8.778
    57   7 N        1.844    -0.324    29.259     8.017
    58   6 C        2.929    -0.046    29.151     8.854
    59   6 C        2.920    -0.048    29.187     8.859
    60   6 C        2.924    -0.035    28.860     8.810
    61   6 C        2.925    -0.035    28.882     8.813
    62   6 C        2.918    -0.031    28.769     8.796
    63   1 H        0.926     0.031     2.578     2.511
    64   1 H        0.926     0.031     2.576     2.510
    65   1 H        0.926     0.031     2.577     2.510
    66   1 H        0.926     0.035     2.512     2.478
    67   1 H        0.926     0.029     2.602     2.523
    68   1 H        0.926     0.030     2.580     2.512
    69   1 H        0.926     0.037     2.496     2.470
    70   1 H        0.926     0.033     2.546     2.495
    71   1 H        0.926     0.031     2.577     2.510
    72   1 H        0.926     0.033     2.546     2.495
    73   1 H        0.926     0.030     2.585     2.514
    74   1 H        0.926     0.027     2.624     2.533
    75   1 H        0.926     0.029     2.594     2.519
    76   1 H        0.926     0.030     2.593     2.518
    77   1 H        0.926     0.041     2.435     2.440
    78   1 H        0.926     0.040     2.449     2.447
    79   1 H        0.926     0.039     2.461     2.453
    80   1 H        0.926     0.040     2.449     2.447
    81   1 H        0.926     0.041     2.433     2.439
    82   1 H        0.926     0.037     2.488     2.466
    83   1 H        0.926     0.034     2.536     2.490
    84   1 H        0.926     0.046     2.366     2.406
    85   1 H        0.926     0.047     2.357     2.401
    86   1 H        0.926     0.048     2.346     2.395
    87   1 H        0.926     0.048     2.345     2.395
    88   1 H        0.926     0.047     2.354     2.399
    89   1 H        0.926     0.050     2.320     2.382
    90   1 H        0.926     0.048     2.350     2.397
    91   1 H        0.926     0.050     2.317     2.380
    92   1 H        0.926     0.050     2.321     2.382
    93   1 H        0.926     0.047     2.352     2.398
    94   1 H        0.926     0.050     2.322     2.383
    95   1 H        0.926     0.047     2.354     2.399
    96   1 H        0.926     0.050     2.320     2.382
    97   1 H        0.926     0.049     2.329     2.386
    98   1 H        0.926     0.035     2.516     2.480
    99   1 H        0.926     0.039     2.461     2.453
   100   1 H        0.926     0.033     2.546     2.495
   101   1 H        0.926     0.031     2.570     2.507

molecular dipole:
                 x           y           z       tot (Debye)
 q only:        0.801      -0.318       0.088
   full:        0.810      -0.395       0.076       2.299

 projected vibrational frequencies (cm⁻¹)
eigval :       -0.00    -0.00    -0.00     0.00     0.00     0.00
eigval :        6.12     8.26    10.45    15.00    17.32    22.75
eigval :       29.45    33.35    38.41    39.69    43.18    49.88
eigval :       53.19    58.57    64.78    67.19    73.02    76.89
eigval :       82.45    86.82    92.60    93.98   105.55   113.39
eigval :      114.85   143.49   158.32   159.51   180.74   184.84
eigval :      194.47   202.75   204.82   221.51   227.02   231.48
eigval :      239.98   253.60   260.91   271.63   279.92   303.03
eigval :      314.51   326.25   353.07   359.94   364.12   365.35
eigval :      372.44   379.92   381.04   382.83   390.46   391.78
eigval :      397.61   399.46   402.80   410.39   412.54   415.12
eigval :      422.47   433.09   442.06   446.54   466.05   483.04
eigval :      490.56   510.90   522.76   533.34   537.76   550.61
eigval :      559.53   581.80   586.11   587.05   587.77   588.33
eigval :      590.73   594.85   598.83   609.84   612.06   614.25
eigval :      615.73   619.01   627.65   643.71   644.69   657.53
eigval :      662.26   669.37   671.00   675.61   678.11   685.52
eigval :      687.70   692.88   705.00   709.23   729.68   752.68
eigval :      756.46   759.70   763.84   775.10   776.86   791.23
eigval :      801.97   807.27   814.88   821.87   832.20   846.70
eigval :      852.58   868.92   869.05   870.10   875.11   877.61
eigval :      878.04   878.72   881.61   883.77   893.97   897.70
eigval :      900.76   902.07   906.07   912.05   912.45   916.09
eigval :      918.42   919.14   920.40   922.10   925.12   926.07
eigval :      926.68   930.09   930.40   931.31   932.53   933.39
eigval :      935.30   936.62   936.86   938.07   957.95   967.59
eigval :      989.14   989.92   990.66   997.45  1013.12  1016.92
eigval :     1028.86  1049.83  1069.85  1073.69  1074.31  1075.17
eigval :     1075.25  1080.06  1086.56  1092.28  1107.59  1111.36
eigval :     1117.72  1118.19  1120.22  1122.07  1139.86  1143.25
eigval :     1153.82  1155.29  1166.29  1175.85  1176.76  1178.35
eigval :     1178.52  1180.69  1180.87  1183.75  1185.67  1193.71
eigval :     1195.28  1200.44  1202.00  1203.06  1205.99  1217.01
eigval :     1222.98  1243.26  1248.44  1259.72  1267.75  1268.95
eigval :     1269.69  1271.74  1275.24  1280.49  1284.30  1290.64
eigval :     1304.91  1311.99  1315.35  1316.55  1319.16  1323.43
eigval :     1325.56  1326.55  1327.25  1335.65  1347.88  1360.50
eigval :     1364.54  1368.20  1368.50  1372.68  1402.07  1409.35
eigval :     1420.71  1429.00  1429.72  1430.34  1430.89  1434.92
eigval :     1435.90  1462.19  1463.31  1464.54  1466.53  1475.71
eigval :     1480.69  1482.64  1498.31  1498.99  1510.42  1512.12
eigval :     1553.15  1559.00  1565.79  1568.08  1580.33  1580.83
eigval :     1581.66  1582.87  1583.12  1583.62  1589.29  1592.27
eigval :     1592.45  1593.08  1593.46  1598.97  1602.26  1613.27
eigval :     3066.43  3067.97  3070.33  3073.52  3074.11  3075.63
eigval :     3076.02  3076.23  3076.70  3077.19  3077.32  3077.94
eigval :     3078.24  3078.46  3080.18  3081.91  3082.22  3083.09
eigval :     3083.64  3084.99  3085.65  3086.16  3087.03  3087.91
eigval :     3088.51  3089.84  3090.36  3090.52  3091.58  3092.30
eigval :     3092.56  3094.19  3097.00  3103.43  3103.76  3104.70
eigval :     3106.15  3110.87  3113.32

   temp. (K)  partition function   enthalpy   heat capacity  entropy
                                   cal/mol     cal/K/mol   cal/K/mol   J/K/mol
 298.15  VIB  0.621E+25            29534.914    182.386    187.771
         ROT  0.302E+09              888.752      2.981     41.784
         INT  0.187E+34            30423.666    185.366    229.556
         TR   0.216E+29             1481.254      4.968     45.873
         TOT                       31904.9201   190.3346   275.4288  1152.3939

       T/K    H(0)-H(T)+PV         H(T)/Eh          T*S/Eh         G(T)/Eh
   ------------------------------------------------------------------------
    298.15    0.508437E-01    0.827525E+00    0.130865E+00    0.696660E+00
   ------------------------------------------------------------------------

         :::::::::::::::::::::::::::::::::::::::::::::::::::::
         ::                  THERMODYNAMIC                  ::
         :::::::::::::::::::::::::::::::::::::::::::::::::::::
         :: total free energy        -155.987135977263 Eh   ::
         ::.................................................::
         :: total energy             -156.683795845358 Eh   ::
         :: zero point energy           0.776681233943 Eh   ::
         :: G(RRHO) w/o ZPVE           -0.080021365847 Eh   ::
         :: G(RRHO) contrib.            0.696659868095 Eh   ::
         :::::::::::::::::::::::::::::::::::::::::::::::::::::

           -------------------------------------------------
          | TOTAL ENERGY             -156.683795845358 Eh   |
          | TOTAL ENTHALPY           -155.856270884876 Eh   |
          | TOTAL FREE ENERGY        -155.987135977263 Eh   |
          | GRADIENT NORM               0.000044818734 Eh/α |
          | HOMO-LUMO GAP               1.552582924534 eV   |
           -------------------------------------------------

 * finished run on 2025/09/07 at 06:07:02.260
