   * xtb version 6.7.1 (edcfbbe) compiled by 'albert@albert-system' on 2024-07-22

   ID    Z sym.   atoms
    1    6 C      1-8, 10-25, 27-40, 42-48, 50-56, 58-62
    2    7 N      9, 26, 41, 49, 57
    3    1 H      63-101

          program call               : xtb data2507/toluene/CzTPA-m-Trz/CzTPA-m-Trz.xyz --gfn 2 --gbsa toluene --ohess vtight --parallel 40 --molden --ceasefiles --namespace data2507/toluene/CzTPA-m-Trz/CzTPA-m-Trz_toluene_S0_preOpt
      * Solvation model:               GBSA
        Solvent                        toluene
        Solvent mass                       9.2140E+01 g/mol
          :  Hamiltonian                  GFN2-xTB          :
 * total energy  :  -156.6569340 Eh     change       -0.1472728E-08 Eh
 * total energy  :  -156.6717224 Eh     change       -0.1478845E-01 Eh
 * total energy  :  -156.6768342 Eh     change       -0.5111728E-02 Eh
 * total energy  :  -156.6790027 Eh     change       -0.2168533E-02 Eh
 * total energy  :  -156.6804279 Eh     change       -0.1425157E-02 Eh
 * total energy  :  -156.6810460 Eh     change       -0.6181796E-03 Eh
 * total energy  :  -156.6813411 Eh     change       -0.2950895E-03 Eh
 * total energy  :  -156.6815408 Eh     change       -0.1996282E-03 Eh
 * total energy  :  -156.6816949 Eh     change       -0.1541465E-03 Eh
 * total energy  :  -156.6818416 Eh     change       -0.1466577E-03 Eh
 * total energy  :  -156.6832157 Eh     change       -0.2478807E-06 Eh
 * total energy  :  -156.6832159 Eh     change       -0.2001982E-06 Eh
 * total energy  :  -156.6832161 Eh     change       -0.2343357E-06 Eh
 * total energy  :  -156.6832164 Eh     change       -0.3108256E-06 Eh
 * total energy  :  -156.6832168 Eh     change       -0.3641023E-06 Eh
 * total energy  :  -156.6832172 Eh     change       -0.4125797E-06 Eh
 * total energy  :  -156.6832177 Eh     change       -0.5072196E-06 Eh
 * total energy  :  -156.6832185 Eh     change       -0.7471842E-06 Eh
 * total energy  :  -156.6832185 Eh     change       -0.4389506E-08 Eh
   *** GEOMETRY OPTIMIZATION CONVERGED AFTER 122 ITERATIONS ***

 final structure:
================
101
 xtb: 6.7.1 (edcfbbe)
C           -4.27383054575471        7.76907508172142        0.81491441618692
C           -3.95324152130235        7.15561981892808       -0.38511004714800
C           -3.36323708951902        5.90509233778748       -0.39155577109458
C           -3.08879685149600        5.24246547425183        0.80357116532561
C           -2.46232018047323        3.91221352696959        0.79638317912291
C           -1.41961363147602        3.61688551489913       -0.08036502009726
C           -0.83544256604531        2.36718742089738       -0.09734897921655
C           -1.28107376339517        1.36738249282385        0.76651614442473
N           -0.69323766644975        0.09416128244998        0.74420023730727
C            0.69233176750686       -0.01697161223984        0.54731031344360
C            1.56471990890220        0.87611324507382        1.16762587011024
C            2.92612179696895        0.77077718451243        0.97209500755817
C            3.46233767346904       -0.22471643373036        0.15619212213395
C            4.91534010690676       -0.33499678186441       -0.03822692730476
C            5.43791779743470       -0.62156260211342       -1.30772324588375
C            6.79463108022736       -0.72367394429050       -1.53663428695097
C            7.65413770167556       -0.53570773036385       -0.46274836344104
C            7.14686873079851       -0.27195245385205        0.83096205009461
C            5.77989736673174       -0.16437982540829        1.03602587550922
C            8.28456854040415       -0.18389326852584        1.70388810179663
C            8.43084877456972        0.06703741250897        3.06227196782862
C            9.70407482957585        0.10319254313841        3.59536456340588
C           10.82397576177365       -0.09332173697279        2.78935223799770
C           10.70412488686373       -0.34384468159294        1.43563597707121
C            9.42593057204728       -0.40364566468093        0.89784041581236
N            9.03010799957402       -0.61332632719050       -0.40827730334048
C            9.88484829122955       -0.85793585077270       -1.49598873037472
C            9.78552834527944       -0.08654062960293       -2.65015703961674
C           10.63024962399627       -0.33065707757776       -3.71779590271583
C           11.58202556995338       -1.33438286440595       -3.64059711920934
C           11.68328478376740       -2.10122657518005       -2.49123409249411
C           10.83632975619783       -1.87097386115636       -1.42229462815379
C            2.58287449484965       -1.11151730403246       -0.46334842751208
C            1.21970596615838       -1.01133340734384       -0.27527356322098
C           -1.48196048027673       -1.04523807683950        0.87777409450903
C           -0.97876396336085       -2.20100018179646        1.48410518005174
C           -1.77064457039086       -3.32733871465642        1.61120470169220
C           -3.07656952498192       -3.32937091664768        1.15580936214006
C           -3.59318619546344       -2.18030523322862        0.55844808384218
C           -4.97728148045012       -2.14209365717693        0.08611397619371
N           -5.47595208479994       -0.96101615696873       -0.26940404012686
C           -6.74341257614549       -0.95956474324973       -0.67233064662408
C           -7.33586810778387        0.32235072196145       -1.05605024190301
C           -8.61820203077633        0.37149816822748       -1.60088628066826
C           -9.17381412562598        1.58634263573010       -1.95426850559916
C           -8.45929818703422        2.75971631995649       -1.76477760234304
C           -7.18317362638103        2.71735831567045       -1.22354320345856
C           -6.62071867458673        1.50535588946037       -0.87202068832027
N           -7.50333159624625       -2.05014645295411       -0.74075999810684
C           -6.92165328178762       -3.18901546973119       -0.37227216492137
C           -7.71590709390520       -4.41666842779262       -0.42972881753662
C           -9.07497411859313       -4.36130035863315       -0.73590446740751
C           -9.82204295957538       -5.52268682030981       -0.78318446725656
C           -9.22220053050645       -6.74654462852081       -0.52751313247381
C           -7.87036554299204       -6.80820310578815       -0.22458281589057
C           -7.11839249912633       -5.65022698032399       -0.17375602478836
N           -5.66269877160888       -3.28122592711835        0.04996338366526
C           -2.79516983352094       -1.05242554343489        0.41261074016478
C           -2.31669616639850        1.65943929893911        1.65413850275256
C           -2.89462082870480        2.91188197517838        1.66603362192798
C           -3.41968757262584        5.86766765149289        2.00435051246646
C           -4.00359137815739        7.12107028174890        2.00910814258074
H           -4.73178129465490        8.74751447706920        0.81961530665056
H           -4.16547767986164        7.65384404881808       -1.32044049781146
H           -3.13089015324983        5.42491870849964       -1.33139323578403
H           -1.05435451384814        4.38048407642054       -0.75124554815801
H           -0.02903379806294        2.15534580088986       -0.78419589830765
H            1.16560761792152        1.65388140904076        1.80239572875635
H            3.58603798846518        1.47974217408247        1.45026460424586
H            4.75533710872830       -0.74693378282907       -2.13540005076401
H            7.17216891231321       -0.95100601043645       -2.52228739622576
H            5.39182542902798        0.02342431848411        2.02591766402464
H            7.56401003264689        0.23354166296849        3.68444663012399
H            9.83968308121413        0.29429969835722        4.64992286891324
H           11.80822059423646       -0.04528454673215        3.23241172334731
H           11.57866953824648       -0.47902494117089        0.81715457058530
H            9.05526237627345        0.70767929083232       -2.69848997744351
H           10.55001915121194        0.27187598367515       -4.61070945577868
H           12.24336750129764       -1.51863207933667       -4.47392271916871
H           12.42031307385738       -2.88834565680264       -2.42840562451748
H           10.89898173355270       -2.47834693697446       -0.53138680560643
H            2.97309466440267       -1.89865818363785       -1.09167824006379
H            0.55184347934777       -1.70457770542454       -0.76635264466863
H            0.03414591065233       -2.20670671523824        1.85815235050093
H           -1.36497666912013       -4.20990736288603        2.08307191308514
H           -3.70724294351549       -4.19721896249891        1.26116799875108
H           -9.15905255516562       -0.55149368587928       -1.74136863784147
H          -10.16676605614929        1.62043576213621       -2.37765233771920
H           -8.89711114164031        3.70799188798513       -2.03933283533156
H           -6.62702345496200        3.63089002071628       -1.07375666622343
H           -5.62977870224711        1.45317364947309       -0.44877925933139
H           -9.52505188610003       -3.39985966341068       -0.92884923787356
H          -10.87496832546742       -5.47561896923595       -1.01863032224347
H           -9.80837051254510       -7.65282607208187       -0.56488586201887
H           -7.40331311628078       -7.76174387128755       -0.02701147093960
H           -6.06505079930452       -5.67784615744225        0.05844216647424
H           -3.21022425258014       -0.18235645550242       -0.07113753285635
H           -2.66790482503548        0.89526672136954        2.33261213780745
H           -3.70745528493064        3.11215347860700        2.34885867624011
H           -3.19719290762733        5.37493768935267        2.93990954939499
H           -4.24737883016888        7.59603533382955        2.94881996584250

          :  Hamiltonian                  GFN2-xTB          :
         :: gradient norm              0.000049215358 Eh/a0 ::
         :: HOMO-LUMO gap              1.568708419154 eV    ::
         :: SCC energy              -159.610972675990 Eh    ::
         :: -> dispersion             -0.137829138487 Eh    ::
         :: -> Gsolv                  -0.071732712144 Eh    ::
         :: repulsion energy           2.927754219804 Eh    ::

    * Orbital Energies and Occupations

         #    Occupation            Energy/Eh            Energy/eV
      -------------------------------------------------------------
         1        2.0000           -0.6895517             -18.7637
       ...           ...                  ...                  ...
       134        2.0000           -0.4119461             -11.2096
       135        2.0000           -0.4108841             -11.1807
       136        2.0000           -0.4090814             -11.1317
       137        2.0000           -0.4077131             -11.0944
       138        2.0000           -0.4058952             -11.0450
       139        2.0000           -0.4035910             -10.9823
       140        2.0000           -0.3984651             -10.8428
       141        2.0000           -0.3902228             -10.6185
       142        2.0000           -0.3796284             -10.3302
       143        2.0000           -0.3794744             -10.3260
       144        2.0000           -0.3777578             -10.2793
       145        2.0000           -0.3622580              -9.8575
       146        2.0000           -0.3498713              -9.5205 (HOMO)
       147                         -0.2922223              -7.9518 (LUMO)
       148                         -0.2914123              -7.9297
       149                         -0.2490143              -6.7760
       150                         -0.2480810              -6.7506
       151                         -0.2454314              -6.6785
       152                         -0.2422214              -6.5912
       153                         -0.2333502              -6.3498
       154                         -0.2330202              -6.3408
       155                         -0.2321557              -6.3173
       156                         -0.2307846              -6.2800
       157                         -0.2268627              -6.1732
       ...                                ...                  ...
       287                          0.7470006              20.3269
      -------------------------------------------------------------
                  HL-Gap            0.0576490 Eh            1.5687 eV

     #   Z          covCN         q      C6AA      α(0)
     1   6 C        2.920    -0.033    28.814     8.803
     2   6 C        2.918    -0.031    28.772     8.796
     3   6 C        2.925    -0.036    28.888     8.814
     4   6 C        2.976     0.010    27.799     8.649
     5   6 C        2.975     0.003    27.965     8.674
     6   6 C        2.924    -0.034    28.857     8.809
     7   6 C        2.920    -0.048    29.185     8.859
     8   6 C        2.924     0.062    26.610     8.459
     9   7 N        2.752    -0.075    22.691     7.075
    10   6 C        2.924     0.060    26.648     8.466
    11   6 C        2.920    -0.047    29.172     8.857
    12   6 C        2.925    -0.035    28.875     8.812
    13   6 C        2.976     0.004    27.925     8.668
    14   6 C        2.976    -0.002    28.082     8.693
    15   6 C        2.928    -0.040    28.984     8.829
    16   6 C        2.908    -0.052    29.299     8.876
    17   6 C        3.076     0.046    26.887     8.501
    18   6 C        3.065    -0.019    28.419     8.742
    19   6 C        2.918    -0.040    28.989     8.829
    20   6 C        3.067    -0.019    28.405     8.739
    21   6 C        2.912    -0.035    28.868     8.810
    22   6 C        2.920    -0.043    29.065     8.841
    23   6 C        2.924    -0.035    28.875     8.812
    24   6 C        2.909    -0.052    29.287     8.874
    25   6 C        3.077     0.047    26.855     8.496
    26   7 N        2.802    -0.046    22.129     6.987
    27   6 C        2.913     0.064    26.564     8.451
    28   6 C        2.922    -0.042    29.044     8.838
    29   6 C        2.920    -0.028    28.701     8.785
    30   6 C        2.919    -0.033    28.818     8.803
    31   6 C        2.920    -0.028    28.701     8.785
    32   6 C        2.922    -0.042    29.043     8.838
    33   6 C        2.924    -0.035    28.884     8.813
    34   6 C        2.920    -0.048    29.202     8.862
    35   6 C        2.920     0.069    26.459     8.435
    36   6 C        2.922    -0.045    29.123     8.850
    37   6 C        2.917    -0.029    28.722     8.788
    38   6 C        2.921    -0.039    28.959     8.825
    39   6 C        2.983    -0.010    28.262     8.720
    40   6 C        2.982     0.221    23.359     7.928
    41   7 N        1.845    -0.325    29.272     8.018
    42   6 C        2.980     0.219    23.392     7.934
    43   6 C        2.983    -0.010    28.257     8.720
    44   6 C        2.923    -0.026    28.657     8.779
    45   6 C        2.918    -0.027    28.686     8.783
    46   6 C        2.920    -0.022    28.559     8.764
    47   6 C        2.918    -0.027    28.670     8.780
    48   6 C        2.924    -0.025    28.636     8.776
    49   7 N        1.843    -0.325    29.269     8.018
    50   6 C        2.981     0.218    23.402     7.935
    51   6 C        2.983    -0.010    28.258     8.720
    52   6 C        2.923    -0.026    28.654     8.778
    53   6 C        2.918    -0.027    28.684     8.783
    54   6 C        2.920    -0.022    28.565     8.764
    55   6 C        2.918    -0.027    28.683     8.782
    56   6 C        2.924    -0.026    28.655     8.778
    57   7 N        1.844    -0.324    29.263     8.017
    58   6 C        2.929    -0.047    29.164     8.856
    59   6 C        2.920    -0.048    29.180     8.858
    60   6 C        2.924    -0.035    28.859     8.810
    61   6 C        2.925    -0.035    28.878     8.813
    62   6 C        2.918    -0.031    28.768     8.795
    63   1 H        0.926     0.031     2.577     2.510
    64   1 H        0.926     0.031     2.568     2.506
    65   1 H        0.926     0.032     2.554     2.499
    66   1 H        0.926     0.039     2.464     2.455
    67   1 H        0.926     0.035     2.520     2.482
    68   1 H        0.926     0.034     2.534     2.489
    69   1 H        0.926     0.037     2.486     2.466
    70   1 H        0.926     0.033     2.549     2.496
    71   1 H        0.926     0.031     2.577     2.510
    72   1 H        0.926     0.033     2.548     2.496
    73   1 H        0.926     0.030     2.585     2.514
    74   1 H        0.926     0.027     2.624     2.533
    75   1 H        0.926     0.030     2.593     2.518
    76   1 H        0.926     0.030     2.592     2.518
    77   1 H        0.926     0.041     2.433     2.439
    78   1 H        0.926     0.040     2.449     2.447
    79   1 H        0.926     0.039     2.461     2.453
    80   1 H        0.926     0.040     2.449     2.447
    81   1 H        0.926     0.041     2.434     2.440
    82   1 H        0.926     0.036     2.496     2.471
    83   1 H        0.926     0.031     2.577     2.510
    84   1 H        0.926     0.046     2.369     2.407
    85   1 H        0.926     0.047     2.361     2.403
    86   1 H        0.926     0.047     2.356     2.400
    87   1 H        0.926     0.050     2.319     2.381
    88   1 H        0.926     0.048     2.348     2.396
    89   1 H        0.926     0.050     2.321     2.382
    90   1 H        0.926     0.047     2.361     2.403
    91   1 H        0.926     0.049     2.338     2.391
    92   1 H        0.926     0.050     2.320     2.382
    93   1 H        0.926     0.047     2.352     2.398
    94   1 H        0.926     0.050     2.322     2.383
    95   1 H        0.926     0.047     2.354     2.399
    96   1 H        0.926     0.050     2.318     2.381
    97   1 H        0.926     0.049     2.334     2.389
    98   1 H        0.926     0.029     2.594     2.519
    99   1 H        0.926     0.036     2.505     2.475
   100   1 H        0.926     0.032     2.564     2.504
   101   1 H        0.926     0.031     2.577     2.510

molecular dipole:
                 x           y           z       tot (Debye)
 q only:        0.778       0.134      -0.601
   full:        0.795       0.088      -0.621       2.574

 projected vibrational frequencies (cm⁻¹)
eigval :       -0.00    -0.00     0.00     0.00     0.00     0.00
eigval :        3.10     7.66     9.44    10.84    18.13    23.66
eigval :       25.99    29.20    32.85    36.72    42.44    46.37
eigval :       51.70    55.71    58.31    62.76    65.19    76.67
eigval :       81.02    88.24    92.47    94.90   107.52   111.40
eigval :      117.75   137.43   154.09   161.14   181.59   184.85
eigval :      187.34   198.38   210.05   220.88   224.90   234.01
eigval :      239.75   252.36   267.74   273.84   282.76   286.16
eigval :      310.79   335.32   352.90   359.11   365.96   366.81
eigval :      370.31   372.06   379.33   379.69   384.76   392.79
eigval :      395.26   399.42   399.74   408.32   416.06   417.69
eigval :      423.19   437.75   446.11   453.47   466.36   476.40
eigval :      491.72   513.29   517.87   534.00   535.66   550.99
eigval :      561.23   581.61   582.48   586.65   587.27   588.41
eigval :      590.46   598.54   600.57   609.73   612.89   613.64
eigval :      616.20   619.08   628.78   643.29   644.65   657.60
eigval :      663.06   666.94   671.55   675.50   676.33   685.66
eigval :      687.59   692.40   705.09   710.62   730.32   751.81
eigval :      756.80   758.78   759.97   773.34   776.29   792.78
eigval :      802.76   806.34   815.73   824.14   831.52   846.71
eigval :      853.23   867.12   868.24   872.74   875.41   876.27
eigval :      878.09   879.00   880.29   882.31   895.62   896.58
eigval :      900.66   901.30   904.79   911.68   911.94   913.49
eigval :      915.19   919.32   919.87   920.70   924.09   927.81
eigval :      928.78   928.92   929.42   929.70   931.10   932.29
eigval :      932.63   933.75   935.92   936.16   957.77   967.80
eigval :      988.90   989.79   990.52   997.22  1013.21  1016.87
eigval :     1028.92  1049.99  1069.66  1074.45  1074.76  1075.41
eigval :     1075.57  1078.34  1086.97  1092.68  1107.64  1110.86
eigval :     1115.54  1119.96  1121.23  1122.16  1139.09  1143.32
eigval :     1155.43  1156.16  1166.60  1176.24  1176.80  1178.19
eigval :     1178.48  1179.65  1181.83  1182.39  1185.31  1193.14
eigval :     1194.19  1199.53  1201.72  1202.30  1206.06  1216.71
eigval :     1223.31  1244.19  1250.40  1260.66  1267.41  1268.34
eigval :     1269.35  1272.22  1272.84  1280.34  1284.62  1291.50
eigval :     1304.66  1311.99  1315.05  1316.22  1319.36  1323.13
eigval :     1325.34  1326.35  1327.11  1335.88  1348.01  1360.17
eigval :     1365.10  1368.21  1368.70  1373.21  1401.71  1408.97
eigval :     1420.76  1428.82  1429.84  1430.02  1430.74  1434.26
eigval :     1435.92  1462.45  1463.19  1465.02  1466.93  1475.79
eigval :     1479.67  1482.55  1498.65  1499.05  1510.65  1512.22
eigval :     1553.97  1559.74  1566.34  1568.48  1580.56  1580.79
eigval :     1581.37  1582.77  1583.00  1583.65  1590.82  1592.32
eigval :     1592.90  1593.01  1593.69  1599.25  1602.21  1613.76
eigval :     3065.94  3067.43  3070.84  3073.82  3073.93  3075.36
eigval :     3075.60  3076.21  3076.60  3077.06  3077.62  3077.87
eigval :     3078.22  3078.97  3079.41  3082.32  3082.64  3083.96
eigval :     3084.24  3085.01  3085.44  3085.95  3086.07  3087.82
eigval :     3088.47  3089.31  3090.06  3090.68  3091.52  3092.31
eigval :     3092.82  3094.97  3096.17  3101.03  3103.10  3103.70
eigval :     3105.25  3109.40  3112.72

   temp. (K)  partition function   enthalpy   heat capacity  entropy
                                   cal/mol     cal/K/mol   cal/K/mol   J/K/mol
 298.15  VIB  0.449E+26            29624.409    181.838    189.493
         ROT  0.304E+09              888.752      2.981     41.800
         INT  0.137E+35            30513.161    184.819    231.293
         TR   0.216E+29             1481.254      4.968     45.873
         TOT                       31994.4149   189.7875   277.1656  1159.6609

       T/K    H(0)-H(T)+PV         H(T)/Eh          T*S/Eh         G(T)/Eh
   ------------------------------------------------------------------------
    298.15    0.509863E-01    0.827428E+00    0.131690E+00    0.695738E+00
   ------------------------------------------------------------------------

         :::::::::::::::::::::::::::::::::::::::::::::::::::::
         ::                  THERMODYNAMIC                  ::
         :::::::::::::::::::::::::::::::::::::::::::::::::::::
         :: total free energy        -155.987480315158 Eh   ::
         ::.................................................::
         :: total energy             -156.683218460384 Eh   ::
         :: zero point energy           0.776442122608 Eh   ::
         :: G(RRHO) w/o ZPVE           -0.080703977382 Eh   ::
         :: G(RRHO) contrib.            0.695738145226 Eh   ::
         :::::::::::::::::::::::::::::::::::::::::::::::::::::

           -------------------------------------------------
          | TOTAL ENERGY             -156.683218460384 Eh   |
          | TOTAL ENTHALPY           -155.855789992224 Eh   |
          | TOTAL FREE ENERGY        -155.987480315158 Eh   |
          | GRADIENT NORM               0.000049224202 Eh/α |
          | HOMO-LUMO GAP               1.568708371867 eV   |
           -------------------------------------------------

 * finished run on 2025/09/07 at 05:58:25.519
