   * xtb version 6.7.1 (edcfbbe) compiled by 'albert@albert-system' on 2024-07-22

   ID    Z sym.   atoms
    1    6 C      1-8, 10-25, 27-40, 42-48, 50-56, 58-62
    2    7 N      9, 26, 41, 49, 57
    3    1 H      63-101

          program call               : xtb data2507/toluene/CzTPA-m-Trz/CzTPA-m-Trz_toluene_S0_finalOpt.xtbopt.xyz --gfn 2 --uhf 2 --gbsa toluene --ohess vtight --parallel 40 --molden --ceasefiles --namespace data2507/toluene/CzTPA-m-Trz/CzTPA-m-Trz_toluene_T1_preOpt
      * Solvation model:               GBSA
        Solvent                        toluene
        Solvent mass                       9.2140E+01 g/mol
          :  Hamiltonian                  GFN2-xTB          :
 * total energy  :  -156.6060428 Eh     change       -0.4153264E-09 Eh
 * total energy  :  -156.6078785 Eh     change       -0.1835750E-02 Eh
 * total energy  :  -156.6087058 Eh     change       -0.8272683E-03 Eh
 * total energy  :  -156.6088896 Eh     change       -0.1837762E-03 Eh
 * total energy  :  -156.6090970 Eh     change       -0.2074790E-03 Eh
 * total energy  :  -156.6091553 Eh     change       -0.5829353E-04 Eh
 * total energy  :  -156.6091948 Eh     change       -0.3949771E-04 Eh
 * total energy  :  -156.6092052 Eh     change       -0.1031632E-04 Eh
 * total energy  :  -156.6092222 Eh     change       -0.1705154E-04 Eh
 * total energy  :  -156.6092346 Eh     change       -0.1239122E-04 Eh
 * total energy  :  -156.6095126 Eh     change       -0.7298115E-06 Eh
 * total energy  :  -156.6095134 Eh     change       -0.8256638E-06 Eh
 * total energy  :  -156.6095142 Eh     change       -0.7758103E-06 Eh
 * total energy  :  -156.6095148 Eh     change       -0.6048993E-06 Eh
 * total energy  :  -156.6095154 Eh     change       -0.5727721E-06 Eh
 * total energy  :  -156.6095159 Eh     change       -0.5036895E-06 Eh
 * total energy  :  -156.6095163 Eh     change       -0.4465697E-06 Eh
 * total energy  :  -156.6095168 Eh     change       -0.4480017E-06 Eh
 * total energy  :  -156.6095168 Eh     change       -0.2592404E-07 Eh
   *** GEOMETRY OPTIMIZATION CONVERGED AFTER 68 ITERATIONS ***

 final structure:
================
101
 xtb: 6.7.1 (edcfbbe)
C           -4.32484543575538        7.85265126351056       -0.75972986886436
C           -5.08068958148654        6.69697330636887       -0.87552634121787
C           -4.46134463016911        5.46181429385628       -0.91823033328093
C           -3.07271878695015        5.36097591145723       -0.83486593099435
C           -2.41799780097832        4.04818170119999       -0.87333853845513
C           -2.86922115279615        3.04869947179667       -1.73868479249785
C           -2.27101401801634        1.80873146891790       -1.76647170042757
C           -1.19685956591236        1.52235266412184       -0.91822131812361
N           -0.61730831537044        0.25460834411934       -0.91499495878856
C            0.74570000063911        0.10061138261453       -0.71275575262552
C            1.24548231673783       -1.01292699680377       -0.02542640516095
C            2.59975156505726       -1.17124493649572        0.15519436993805
C            3.51346089027824       -0.23057394987592       -0.33385121975044
C            4.95242547075550       -0.40486660797016       -0.14569687809833
C            5.52042510468156       -1.69052804776292       -0.19157882505459
C            6.87099302866741       -1.90219946916506       -0.02489422901197
C            7.68255067764834       -0.79834769374869        0.21461417572630
C            7.13414176479580        0.50784031825199        0.24987626879933
C            5.77651499233307        0.69973748593197        0.06788780855694
C            8.23660528657182        1.40401998152477        0.47575459005125
C            8.33577573536811        2.78068749002745        0.62347312501429
C            9.58190821480060        3.33248141291247        0.85382631947535
C           10.71601466181765        2.52912613959395        0.94797316627003
C           10.64193583912015        1.15574459877247        0.80409455577860
C            9.39625262463917        0.59863144776126        0.55332996926144
N            9.04212284888668       -0.72847117343042        0.39513631932601
C            9.92555242845331       -1.82185390624271        0.41705882598544
C           11.04439701892774       -1.83041840649516       -0.41038919019337
C           11.91149819731403       -2.90769009417862       -0.38401814030144
C           11.66683220822163       -3.98105361671589        0.45729789396526
C           10.55102500680274       -3.97410903686588        1.27854793242042
C            9.68203339821037       -2.89808189828588        1.26498835566006
C            3.00524429407781        0.88347069039863       -1.01227475908920
C            1.65332798509580        1.04892581767567       -1.20201243857868
C           -1.43642827577384       -0.87181310160403       -1.08661953376775
C           -0.97240853557803       -1.97354669856516       -1.82405698570315
C           -1.80191050697227       -3.07677852561257       -1.98442970296135
C           -3.06880090886874       -3.09922283969388       -1.44924077458268
C           -3.55884458844630       -1.99090465656424       -0.72055547621536
C           -4.87513056459641       -1.97247747990469       -0.17915315839976
N           -5.30843503247843       -0.85042320694067        0.45068896147826
C           -6.53244867780738       -0.85343582658847        0.92212674018608
C           -7.01864048583978        0.35228679177465        1.58621693413522
C           -6.21074868161752        1.48858930809799        1.67326791968443
C           -6.67476598615255        2.62792671287900        2.29849284215767
C           -7.95017451154772        2.65391799311990        2.84571504625208
C           -8.75882993805273        1.52985645190958        2.76455163561510
C           -8.29982384298237        0.38696341997202        2.14020578889479
N           -7.37252329614504       -1.90430427153431        0.82707455681773
C           -6.88593230369905       -2.98980577920297        0.18898038971525
C           -7.75922403884299       -4.15025229874683        0.05668664945938
C           -9.05553669071705       -4.12285892745539        0.57570389488273
C           -9.87974941737569       -5.22353741858531        0.45209401499556
C           -9.42671294403924       -6.36654103869803       -0.19010158782209
C           -8.14005662280626       -6.40206040870726       -0.70989115100630
C           -7.31166364165990       -5.30525962929384       -0.58902131670215
N           -5.67614739071720       -3.05613891792751       -0.31549193792863
C           -2.70690339096741       -0.88755975785344       -0.53900136010034
C           -0.73295845484697        2.52180335105312       -0.05718054745622
C           -1.33371331846196        3.76158788300411       -0.04167546991562
C           -2.32261985785239        6.53039392036462       -0.71257738965032
C           -2.94427978630699        7.76467340080321       -0.68011842816511
H           -4.81014244917880        8.81725253710163       -0.73095612751411
H           -6.15807295771380        6.75767877503394       -0.93199357055217
H           -5.05838615338554        4.56428903620977       -0.99228070261815
H           -3.68629941587867        3.25638242473623       -2.41307786127871
H           -2.62368354025042        1.05033212041802       -2.44947921664884
H            0.55319769396123       -1.73434582111806        0.38230580135171
H            2.95777461587635       -2.02061193271503        0.71671883879448
H            4.88147318891060       -2.53557961722889       -0.39817819329843
H            7.28707520585035       -2.89587702929004       -0.09176456135057
H            5.35929865781371        1.69343769094762        0.11807798292717
H            7.45632163224521        3.40392028099672        0.56495123763171
H            9.68136490683551        4.40148840575609        0.97109632613901
H           11.67422128113358        2.98854151055762        1.14144450011087
H           11.52388885877620        0.53991883642682        0.89294708584705
H           11.22034989616498       -1.00017752516158       -1.07821861744940
H           12.77801205546475       -2.91148185139430       -1.02856681901791
H           12.34453781782108       -4.82132288678440        0.47279941246248
H           10.35940910143625       -4.80666970293412        1.93916761416220
H            8.82184467877043       -2.87885958266636        1.91756293424646
H            3.68674846546312        1.60773878763362       -1.43146261202817
H            1.28288549168554        1.89775585930833       -1.75725537211723
H            0.00495895756275       -1.94647226035752       -2.27940863219371
H           -1.44557553318632       -3.92399912601549       -2.55288087855338
H           -3.71533269784388       -3.95302887663695       -1.57842773505019
H           -5.22158709244587        1.45347977005370        1.24197012591671
H           -6.04273343323662        3.50223013683222        2.36229476608043
H           -8.31194875534124        3.54701460286973        3.33377377302291
H           -9.75185196214211        1.54707451697561        3.19064317998910
H           -8.91706127014710       -0.49588727982557        2.06920396413815
H           -9.39376640472286       -3.22581612637795        1.07206249977644
H          -10.88109191921675       -5.19302094728011        0.85747630838672
H          -10.07291668468352       -7.22679050646704       -0.28538334464137
H           -7.78501937199155       -7.29164825218753       -1.21038456968629
H           -6.30827544425336       -5.31782354647666       -0.98725692475097
H           -3.06424047705241       -0.05774281587177        0.05043253433643
H            0.08051128910231        2.30487846318978        0.61906213587340
H           -0.98392780835176        4.51006487199141        0.65320042486082
H           -1.24509310480712        6.47064024275207       -0.66733630111690
H           -2.35033400592823        8.66316610938162       -0.59398522581354

          :  Hamiltonian                  GFN2-xTB          :
         :: gradient norm              0.000118353479 Eh/a0 ::
         :: HOMO-LUMO gap              0.143113588909 eV    ::
         :: SCC energy              -159.526039641703 Eh    ::
         :: -> dispersion             -0.137858085382 Eh    ::
         :: -> Gsolv                  -0.080063367580 Eh    ::
         :: repulsion energy           2.916522847632 Eh    ::

    * Orbital Energies and Occupations

         #    Occupation            Energy/Eh            Energy/eV
      -------------------------------------------------------------
         1        2.0000           -0.6852469             -18.6465
       ...           ...                  ...                  ...
       135        2.0000           -0.4050441             -11.0218
       136        2.0000           -0.4043612             -11.0032
       137        2.0000           -0.4037488             -10.9866
       138        2.0000           -0.3990261             -10.8581
       139        2.0000           -0.3968668             -10.7993
       140        2.0000           -0.3960623             -10.7774
       141        2.0000           -0.3909737             -10.6389
       142        2.0000           -0.3865089             -10.5174
       143        2.0000           -0.3712459             -10.1021
       144        1.8436           -0.3590356              -9.7699
       145        1.8105           -0.3588153              -9.7639
       146        1.3460           -0.3568298              -9.7098
       147        0.9410           -0.2750306              -7.4840 (HOMO)
       148        0.0590           -0.2697697              -7.3408 (LUMO)
       149        0.0000           -0.2599241              -7.0729
       150                         -0.2530111              -6.8848
       151                         -0.2493746              -6.7858
       152                         -0.2377129              -6.4685
       153                         -0.2373274              -6.4580
       154                         -0.2352064              -6.4003
       155                         -0.2347474              -6.3878
       156                         -0.2330057              -6.3404
       157                         -0.2250856              -6.1249
       158                         -0.2225857              -6.0569
       ...                                ...                  ...
       287                          0.7390484              20.1105
      -------------------------------------------------------------
                  HL-Gap            0.0052609 Eh            0.1432 eV

     #   Z          covCN         q      C6AA      α(0)
     1   6 C        2.920    -0.029    28.735     8.791
     2   6 C        2.918    -0.029    28.724     8.789
     3   6 C        2.924    -0.033    28.813     8.803
     4   6 C        2.976     0.011    27.763     8.643
     5   6 C        2.976     0.014    27.699     8.633
     6   6 C        2.923    -0.030    28.752     8.793
     7   6 C        2.919    -0.038    28.947     8.823
     8   6 C        2.927     0.063    26.578     8.454
     9   7 N        2.754    -0.026    21.746     6.926
    10   6 C        2.925     0.065    26.546     8.449
    11   6 C        2.918    -0.040    28.993     8.830
    12   6 C        2.922    -0.031    28.764     8.795
    13   6 C        2.975     0.016    27.657     8.626
    14   6 C        2.975     0.004    27.926     8.668
    15   6 C        2.927    -0.036    28.907     8.817
    16   6 C        2.907    -0.048    29.188     8.859
    17   6 C        3.076     0.049    26.823     8.491
    18   6 C        3.064    -0.015    28.309     8.725
    19   6 C        2.917    -0.035    28.877     8.812
    20   6 C        3.066    -0.016    28.333     8.728
    21   6 C        2.912    -0.032    28.798     8.800
    22   6 C        2.920    -0.039    28.966     8.826
    23   6 C        2.924    -0.032    28.808     8.802
    24   6 C        2.909    -0.048    29.187     8.859
    25   6 C        3.078     0.047    26.868     8.498
    26   7 N        2.802    -0.031    21.834     6.940
    27   6 C        2.913     0.062    26.603     8.458
    28   6 C        2.922    -0.040    29.000     8.831
    29   6 C        2.920    -0.027    28.666     8.780
    30   6 C        2.919    -0.030    28.759     8.794
    31   6 C        2.920    -0.027    28.666     8.780
    32   6 C        2.922    -0.041    29.007     8.832
    33   6 C        2.923    -0.031    28.774     8.797
    34   6 C        2.918    -0.042    29.039     8.837
    35   6 C        2.923     0.057    26.712     8.476
    36   6 C        2.918    -0.062    29.552     8.915
    37   6 C        2.914    -0.033    28.829     8.805
    38   6 C        2.919    -0.043    29.059     8.840
    39   6 C        2.976    -0.019    28.480     8.754
    40   6 C        2.944     0.174    24.271     8.080
    41   7 N        1.845    -0.324    29.260     8.017
    42   6 C        2.939     0.212    23.530     7.955
    43   6 C        2.983    -0.012    28.308     8.728
    44   6 C        2.923    -0.032    28.805     8.801
    45   6 C        2.917    -0.032    28.795     8.799
    46   6 C        2.920    -0.033    28.814     8.803
    47   6 C        2.917    -0.032    28.793     8.799
    48   6 C        2.923    -0.032    28.800     8.801
    49   7 N        1.842    -0.361    30.244     8.150
    50   6 C        2.939     0.211    23.538     7.957
    51   6 C        2.982    -0.013    28.322     8.730
    52   6 C        2.924    -0.032    28.807     8.802
    53   6 C        2.917    -0.032    28.797     8.800
    54   6 C        2.920    -0.033    28.821     8.804
    55   6 C        2.917    -0.032    28.801     8.800
    56   6 C        2.923    -0.033    28.818     8.803
    57   7 N        1.844    -0.320    29.139     8.000
    58   6 C        2.926    -0.053    29.319     8.880
    59   6 C        2.919    -0.042    29.040     8.837
    60   6 C        2.923    -0.031    28.776     8.797
    61   6 C        2.924    -0.034    28.835     8.806
    62   6 C        2.918    -0.029    28.732     8.790
    63   1 H        0.926     0.034     2.525     2.485
    64   1 H        0.926     0.033     2.544     2.494
    65   1 H        0.926     0.033     2.543     2.494
    66   1 H        0.926     0.044     2.390     2.417
    67   1 H        0.926     0.041     2.436     2.441
    68   1 H        0.926     0.044     2.398     2.422
    69   1 H        0.926     0.049     2.330     2.387
    70   1 H        0.926     0.042     2.425     2.435
    71   1 H        0.926     0.039     2.466     2.456
    72   1 H        0.926     0.044     2.394     2.420
    73   1 H        0.926     0.037     2.490     2.467
    74   1 H        0.926     0.033     2.542     2.493
    75   1 H        0.926     0.035     2.522     2.483
    76   1 H        0.926     0.035     2.513     2.479
    77   1 H        0.926     0.045     2.388     2.416
    78   1 H        0.926     0.043     2.412     2.429
    79   1 H        0.926     0.041     2.429     2.437
    80   1 H        0.926     0.043     2.412     2.429
    81   1 H        0.926     0.045     2.387     2.416
    82   1 H        0.926     0.052     2.301     2.372
    83   1 H        0.926     0.047     2.355     2.400
    84   1 H        0.926     0.035     2.516     2.480
    85   1 H        0.926     0.034     2.533     2.489
    86   1 H        0.926     0.031     2.572     2.508
    87   1 H        0.926     0.037     2.489     2.467
    88   1 H        0.926     0.037     2.490     2.468
    89   1 H        0.926     0.038     2.479     2.462
    90   1 H        0.926     0.035     2.517     2.481
    91   1 H        0.926     0.037     2.490     2.468
    92   1 H        0.926     0.038     2.481     2.463
    93   1 H        0.926     0.035     2.515     2.480
    94   1 H        0.926     0.037     2.487     2.466
    95   1 H        0.926     0.036     2.507     2.476
    96   1 H        0.926     0.038     2.481     2.463
    97   1 H        0.926     0.038     2.480     2.463
    98   1 H        0.926     0.048     2.344     2.394
    99   1 H        0.926     0.051     2.306     2.375
   100   1 H        0.926     0.039     2.458     2.452
   101   1 H        0.926     0.036     2.503     2.474

molecular dipole:
                 x           y           z       tot (Debye)
 q only:        7.194       2.008      -0.380
   full:        7.046       1.841      -0.373      18.535

 projected vibrational frequencies (cm⁻¹)
eigval :       -0.00    -0.00    -0.00     0.00     0.00     0.00
eigval :        3.20     7.56    10.91    12.47    17.76    27.19
eigval :       34.18    39.62    41.45    42.53    46.62    53.09
eigval :       55.45    60.20    63.06    66.76    70.43    79.08
eigval :       85.71    87.35    94.46   102.22   106.55   114.55
eigval :      118.97   141.96   156.19   160.91   176.62   190.62
eigval :      196.84   203.26   213.94   219.70   228.53   230.66
eigval :      238.77   247.90   259.17   264.01   273.58   303.79
eigval :      309.50   323.53   346.75   351.26   365.42   370.73
eigval :      372.95   376.92   379.66   380.67   382.10   385.27
eigval :      387.07   390.92   394.72   400.52   408.96   410.03
eigval :      419.31   428.33   430.34   445.19   465.80   482.10
eigval :      491.85   505.48   527.01   536.34   538.57   549.07
eigval :      551.42   559.62   562.02   578.47   582.98   586.28
eigval :      587.95   588.48   589.36   595.02   596.39   604.70
eigval :      606.58   611.94   614.25   614.98   633.20   636.13
eigval :      643.87   657.65   660.80   665.30   668.79   670.69
eigval :      678.62   689.98   694.69   697.08   700.13   708.16
eigval :      727.66   752.60   757.26   757.73   761.21   761.39
eigval :      763.75   773.97   803.31   809.21   814.14   823.49
eigval :      826.20   833.84   836.28   853.05   859.00   864.56
eigval :      869.17   871.21   874.13   874.58   878.45   880.86
eigval :      894.89   897.44   898.43   902.34   905.06   905.19
eigval :      907.01   913.87   917.56   918.28   921.09   921.91
eigval :      923.98   925.77   926.15   926.39   927.68   928.53
eigval :      930.22   931.38   931.99   933.84   936.24   943.81
eigval :      953.79   965.84   983.07   985.80   990.91   997.08
eigval :     1007.89  1011.66  1025.09  1062.32  1066.69  1070.36
eigval :     1072.62  1072.79  1074.71  1078.11  1084.71  1100.88
eigval :     1107.64  1111.38  1115.90  1120.77  1121.61  1124.78
eigval :     1140.13  1143.01  1147.54  1153.62  1157.40  1175.51
eigval :     1176.04  1176.38  1177.01  1178.16  1178.43  1179.33
eigval :     1181.47  1189.01  1189.90  1195.94  1199.35  1200.12
eigval :     1207.16  1223.45  1240.95  1244.86  1259.10  1264.80
eigval :     1267.17  1267.61  1269.25  1271.97  1275.88  1279.43
eigval :     1280.26  1285.54  1297.09  1308.13  1313.93  1314.90
eigval :     1316.54  1316.89  1326.54  1329.02  1330.87  1337.99
eigval :     1346.61  1353.70  1355.84  1364.15  1368.03  1391.06
eigval :     1404.52  1415.37  1419.74  1421.49  1427.57  1432.10
eigval :     1432.91  1433.06  1434.74  1452.63  1454.50  1459.60
eigval :     1463.80  1474.16  1475.48  1477.60  1485.83  1488.29
eigval :     1491.72  1528.72  1540.91  1546.32  1555.01  1563.16
eigval :     1564.94  1566.46  1576.54  1577.15  1580.01  1580.07
eigval :     1582.50  1590.56  1591.20  1592.63  1597.22  1606.52
eigval :     3068.05  3068.95  3069.18  3069.67  3070.54  3071.27
eigval :     3071.42  3075.80  3078.29  3079.33  3080.43  3081.98
eigval :     3082.71  3083.89  3083.95  3084.66  3084.70  3085.11
eigval :     3085.78  3086.75  3088.68  3090.29  3090.68  3091.72
eigval :     3091.92  3092.36  3094.15  3094.30  3094.72  3095.42
eigval :     3095.72  3095.96  3096.58  3096.86  3097.16  3098.43
eigval :     3099.04  3100.19  3102.20

   temp. (K)  partition function   enthalpy   heat capacity  entropy
                                   cal/mol     cal/K/mol   cal/K/mol   J/K/mol
 298.15  VIB  0.767E+25            29825.104    185.736    189.758
         ROT  0.302E+09              888.752      2.981     41.782
         INT  0.232E+34            30713.857    188.717    231.540
         TR   0.216E+29             1481.254      4.968     45.873
         TOT                       32195.1107   193.6847   277.4130  1160.6960

       T/K    H(0)-H(T)+PV         H(T)/Eh          T*S/Eh         G(T)/Eh
   ------------------------------------------------------------------------
    298.15    0.513062E-01    0.822109E+00    0.131808E+00    0.690301E+00
   ------------------------------------------------------------------------

         :::::::::::::::::::::::::::::::::::::::::::::::::::::
         ::                  THERMODYNAMIC                  ::
         :::::::::::::::::::::::::::::::::::::::::::::::::::::
         :: total free energy        -155.919216034308 Eh   ::
         ::.................................................::
         :: total energy             -156.609516810241 Eh   ::
         :: zero point energy           0.770802466595 Eh   ::
         :: G(RRHO) w/o ZPVE           -0.080501690662 Eh   ::
         :: G(RRHO) contrib.            0.690300775933 Eh   ::
         :::::::::::::::::::::::::::::::::::::::::::::::::::::

           -------------------------------------------------
          | TOTAL ENERGY             -156.609516810241 Eh   |
          | TOTAL ENTHALPY           -155.787408169029 Eh   |
          | TOTAL FREE ENERGY        -155.919216034308 Eh   |
          | GRADIENT NORM               0.000112746801 Eh/α |
          | HOMO-LUMO GAP               0.143156546661 eV   |
           -------------------------------------------------

 * finished run on 2025/09/07 at 06:07:21.613
