   * xtb version 6.7.1 (edcfbbe) compiled by 'albert@albert-system' on 2024-07-22

   ID    Z sym.   atoms
    1    6 C      1-8, 10-25, 27-40, 42-48, 50-56, 58-62
    2    7 N      9, 26, 41, 49, 57
    3    1 H      63-101

          program call               : xtb data2507/toluene/CzTPA-m-Trz/CzTPA-m-Trz_toluene_T1_crest.xyz --gfn 2 --uhf 2 --gbsa toluene --ohess vtight --parallel 40 --molden --ceasefiles --namespace data2507/toluene/CzTPA-m-Trz/CzTPA-m-Trz_toluene_T1_finalOpt
      * Solvation model:               GBSA
        Solvent                        toluene
        Solvent mass                       9.2140E+01 g/mol
          :  Hamiltonian                  GFN2-xTB          :
 * total energy  :  -156.6056735 Eh     change       -0.1843742E-06 Eh
 * total energy  :  -156.6058992 Eh     change       -0.2257060E-03 Eh
 * total energy  :  -156.6060130 Eh     change       -0.1137831E-03 Eh
 * total energy  :  -156.6060437 Eh     change       -0.3064505E-04 Eh
 * total energy  :  -156.6061135 Eh     change       -0.6979497E-04 Eh
 * total energy  :  -156.6061662 Eh     change       -0.5271797E-04 Eh
 * total energy  :  -156.6062137 Eh     change       -0.4753602E-04 Eh
 * total energy  :  -156.6062430 Eh     change       -0.2924451E-04 Eh
 * total energy  :  -156.6062665 Eh     change       -0.2353633E-04 Eh
 * total energy  :  -156.6062982 Eh     change       -0.3173932E-04 Eh
 * total energy  :  -156.6097169 Eh     change       -0.1193027E-05 Eh
 * total energy  :  -156.6097178 Eh     change       -0.9930827E-06 Eh
 * total energy  :  -156.6097186 Eh     change       -0.7703158E-06 Eh
 * total energy  :  -156.6097193 Eh     change       -0.6460074E-06 Eh
 * total energy  :  -156.6097199 Eh     change       -0.6291730E-06 Eh
 * total energy  :  -156.6097206 Eh     change       -0.6926988E-06 Eh
 * total energy  :  -156.6097214 Eh     change       -0.8241614E-06 Eh
 * total energy  :  -156.6097214 Eh     change        0.5863399E-09 Eh
 * total energy  :  -156.6097214 Eh     change       -0.8505282E-08 Eh
   *** GEOMETRY OPTIMIZATION CONVERGED AFTER 541 ITERATIONS ***

 final structure:
================
101
 xtb: 6.7.1 (edcfbbe)
C          -10.96748490677241        3.80320449871409        0.28201194705001
C          -10.31244247114479        3.30967599105200        1.39877652931290
C           -9.09827937766567        2.66265515564692        1.26419750450336
C           -8.51252097839889        2.50502126978200        0.00831943522982
C           -7.22148570307455        1.82136660851102       -0.13534978532462
C           -6.92377629206516        0.68606406039160        0.62159268498569
C           -5.71545398395897        0.03787308527466        0.48936860644678
C           -4.75439450709635        0.51285957243117       -0.40887315628575
N           -3.53317468150198       -0.13741696494206       -0.55374925789080
C           -2.36340687599681        0.58157812947828       -0.77326698401618
C           -2.15956370781385        1.83251144589117       -0.17913052499015
C           -0.94877989638808        2.47550007247440       -0.30801992040453
C            0.10535079172268        1.89866272901174       -1.02300413523871
C            1.42974360698273        2.51617900660769       -1.05944249212626
C            1.57786495371712        3.91018855212479       -1.15395165898326
C            2.81617012447725        4.51469999363258       -1.16940558121186
C            3.94248563192990        3.70547569045883       -1.05885286892593
C            3.81366168992924        2.29693449116969       -0.97221236859138
C            2.56323273566787        1.70755220444204       -0.98137326961819
C            5.14901167578081        1.76924979116720       -0.89835670610773
C            5.66194054311925        0.48523331044334       -0.77910201505783
C            7.03358713936896        0.32768358249963       -0.71389753847793
C            7.88508108192122        1.42943109976211       -0.75573912145827
C            7.39575959591672        2.71775016059690       -0.87273666181353
C            6.02049074030164        2.88080912576107       -0.95868463724211
N            5.27474650092719        4.04176726954411       -1.05464290775218
C            5.79663630893786        5.34417665408505       -1.13805688750633
C            5.35462547514230        6.33182677150414       -0.26294796200019
C            5.87144614607471        7.61168928897323       -0.35208871725458
C            6.83261133146683        7.91248264816800       -1.30348226233152
C            7.27500479757735        6.92842106136790       -2.17280632395218
C            6.75807628847125        5.64784054236073       -2.09739486744001
C           -0.12840207960480        0.67877845521450       -1.66815081937831
C           -1.33714079813760        0.03522597855726       -1.55481893024855
C           -3.44404099033316       -1.52971583089360       -0.40501271814237
C           -4.46903266148314       -2.36806833706604       -0.87207349636219
C           -4.33592710823578       -3.74372148676302       -0.72194387989984
C           -3.21063097324670       -4.29779532067957       -0.15534693192345
C           -2.15845561326147       -3.46971826569755        0.29689287992709
C           -0.94249494681959       -3.99216836531454        0.82203038405102
N           -0.77647530583111       -5.32686496446375        0.96956363174062
C            0.38676505855388       -5.75329418013626        1.40512197492705
C            0.58457866376814       -7.18783154819539        1.57234505357656
C            1.81320681472756       -7.68458792355625        2.01408186252781
C            2.00160608227179       -9.04332387212645        2.16859855090716
C            0.97091036632659       -9.92770598113236        1.88602355509846
C           -0.25395049406707       -9.44268881806440        1.44828353364752
C           -0.44811865615234       -8.08573868092995        1.29133241563493
N            1.42160799907775       -4.93717877470063        1.70194167187599
C            1.19396866673644       -3.61883949874412        1.53872332969383
C            2.28568483620277       -2.69153320152163        1.82383540374429
C            2.08730271650821       -1.31243117230251        1.72114561732898
C            3.12196656290751       -0.43672183544591        1.97961964597918
C            4.37151174051656       -0.92033488426357        2.34193911258006
C            4.57795059909354       -2.28807387834156        2.44529376441551
C            3.54529698691556       -3.16918704794212        2.19052142021280
N            0.05427304789419       -3.11961477558527        1.12442883555623
C           -2.32134072586121       -2.07819113337574        0.19025780944466
C           -5.04459334152480        1.65115367891951       -1.16843486196841
C           -6.25824900955431        2.28808775560558       -1.03274274517667
C           -9.17935907753995        3.00937958964565       -1.10799642402904
C          -10.39723227717988        3.64902083434118       -0.97131444418038
H          -11.91795610739427        4.30527315921752        0.38825771987669
H          -10.75016142965003        3.43098864732545        2.37923482765519
H           -8.58569250665784        2.29702940398136        2.14194738018802
H           -7.65684594463108        0.29992228801905        1.31373582135611
H           -5.49536991292625       -0.83287723734960        1.08880810402698
H           -2.94146697633969        2.26653267474563        0.42606114570476
H           -0.79452265996382        3.41388276441184        0.20255506122681
H            0.69376231268091        4.52221659782380       -1.24952255032952
H            2.90676043095071        5.58505243450471       -1.27377687701341
H            2.46910394332698        0.63618200137436       -0.89102715666195
H            5.00097001348614       -0.36671307727000       -0.72469783923801
H            7.45331619093569       -0.66289121320996       -0.61919804043515
H            8.95198015558116        1.27456341187252       -0.68976614433956
H            8.06359291006987        3.56547906363448       -0.88724062865679
H            4.62090269173906        6.08742813594262        0.49062770026126
H            5.52708865728837        8.37511496121619        0.32973814132056
H            7.23668200190418        8.91158987450942       -1.36714389016531
H            8.02113013846886        7.15984702383000       -2.91845916540993
H            7.08433348298664        4.88197336922332       -2.78529856443858
H            0.64778948411465        0.24042243847515       -2.27677513092767
H           -1.50150266195899       -0.90364322340132       -2.06216336192700
H           -5.33316028542242       -1.94801668657118       -1.36201055985510
H           -5.12683706790544       -4.38815612465059       -1.07855244662531
H           -3.10329250663950       -5.36668746699753       -0.05576562773992
H            2.60523234078326       -6.98353951649723        2.23010946846550
H            2.95594494055250       -9.41822524492066        2.51023357875975
H            1.12053395856711      -10.99052292787369        2.00720500028125
H           -1.05873728522583      -10.12979851421011        1.22886250602948
H           -1.39511308872817       -7.69347759341566        0.95218752524009
H            1.11014010775300       -0.95153537774878        1.43740778681837
H            2.95941334167400        0.62811479931291        1.89630170529974
H            5.18086842157875       -0.23309330095993        2.53918466874665
H            5.55001657387059       -2.66744505133025        2.72646505279624
H            3.69065036740978       -4.23620346303428        2.26689590190756
H           -1.54221201524686       -1.44672894622154        0.58683099292747
H           -4.31490550838665        2.01616380621549       -1.87584995359624
H           -6.46170975368378        3.16958293063569       -1.62179566911043
H           -8.75149716494443        2.87563933041669       -2.09077363187825
H          -10.90599852833437        4.02731850321083       -1.84634019380532

          :  Hamiltonian                  GFN2-xTB          :
         :: gradient norm              0.000063930070 Eh/a0 ::
         :: HOMO-LUMO gap              0.140477344960 eV    ::
         :: SCC energy              -159.526120870686 Eh    ::
         :: -> dispersion             -0.142808589173 Eh    ::
         :: -> Gsolv                  -0.076492512820 Eh    ::
         :: repulsion energy           2.916399458357 Eh    ::

    * Orbital Energies and Occupations

         #    Occupation            Energy/Eh            Energy/eV
      -------------------------------------------------------------
         1        2.0000           -0.6846522             -18.6303
       ...           ...                  ...                  ...
       135        2.0000           -0.4051982             -11.0260
       136        2.0000           -0.4048550             -11.0167
       137        2.0000           -0.4036291             -10.9833
       138        2.0000           -0.3984312             -10.8419
       139        2.0000           -0.3965612             -10.7910
       140        2.0000           -0.3958860             -10.7726
       141        2.0000           -0.3912829             -10.6473
       142        2.0000           -0.3858760             -10.5002
       143        2.0000           -0.3704341             -10.0800
       144        1.8553           -0.3591816              -9.7738
       145        1.8065           -0.3588499              -9.7648
       146        1.3382           -0.3568557              -9.7105
       147        0.9380           -0.2750785              -7.4853 (HOMO)
       148        0.0620           -0.2699160              -7.3448 (LUMO)
       149        0.0000           -0.2593492              -7.0573
       150                         -0.2522577              -6.8643
       151                         -0.2493952              -6.7864
       152                         -0.2377152              -6.4686
       153                         -0.2367770              -6.4430
       154                         -0.2346631              -6.3855
       155                         -0.2345037              -6.3812
       156                         -0.2333405              -6.3495
       157                         -0.2253836              -6.1330
       158                         -0.2231358              -6.0718
       ...                                ...                  ...
       287                          0.7403188              20.1451
      -------------------------------------------------------------
                  HL-Gap            0.0051625 Eh            0.1405 eV

     #   Z          covCN         q      C6AA      α(0)
     1   6 C        2.920    -0.030    28.741     8.791
     2   6 C        2.918    -0.029    28.730     8.790
     3   6 C        2.924    -0.033    28.832     8.806
     4   6 C        2.976     0.011    27.760     8.642
     5   6 C        2.975     0.014    27.706     8.634
     6   6 C        2.923    -0.030    28.756     8.794
     7   6 C        2.919    -0.040    28.997     8.830
     8   6 C        2.924     0.063    26.583     8.455
     9   7 N        2.754    -0.026    21.743     6.925
    10   6 C        2.928     0.065    26.545     8.449
    11   6 C        2.918    -0.042    29.045     8.838
    12   6 C        2.922    -0.031    28.773     8.796
    13   6 C        2.976     0.016    27.643     8.624
    14   6 C        2.976     0.004    27.929     8.669
    15   6 C        2.926    -0.037    28.910     8.818
    16   6 C        2.907    -0.048    29.194     8.860
    17   6 C        3.074     0.049    26.834     8.493
    18   6 C        3.066    -0.014    28.304     8.724
    19   6 C        2.918    -0.034    28.844     8.807
    20   6 C        3.066    -0.016    28.331     8.728
    21   6 C        2.912    -0.030    28.749     8.792
    22   6 C        2.920    -0.038    28.948     8.823
    23   6 C        2.924    -0.032    28.804     8.801
    24   6 C        2.909    -0.048    29.193     8.860
    25   6 C        3.077     0.047    26.870     8.499
    26   7 N        2.803    -0.030    21.818     6.937
    27   6 C        2.913     0.062    26.606     8.458
    28   6 C        2.922    -0.041    29.010     8.833
    29   6 C        2.920    -0.027    28.665     8.780
    30   6 C        2.919    -0.030    28.760     8.794
    31   6 C        2.920    -0.026    28.664     8.780
    32   6 C        2.922    -0.040    29.001     8.831
    33   6 C        2.923    -0.030    28.752     8.793
    34   6 C        2.919    -0.037    28.923     8.819
    35   6 C        2.924     0.058    26.706     8.475
    36   6 C        2.917    -0.062    29.552     8.914
    37   6 C        2.914    -0.033    28.824     8.804
    38   6 C        2.918    -0.042    29.053     8.839
    39   6 C        2.976    -0.019    28.484     8.754
    40   6 C        2.944     0.174    24.267     8.079
    41   7 N        1.843    -0.320    29.147     8.001
    42   6 C        2.940     0.211    23.545     7.958
    43   6 C        2.982    -0.013    28.327     8.730
    44   6 C        2.924    -0.033    28.814     8.803
    45   6 C        2.917    -0.032    28.801     8.801
    46   6 C        2.920    -0.033    28.828     8.805
    47   6 C        2.917    -0.032    28.803     8.801
    48   6 C        2.923    -0.033    28.825     8.804
    49   7 N        1.842    -0.361    30.256     8.152
    50   6 C        2.938     0.212    23.524     7.954
    51   6 C        2.982    -0.012    28.308     8.727
    52   6 C        2.923    -0.032    28.798     8.800
    53   6 C        2.917    -0.030    28.761     8.794
    54   6 C        2.919    -0.031    28.773     8.796
    55   6 C        2.917    -0.031    28.781     8.797
    56   6 C        2.923    -0.032    28.798     8.800
    57   7 N        1.846    -0.325    29.281     8.020
    58   6 C        2.928    -0.054    29.331     8.882
    59   6 C        2.919    -0.042    29.039     8.837
    60   6 C        2.923    -0.031    28.770     8.796
    61   6 C        2.924    -0.033    28.833     8.806
    62   6 C        2.918    -0.029    28.730     8.790
    63   1 H        0.926     0.033     2.540     2.492
    64   1 H        0.926     0.034     2.534     2.490
    65   1 H        0.926     0.036     2.498     2.472
    66   1 H        0.926     0.047     2.352     2.398
    67   1 H        0.926     0.044     2.400     2.422
    68   1 H        0.926     0.049     2.336     2.390
    69   1 H        0.926     0.053     2.284     2.363
    70   1 H        0.926     0.045     2.387     2.416
    71   1 H        0.926     0.042     2.428     2.437
    72   1 H        0.926     0.039     2.467     2.456
    73   1 H        0.926     0.031     2.576     2.510
    74   1 H        0.926     0.032     2.563     2.503
    75   1 H        0.926     0.036     2.502     2.474
    76   1 H        0.926     0.037     2.483     2.464
    77   1 H        0.926     0.045     2.379     2.412
    78   1 H        0.926     0.044     2.402     2.423
    79   1 H        0.926     0.042     2.422     2.434
    80   1 H        0.926     0.043     2.409     2.427
    81   1 H        0.926     0.044     2.391     2.418
    82   1 H        0.926     0.045     2.385     2.415
    83   1 H        0.926     0.042     2.427     2.436
    84   1 H        0.926     0.035     2.515     2.480
    85   1 H        0.926     0.034     2.536     2.490
    86   1 H        0.926     0.030     2.582     2.513
    87   1 H        0.926     0.038     2.480     2.463
    88   1 H        0.926     0.035     2.519     2.482
    89   1 H        0.926     0.037     2.493     2.469
    90   1 H        0.926     0.035     2.515     2.480
    91   1 H        0.926     0.037     2.488     2.467
    92   1 H        0.926     0.036     2.503     2.474
    93   1 H        0.926     0.037     2.492     2.469
    94   1 H        0.926     0.037     2.491     2.468
    95   1 H        0.926     0.035     2.519     2.482
    96   1 H        0.926     0.036     2.498     2.472
    97   1 H        0.926     0.040     2.452     2.449
    98   1 H        0.926     0.047     2.357     2.401
    99   1 H        0.926     0.050     2.319     2.381
   100   1 H        0.926     0.037     2.485     2.465
   101   1 H        0.926     0.034     2.527     2.486

molecular dipole:
                 x           y           z       tot (Debye)
 q only:       -0.512       5.938      -1.492
   full:       -0.451       5.721      -1.436      15.036

 projected vibrational frequencies (cm⁻¹)
eigval :       -0.00    -0.00    -0.00     0.00     0.00     0.00
eigval :       -4.74    10.41    11.73    14.89    15.17    20.38
eigval :       27.84    33.46    33.70    36.13    44.94    47.60
eigval :       56.13    59.68    60.76    66.17    72.08    76.08
eigval :       83.44    86.78    95.23   103.12   108.82   115.52
eigval :      122.58   145.25   145.62   164.99   175.56   185.08
eigval :      198.14   205.80   209.56   216.48   227.09   228.19
eigval :      245.50   249.45   260.65   265.57   280.69   289.81
eigval :      318.26   329.72   336.35   356.27   361.73   367.34
eigval :      369.33   369.97   377.12   378.13   379.99   381.29
eigval :      385.07   389.51   394.77   398.36   409.06   412.34
eigval :      419.43   428.93   433.32   456.41   463.23   480.50
eigval :      488.97   512.58   518.84   537.29   538.56   549.12
eigval :      552.41   559.07   561.36   579.01   583.19   585.92
eigval :      587.66   588.50   590.88   595.55   596.42   603.33
eigval :      606.21   612.02   613.97   616.01   631.35   634.95
eigval :      643.44   655.05   663.03   664.35   665.43   672.02
eigval :      679.17   688.64   693.56   696.52   699.47   712.06
eigval :      728.65   749.78   755.75   757.83   758.74   763.29
eigval :      763.63   776.15   809.63   809.73   811.72   823.67
eigval :      826.68   829.26   838.38   855.65   858.59   863.53
eigval :      865.94   870.88   872.05   875.78   880.18   883.01
eigval :      892.08   896.55   897.16   902.61   904.39   905.65
eigval :      907.84   911.80   915.97   918.07   919.19   920.40
eigval :      922.99   923.72   923.89   925.36   926.14   927.31
eigval :      928.33   930.45   933.14   933.24   933.74   941.08
eigval :      953.15   965.24   983.68   986.78   990.26   997.47
eigval :     1003.57  1014.89  1024.24  1063.51  1068.91  1070.36
eigval :     1072.01  1072.99  1074.88  1079.05  1085.68  1098.97
eigval :     1107.49  1110.38  1117.72  1120.81  1120.94  1121.67
eigval :     1139.39  1141.39  1145.77  1151.80  1157.57  1175.40
eigval :     1175.89  1177.13  1177.97  1178.87  1179.33  1180.85
eigval :     1182.09  1188.43  1189.56  1195.84  1199.03  1199.93
eigval :     1206.35  1224.68  1241.13  1247.42  1259.19  1264.21
eigval :     1265.76  1268.29  1269.33  1272.42  1275.34  1278.40
eigval :     1280.20  1285.40  1295.10  1309.16  1313.14  1315.06
eigval :     1316.65  1316.95  1326.24  1328.87  1330.59  1336.88
eigval :     1346.61  1354.20  1356.39  1364.46  1367.38  1390.31
eigval :     1404.97  1412.33  1417.87  1422.20  1427.22  1431.74
eigval :     1433.27  1433.46  1434.71  1452.02  1454.70  1459.63
eigval :     1463.18  1473.50  1475.34  1477.73  1485.73  1488.57
eigval :     1491.09  1530.31  1539.59  1547.07  1555.85  1563.31
eigval :     1564.00  1566.20  1576.82  1577.37  1579.87  1580.09
eigval :     1582.53  1590.47  1590.99  1592.58  1597.00  1607.22
eigval :     3067.33  3069.33  3069.47  3070.13  3070.32  3071.24
eigval :     3073.91  3076.70  3079.04  3080.10  3081.00  3082.48
eigval :     3082.70  3083.38  3083.86  3084.55  3084.94  3085.34
eigval :     3085.99  3086.35  3089.58  3090.21  3090.84  3091.16
eigval :     3091.58  3093.35  3093.73  3094.09  3094.23  3095.64
eigval :     3095.78  3096.07  3096.29  3096.44  3096.72  3098.27
eigval :     3099.04  3100.34  3103.74

   temp. (K)  partition function   enthalpy   heat capacity  entropy
                                   cal/mol     cal/K/mol   cal/K/mol   J/K/mol
 298.15  VIB  0.110E+26            29897.765    185.119    189.480
         ROT  0.258E+09              888.752      2.981     41.468
         INT  0.284E+34            30786.518    188.099    230.948
         TR   0.216E+29             1481.254      4.968     45.873
         TOT                       32267.7717   193.0676   276.8213  1158.2203

       T/K    H(0)-H(T)+PV         H(T)/Eh          T*S/Eh         G(T)/Eh
   ------------------------------------------------------------------------
    298.15    0.514220E-01    0.822002E+00    0.131527E+00    0.690475E+00
   ------------------------------------------------------------------------

         :::::::::::::::::::::::::::::::::::::::::::::::::::::
         ::                  THERMODYNAMIC                  ::
         :::::::::::::::::::::::::::::::::::::::::::::::::::::
         :: total free energy        -155.919246100631 Eh   ::
         ::.................................................::
         :: total energy             -156.609721416331 Eh   ::
         :: zero point energy           0.770580078060 Eh   ::
         :: G(RRHO) w/o ZPVE           -0.080104762360 Eh   ::
         :: G(RRHO) contrib.            0.690475315700 Eh   ::
         :::::::::::::::::::::::::::::::::::::::::::::::::::::

           -------------------------------------------------
          | TOTAL ENERGY             -156.609721416331 Eh   |
          | TOTAL ENTHALPY           -155.787719370872 Eh   |
          | TOTAL FREE ENERGY        -155.919246100631 Eh   |
          | GRADIENT NORM               0.000063386261 Eh/α |
          | HOMO-LUMO GAP               0.140478827144 eV   |
           -------------------------------------------------

 * finished run on 2025/09/07 at 06:23:48.248
