   * xtb version 6.7.1 (edcfbbe) compiled by 'albert@albert-system' on 2024-07-22

   ID    Z sym.   atoms
    1    6 C      1-6, 8-13, 15-38
    2    5 B      7
    3    7 N      14
    4    1 H      39-72

          program call               : xtb data2507/toluene/CzoB/CzoB_toluene_S0_finalOpt.xtbopt.xyz --gfn 2 --uhf 2 --gbsa toluene --ohess vtight --parallel 40 --molden --ceasefiles --namespace data2507/toluene/CzoB/CzoB_toluene_T1_preOpt
      * Solvation model:               GBSA
        Solvent                        toluene
        Solvent mass                       9.2140E+01 g/mol
          :  Hamiltonian                  GFN2-xTB          :
 * total energy  :   -98.5635783 Eh     change       -0.8535039E-10 Eh
 * total energy  :   -98.5663564 Eh     change       -0.2778122E-02 Eh
 * total energy  :   -98.5675861 Eh     change       -0.1229637E-02 Eh
 * total energy  :   -98.5678457 Eh     change       -0.2596002E-03 Eh
 * total energy  :   -98.5681969 Eh     change       -0.3512209E-03 Eh
 * total energy  :   -98.5683801 Eh     change       -0.1831898E-03 Eh
 * total energy  :   -98.5685848 Eh     change       -0.2047010E-03 Eh
 * total energy  :   -98.5687679 Eh     change       -0.1830960E-03 Eh
 * total energy  :   -98.5688763 Eh     change       -0.1084482E-03 Eh
 * total energy  :   -98.5689297 Eh     change       -0.5332612E-04 Eh
 * total energy  :   -98.5692914 Eh     change       -0.5999862E-06 Eh
 * total energy  :   -98.5692922 Eh     change       -0.8703333E-06 Eh
 * total energy  :   -98.5692931 Eh     change       -0.8675284E-06 Eh
 * total energy  :   -98.5692938 Eh     change       -0.7151412E-06 Eh
 * total energy  :   -98.5692943 Eh     change       -0.4832804E-06 Eh
 * total energy  :   -98.5692946 Eh     change       -0.2992503E-06 Eh
 * total energy  :   -98.5692948 Eh     change       -0.1683719E-06 Eh
 * total energy  :   -98.5692949 Eh     change       -0.1084145E-06 Eh
 * total energy  :   -98.5692950 Eh     change       -0.7510286E-07 Eh
   *** GEOMETRY OPTIMIZATION CONVERGED AFTER 40 ITERATIONS ***

 final structure:
================
72
 xtb: 6.7.1 (edcfbbe)
C            3.20373172493460        3.50920033505140        0.84306658031083
C            2.00335933655254        2.62051945367998        0.78661931652855
C            1.83182261500599        1.58264724702683        1.69481225295306
C            0.72389972691577        0.75706580122209        1.65473575698559
C            0.55137131082609       -0.24853021541095        2.75224135414659
C           -0.24695877521256        0.90652380174310        0.62516466629708
B           -1.31065339356723       -0.19901038499047        0.35189677665744
C           -0.91920251105782       -1.66619167104040        0.21981781075733
C           -1.86122979302513       -2.70878273133415        0.43842090291056
C           -1.52001858212459       -4.03010967679262        0.50891390407731
C           -0.18448188713111       -4.42661583412410        0.32873272080335
C            0.76737193712419       -3.46003372555392        0.07120676778614
C            0.43469377693062       -2.11429731294840       -0.02329485850848
N            1.47023647283688       -1.22008098900768       -0.31518672600846
C            2.67404029701637       -1.16096164440799        0.35632890329727
C            3.09050730068100       -1.85299598119130        1.48704942841422
C            4.35662986232745       -1.59228704260593        1.97764616348426
C            5.19707784931536       -0.66599993969974        1.36260715894712
C            4.78983604308785        0.02668555255933        0.23578518112261
C            3.52369911715626       -0.21676739331350       -0.27224555841137
C            2.79895946804409        0.28473154530292       -1.40791377645591
C            3.11683793191693        1.16791864140497       -2.42809274012421
C            2.19743599317569        1.36676380422905       -3.44230132121712
C            0.98597901960704        0.68095684150232       -3.45553665411735
C            0.64666523615708       -0.19996817402880       -2.44489952518032
C            1.54790404487473       -0.37593239757770       -1.40670342203473
C           -2.84726308474010        0.19309610894642        0.22486095157907
C           -3.44867418812790        0.96300162947621        1.23831626801316
C           -2.67943922120708        1.37827228165879        2.45700942793316
C           -4.78588102344283        1.31492283685304        1.15456208970642
C           -5.57773860138114        0.92919605336348        0.08109122361390
C           -7.02709720193848        1.31255902177318        0.02068967717597
C           -4.98570815261244        0.17069918372899       -0.91326985023703
C           -3.64633171372704       -0.19983215730154       -0.85904636852513
C           -3.11603999865873       -0.96207683296686       -2.04101596225302
C           -0.13229279390951        2.05258318593534       -0.20790884371033
C           -1.20348599967499        2.37147017796352       -1.20315499564835
C            0.98251479792384        2.85772189062766       -0.13713750016695
H            4.03293766159322        3.00572088637199        1.33476211300923
H            2.97497801992269        4.41703631420957        1.40475026289840
H            3.50663463557788        3.80678235075382       -0.15900480451937
H            2.58094278284577        1.42372392941615        2.45918145168648
H            0.06225045497818       -1.15188798225432        2.39923492840921
H            1.51209887373013       -0.50334740460290        3.19408893971636
H           -0.07285264814026        0.17995320304524        3.53795611484257
H           -2.89172778326701       -2.42002761406548        0.59170223763346
H           -2.27569115670727       -4.77798939560664        0.70571545203610
H            0.08820255426082       -5.47039745153464        0.35633276019058
H            1.79092485361060       -3.75108942564414       -0.12633494999466
H            2.44657223614398       -2.57225492950755        1.96907571611829
H            4.70206894214678       -2.11768006578300        2.85610534599886
H            6.18052039170555       -0.49056696479912        1.77367986015346
H            5.44324826322908        0.74248263991662       -0.23967644702451
H            4.06795167575720        1.67868112417639       -2.43486693958284
H            2.42718345496975        2.05000639393548       -4.24687555953658
H            0.30042838643499        0.83562968644595       -4.27556797555810
H           -0.28330955211829       -0.74269030252856       -2.46587969526044
H           -2.35720508508157        0.49670290203511        3.00952572325568
H           -3.29290658709326        1.99405918882265        3.11165100339423
H           -1.79073020070257        1.94160863814030        2.17851320474743
H           -5.22987321641892        1.89448281702207        1.95378184665337
H           -7.15755273897498        2.36360493979558        0.27492171574878
H           -7.60322137807939        0.72275582833732        0.73530103685064
H           -7.43428450766118        1.13828797939465       -0.97276890765768
H           -5.57366551379007       -0.13428545071865       -1.76951186867268
H           -3.85212922916033       -1.68566160750588       -2.38817137544348
H           -2.91390628028856       -0.27472987021896       -2.86482085444227
H           -2.20250256607119       -1.49175296364949       -1.79334369050051
H           -0.88894319659500        3.17529036229991       -1.86501395144085
H           -1.43918887274376        1.49236690977222       -1.79695400468460
H           -2.11702590127550        2.67633404194980       -0.69347916767641
H            1.07906689407859        3.69287037005131       -0.81778967193122

          :  Hamiltonian                  GFN2-xTB          :
         :: gradient norm              0.000043861361 Eh/a0 ::
         :: HOMO-LUMO gap              0.290958952152 eV    ::
         :: SCC energy              -100.366829033133 Eh    ::
         :: -> dispersion             -0.110604895413 Eh    ::
         :: -> Gsolv                  -0.032191090851 Eh    ::
         :: repulsion energy           1.797534044433 Eh    ::

    * Orbital Energies and Occupations

         #    Occupation            Energy/Eh            Energy/eV
      -------------------------------------------------------------
         1        2.0000           -0.6768043             -18.4168
       ...           ...                  ...                  ...
        82        2.0000           -0.4075904             -11.0911
        83        2.0000           -0.4071115             -11.0781
        84        2.0000           -0.3954456             -10.7606
        85        2.0000           -0.3894350             -10.5971
        86        2.0000           -0.3879656             -10.5571
        87        2.0000           -0.3853814             -10.4868
        88        2.0000           -0.3842657             -10.4564
        89        2.0000           -0.3753199             -10.2130
        90        2.0000           -0.3736667             -10.1680
        91        2.0000           -0.3681509             -10.0179
        92        1.9988           -0.3646891              -9.9237
        93        1.0012           -0.3518702              -9.5749
        94        0.9964           -0.2579759              -7.0199 (HOMO)
        95        0.0036           -0.2472828              -6.7289 (LUMO)
        96                         -0.2261882              -6.1549
        97                         -0.2163427              -5.8870
        98                         -0.2133650              -5.8060
        99                         -0.2048113              -5.5732
       100                         -0.2035355              -5.5385
       101                         -0.2002552              -5.4492
       102                         -0.1917117              -5.2167
       103                         -0.1883348              -5.1248
       104                         -0.1475562              -4.0152
       105                         -0.0976023              -2.6559
       ...                                ...                  ...
       186                          0.7433005              20.2262
      -------------------------------------------------------------
                  HL-Gap            0.0106931 Eh            0.2910 eV

     #   Z          covCN         q      C6AA      α(0)
     1   6 C        3.757    -0.106    22.573     6.774
     2   6 C        2.962     0.015    27.677     8.629
     3   6 C        2.925    -0.055    29.378     8.889
     4   6 C        2.963     0.012    27.736     8.638
     5   6 C        3.759    -0.111    22.675     6.789
     6   6 C        2.887    -0.061    29.525     8.908
     7   5 B        2.710     0.174    18.791     7.269
     8   6 C        2.879    -0.076    29.906     8.965
     9   6 C        2.917    -0.043    29.065     8.841
    10   6 C        2.911    -0.039    28.963     8.825
    11   6 C        2.915    -0.055    29.365     8.886
    12   6 C        2.918    -0.044    29.084     8.844
    13   6 C        2.908     0.037    27.176     8.548
    14   7 N        2.799    -0.009    21.432     6.876
    15   6 C        3.080     0.050    26.802     8.487
    16   6 C        2.909    -0.041    29.025     8.834
    17   6 C        2.922    -0.036    28.889     8.814
    18   6 C        2.920    -0.037    28.913     8.818
    19   6 C        2.911    -0.032    28.791     8.799
    20   6 C        3.065    -0.012    28.240     8.714
    21   6 C        3.066    -0.013    28.275     8.719
    22   6 C        2.912    -0.032    28.797     8.799
    23   6 C        2.920    -0.036    28.907     8.817
    24   6 C        2.923    -0.033    28.812     8.802
    25   6 C        2.910    -0.044    29.092     8.844
    26   6 C        3.080     0.050    26.803     8.488
    27   6 C        2.886    -0.065    29.605     8.920
    28   6 C        2.966     0.005    27.905     8.665
    29   6 C        3.759    -0.109    22.641     6.784
    30   6 C        2.931    -0.058    29.446     8.899
    31   6 C        2.961     0.001    28.014     8.682
    32   6 C        3.757    -0.104    22.532     6.768
    33   6 C        2.932    -0.058    29.449     8.900
    34   6 C        2.965     0.006    27.895     8.663
    35   6 C        3.760    -0.107    22.591     6.776
    36   6 C        2.963     0.011    27.764     8.643
    37   6 C        3.759    -0.111    22.680     6.789
    38   6 C        2.925    -0.055    29.354     8.885
    39   1 H        0.925     0.043     2.409     2.427
    40   1 H        0.924     0.050     2.316     2.380
    41   1 H        0.925     0.046     2.372     2.408
    42   1 H        0.925     0.021     2.725     2.582
    43   1 H        0.925     0.050     2.319     2.381
    44   1 H        0.925     0.039     2.466     2.456
    45   1 H        0.924     0.050     2.318     2.381
    46   1 H        0.926     0.026     2.650     2.546
    47   1 H        0.925     0.014     2.826     2.629
    48   1 H        0.926     0.015     2.813     2.623
    49   1 H        0.925     0.020     2.727     2.583
    50   1 H        0.926     0.040     2.448     2.447
    51   1 H        0.926     0.034     2.533     2.489
    52   1 H        0.926     0.034     2.536     2.490
    53   1 H        0.926     0.037     2.491     2.468
    54   1 H        0.926     0.036     2.503     2.474
    55   1 H        0.926     0.034     2.525     2.485
    56   1 H        0.926     0.036     2.496     2.470
    57   1 H        0.926     0.042     2.421     2.433
    58   1 H        0.925     0.043     2.403     2.424
    59   1 H        0.925     0.034     2.537     2.491
    60   1 H        0.925     0.049     2.332     2.388
    61   1 H        0.925     0.017     2.779     2.607
    62   1 H        0.925     0.038     2.474     2.460
    63   1 H        0.924     0.040     2.454     2.450
    64   1 H        0.925     0.036     2.508     2.476
    65   1 H        0.925     0.017     2.773     2.604
    66   1 H        0.925     0.035     2.519     2.482
    67   1 H        0.924     0.037     2.488     2.466
    68   1 H        0.925     0.045     2.378     2.412
    69   1 H        0.925     0.036     2.502     2.474
    70   1 H        0.925     0.055     2.259     2.350
    71   1 H        0.925     0.050     2.321     2.383
    72   1 H        0.925     0.023     2.688     2.564

molecular dipole:
                 x           y           z       tot (Debye)
 q only:        0.913       0.710      -0.063
   full:        0.878       0.661      -0.013       2.793

 projected vibrational frequencies (cm⁻¹)
eigval :       -0.00    -0.00    -0.00    -0.00     0.00     0.00
eigval :       -9.59    19.05    27.75    32.41    38.54    41.77
eigval :       43.33    54.17    68.94    76.10    80.56    84.98
eigval :       98.41   108.81   118.79   132.35   138.01   147.08
eigval :      149.61   156.80   168.82   176.20   179.67   188.69
eigval :      190.66   206.19   213.42   218.31   248.44   272.47
eigval :      276.01   278.15   291.35   298.60   308.36   322.43
eigval :      327.69   361.63   392.31   401.19   410.28   424.69
eigval :      434.41   450.51   460.74   472.02   478.61   484.57
eigval :      491.98   500.81   507.53   512.11   515.08   522.58
eigval :      535.73   537.50   549.92   561.93   580.60   590.65
eigval :      595.99   597.52   601.10   616.02   649.36   665.22
eigval :      666.43   672.75   704.38   711.72   738.15   755.20
eigval :      769.70   778.41   829.01   831.27   840.01   847.42
eigval :      863.20   865.96   868.99   869.92   873.79   887.06
eigval :      895.92   900.78   906.29   908.17   917.63   923.04
eigval :      924.16   958.22   960.18   970.59   972.23  1008.91
eigval :     1010.38  1015.27  1021.75  1023.70  1025.35  1027.29
eigval :     1029.72  1031.26  1034.41  1038.73  1039.35  1041.09
eigval :     1057.97  1064.83  1067.40  1070.46  1087.05  1118.41
eigval :     1123.86  1139.86  1157.21  1171.54  1176.66  1177.65
eigval :     1185.47  1194.52  1197.60  1224.51  1226.48  1228.51
eigval :     1234.51  1237.52  1274.76  1284.71  1290.54  1297.84
eigval :     1304.72  1318.90  1329.77  1339.70  1343.07  1365.37
eigval :     1370.05  1389.24  1394.32  1395.55  1398.05  1400.49
eigval :     1401.66  1404.17  1409.74  1414.77  1416.33  1420.33
eigval :     1425.92  1434.13  1452.85  1458.08  1463.03  1467.45
eigval :     1470.02  1471.09  1477.85  1479.02  1480.36  1481.45
eigval :     1481.67  1483.54  1485.60  1486.95  1488.84  1492.17
eigval :     1531.89  1537.83  1557.77  1563.53  1568.57  1579.06
eigval :     1580.93  1590.09  2974.75  2976.80  2983.19  2984.86
eigval :     3004.30  3005.12  3014.15  3016.15  3017.89  3024.80
eigval :     3026.12  3030.18  3031.61  3032.28  3034.67  3042.92
eigval :     3045.17  3048.25  3048.60  3051.27  3054.19  3056.31
eigval :     3057.93  3063.69  3069.91  3073.38  3074.30  3080.51
eigval :     3082.44  3085.85  3089.87  3091.27  3096.48  3123.95

   temp. (K)  partition function   enthalpy   heat capacity  entropy
                                   cal/mol     cal/K/mol   cal/K/mol   J/K/mol
 298.15  VIB  0.125E+17            21032.070    128.407    131.835
         ROT  0.239E+08              888.752      2.981     36.743
         INT  0.299E+24            21920.822    131.388    168.578
         TR   0.105E+29             1481.254      4.968     44.444
         TOT                       23402.0758   136.3561   213.0218   891.2833

       T/K    H(0)-H(T)+PV         H(T)/Eh          T*S/Eh         G(T)/Eh
   ------------------------------------------------------------------------
    298.15    0.372936E-01    0.616499E+00    0.101214E+00    0.515285E+00
   ------------------------------------------------------------------------

         :::::::::::::::::::::::::::::::::::::::::::::::::::::
         ::                  THERMODYNAMIC                  ::
         :::::::::::::::::::::::::::::::::::::::::::::::::::::
         :: total free energy         -98.054009561576 Eh   ::
         ::.................................................::
         :: total energy              -98.569294986265 Eh   ::
         :: zero point energy           0.579205386916 Eh   ::
         :: G(RRHO) w/o ZPVE           -0.063919962227 Eh   ::
         :: G(RRHO) contrib.            0.515285424689 Eh   ::
         :::::::::::::::::::::::::::::::::::::::::::::::::::::

           -------------------------------------------------
          | TOTAL ENERGY              -98.569294986265 Eh   |
          | TOTAL ENTHALPY            -97.952796017681 Eh   |
          | TOTAL FREE ENERGY         -98.054009561576 Eh   |
          | GRADIENT NORM               0.000043770162 Eh/α |
          | HOMO-LUMO GAP               0.290973147335 eV   |
           -------------------------------------------------

 * finished run on 2025/08/23 at 23:39:16.540
