   * xtb version 6.7.1 (edcfbbe) compiled by 'albert@albert-system' on 2024-07-22

   ID    Z sym.   atoms
    1    6 C      1-6, 8-13, 15-38
    2    5 B      7
    3    7 N      14
    4    1 H      39-72

          program call               : xtb data2507/toluene/CzoB/CzoB_toluene_S0_crest.xyz --gfn 2 --gbsa toluene --ohess vtight --parallel 40 --molden --ceasefiles --namespace data2507/toluene/CzoB/CzoB_toluene_S0_finalOpt
      * Solvation model:               GBSA
        Solvent                        toluene
        Solvent mass                       9.2140E+01 g/mol
          :  Hamiltonian                  GFN2-xTB          :
 * total energy  :   -98.6616418 Eh     change       -0.2484896E-08 Eh
 * total energy  :   -98.6617305 Eh     change       -0.8875146E-04 Eh
 * total energy  :   -98.6617779 Eh     change       -0.4735154E-04 Eh
 * total energy  :   -98.6617992 Eh     change       -0.2129229E-04 Eh
 * total energy  :   -98.6618232 Eh     change       -0.2407376E-04 Eh
 * total energy  :   -98.6618578 Eh     change       -0.3454922E-04 Eh
 * total energy  :   -98.6618958 Eh     change       -0.3806840E-04 Eh
 * total energy  :   -98.6619166 Eh     change       -0.2073592E-04 Eh
 * total energy  :   -98.6619250 Eh     change       -0.8404781E-05 Eh
 * total energy  :   -98.6619324 Eh     change       -0.7430252E-05 Eh
 * total energy  :   -98.6621960 Eh     change        0.7488227E-07 Eh
 * total energy  :   -98.6621965 Eh     change       -0.5410210E-06 Eh
 * total energy  :   -98.6621968 Eh     change       -0.3287537E-06 Eh
 * total energy  :   -98.6621972 Eh     change       -0.3670049E-06 Eh
 * total energy  :   -98.6621975 Eh     change       -0.2584801E-06 Eh
 * total energy  :   -98.6621976 Eh     change       -0.1388067E-06 Eh
 * total energy  :   -98.6621976 Eh     change        0.2275615E-07 Eh
 * total energy  :   -98.6621977 Eh     change       -0.1310753E-06 Eh
 * total energy  :   -98.6621978 Eh     change       -0.9667566E-07 Eh
   *** GEOMETRY OPTIMIZATION CONVERGED AFTER 110 ITERATIONS ***

 final structure:
================
72
 xtb: 6.7.1 (edcfbbe)
C            3.03026989408504        3.79436893249792        1.16618439435854
C            1.91613972171671        2.80651959594962        0.99524857317224
C            1.73708400806765        1.75966053125164        1.88201706540521
C            0.71112667920233        0.83785113149271        1.72256151274719
C            0.53554898570065       -0.19172551018609        2.80235586188418
C           -0.17836080678410        0.93835499668053        0.64173271045296
B           -1.27179272855785       -0.14934777799243        0.34748677504789
C           -0.86663770330866       -1.66987280130184        0.25063765806784
C           -1.82489953058435       -2.62766779444851        0.61451085406845
C           -1.54991214638998       -3.98071875227533        0.65277742984545
C           -0.28924888427653       -4.43657081558663        0.30286381355091
C            0.67949384482944       -3.52561438908339       -0.07520960262954
C            0.40607852179285       -2.16144628886866       -0.09512412876931
N            1.46973367699539       -1.30346364331099       -0.45241644160073
C            2.64505160348372       -1.19054746598234        0.25851160880516
C            3.04539912789457       -1.84929503764113        1.41269072656084
C            4.28770880482190       -1.54352812050173        1.93421870495312
C            5.11984865589936       -0.60433062699712        1.32748284043072
C            4.73113981824686        0.04697986902943        0.17391193460307
C            3.48816625984657       -0.24643401617188       -0.37165581042590
C            2.79436963884713        0.19220606573124       -1.54813342661232
C            3.12517566819848        1.04717560485617       -2.59098164174510
C            2.24229444638017        1.18234391167618       -3.64378155145978
C            1.04947971127976        0.46322386875169       -3.67307784503169
C            0.69389970364025       -0.38463206565778       -2.64155556367198
C            1.56006361533657       -0.49887118371695       -1.56485032490465
C           -2.79903192679966        0.21930889748333        0.22986692896075
C           -3.43713082501953        0.91608712456972        1.27617999323022
C           -2.68487027621608        1.30559161570452        2.51522699316633
C           -4.78579533176432        1.22095412302480        1.20553961041627
C           -5.55808497279989        0.87161442845417        0.10566497244481
C           -7.01650276289879        1.21414930691562        0.05630126989271
C           -4.93699833667100        0.18787851290455       -0.92418831634306
C           -3.58905731379549       -0.14593840944469       -0.87286741179695
C           -3.01695366865016       -0.85435831751549       -2.06696867677005
C           -0.03514532973111        2.04324822373174       -0.21878266143366
C           -1.00726439601718        2.27420062611131       -1.33883522570333
C            1.00255485802533        2.94137790397991       -0.04176376695521
H            3.79376315663244        3.40577895317595        1.83613451214298
H            2.64610364537871        4.72501271150933        1.58653195516970
H            3.48702978220509        4.02652387303686        0.20580658241794
H            2.41268709933965        1.64997174627203        2.71982061083983
H           -0.08602683466430       -1.01964423604316        2.47556471428088
H            1.50228725498702       -0.57185552600932        3.12553183094418
H            0.05879843260275        0.27227922477702        3.66732585352340
H           -2.81226083041738       -2.28284820713918        0.88591652127291
H           -2.31781650804858       -4.67993909052913        0.94972819534276
H           -0.06229378222446       -5.49246083068550        0.31874547421537
H            1.66609044289134       -3.86368255920405       -0.35981119036787
H            2.40893848693461       -2.58228220084142        1.88586145731800
H            4.62303740836874       -2.04411426597695        2.83165981744733
H            6.08399953784092       -0.39133851185037        1.76651180864429
H            5.37983150728531        0.76916915666113       -0.29955061176466
H            4.06297887924202        1.58310140078563       -2.58240728081699
H            2.48355757608686        1.83968813628879       -4.46666382523564
H            0.39202004564831        0.56713630040077       -4.52458765667621
H           -0.21961773872877       -0.95628144716107       -2.68075010816035
H           -2.32392735358574        0.41849895308140        3.03213975199632
H           -3.32676811393341        1.86281104995893        3.19437030107597
H           -1.82377812955749        1.92051628326016        2.26455033097077
H           -5.25242661589893        1.74791496935846        2.02733378726385
H           -7.17361314347931        2.25785801946210        0.32490062328851
H           -7.57067996427652        0.60093533553138        0.76784958534069
H           -7.42473231837116        1.04118781092825       -0.93670097496220
H           -5.51341213217026       -0.09804161166990       -1.79407087158202
H           -3.76968213993165       -1.49288363670445       -2.52625149904670
H           -2.69983022439152       -0.12575123671952       -2.81465193879695
H           -2.16192784669387       -1.46346349346089       -1.79274375557927
H           -0.69926569775633        3.12413224769280       -1.94396124849054
H           -1.07156117056827        1.39951139807544       -1.97916564542345
H           -2.00035080522568        2.47418588221295       -0.93877302393344
H            1.10720095744541        3.76963497070450       -0.72991877116652

          :  Hamiltonian                  GFN2-xTB          :
         :: gradient norm              0.000040657076 Eh/a0 ::
         :: HOMO-LUMO gap              2.271649210926 eV    ::
         :: SCC energy              -100.471333477804 Eh    ::
         :: -> dispersion             -0.107740871506 Eh    ::
         :: -> Gsolv                  -0.033322141340 Eh    ::
         :: repulsion energy           1.809135661394 Eh    ::

    * Orbital Energies and Occupations

         #    Occupation            Energy/Eh            Energy/eV
      -------------------------------------------------------------
         1        2.0000           -0.6682943             -18.1852
       ...           ...                  ...                  ...
        81        2.0000           -0.4122711             -11.2185
        82        2.0000           -0.4103205             -11.1654
        83        2.0000           -0.4067564             -11.0684
        84        2.0000           -0.4053088             -11.0290
        85        2.0000           -0.4002442             -10.8912
        86        2.0000           -0.3989017             -10.8547
        87        2.0000           -0.3911904             -10.6448
        88        2.0000           -0.3795877             -10.3291
        89        2.0000           -0.3784965             -10.2994
        90        2.0000           -0.3718047             -10.1173
        91        2.0000           -0.3705127             -10.0822
        92        2.0000           -0.3676137             -10.0033
        93        2.0000           -0.3552610              -9.6671 (HOMO)
        94                         -0.2717795              -7.3955 (LUMO)
        95                         -0.2404353              -6.5426
        96                         -0.2285145              -6.2182
        97                         -0.2186085              -5.9486
        98                         -0.2169666              -5.9040
        99                         -0.2087202              -5.6796
       100                         -0.2053981              -5.5892
       101                         -0.2017530              -5.4900
       102                         -0.1873503              -5.0981
       103                         -0.1812778              -4.9328
       104                         -0.1685216              -4.5857
       ...                                ...                  ...
       186                          0.7522135              20.4688
      -------------------------------------------------------------
                  HL-Gap            0.0834815 Eh            2.2716 eV

     #   Z          covCN         q      C6AA      α(0)
     1   6 C        3.757    -0.105    22.551     6.771
     2   6 C        2.963     0.011    27.778     8.645
     3   6 C        2.930    -0.057    29.406     8.893
     4   6 C        2.967     0.011    27.778     8.645
     5   6 C        3.759    -0.109    22.641     6.784
     6   6 C        2.889    -0.083    30.069     8.990
     7   5 B        2.707     0.255    17.644     7.045
     8   6 C        2.881    -0.072    29.783     8.947
     9   6 C        2.927    -0.029    28.726     8.790
    10   6 C        2.915    -0.034    28.841     8.806
    11   6 C        2.919    -0.027    28.667     8.780
    12   6 C        2.923    -0.042    29.034     8.836
    13   6 C        2.914     0.065    26.552     8.450
    14   7 N        2.804    -0.050    22.212     7.000
    15   6 C        3.087     0.052    26.739     8.476
    16   6 C        2.910    -0.051    29.271     8.871
    17   6 C        2.924    -0.037    28.921     8.819
    18   6 C        2.920    -0.044    29.101     8.846
    19   6 C        2.912    -0.035    28.866     8.810
    20   6 C        3.069    -0.018    28.390     8.737
    21   6 C        3.071    -0.019    28.399     8.738
    22   6 C        2.913    -0.035    28.869     8.811
    23   6 C        2.920    -0.044    29.090     8.845
    24   6 C        2.924    -0.035    28.876     8.812
    25   6 C        2.910    -0.054    29.337     8.881
    26   6 C        3.083     0.052    26.755     8.480
    27   6 C        2.886    -0.083    30.077     8.991
    28   6 C        2.967     0.011    27.765     8.643
    29   6 C        3.759    -0.114    22.726     6.796
    30   6 C        2.930    -0.058    29.441     8.898
    31   6 C        2.962     0.011    27.772     8.644
    32   6 C        3.757    -0.107    22.595     6.777
    33   6 C        2.931    -0.058    29.441     8.898
    34   6 C        2.967     0.011    27.760     8.642
    35   6 C        3.760    -0.109    22.625     6.781
    36   6 C        2.967     0.010    27.789     8.647
    37   6 C        3.759    -0.111    22.671     6.788
    38   6 C        2.930    -0.056    29.404     8.893
    39   1 H        0.925     0.038     2.476     2.461
    40   1 H        0.924     0.044     2.395     2.420
    41   1 H        0.925     0.041     2.440     2.443
    42   1 H        0.925     0.019     2.752     2.594
    43   1 H        0.925     0.038     2.478     2.462
    44   1 H        0.925     0.040     2.446     2.446
    45   1 H        0.924     0.044     2.390     2.418
    46   1 H        0.926     0.040     2.447     2.446
    47   1 H        0.926     0.035     2.510     2.478
    48   1 H        0.926     0.037     2.494     2.470
    49   1 H        0.926     0.035     2.517     2.481
    50   1 H        0.926     0.028     2.612     2.528
    51   1 H        0.926     0.026     2.645     2.543
    52   1 H        0.926     0.024     2.673     2.557
    53   1 H        0.926     0.027     2.632     2.537
    54   1 H        0.926     0.026     2.641     2.541
    55   1 H        0.926     0.025     2.663     2.552
    56   1 H        0.926     0.027     2.628     2.535
    57   1 H        0.926     0.027     2.631     2.537
    58   1 H        0.925     0.044     2.397     2.421
    59   1 H        0.925     0.037     2.489     2.467
    60   1 H        0.925     0.049     2.333     2.388
    61   1 H        0.925     0.022     2.701     2.570
    62   1 H        0.925     0.042     2.419     2.432
    63   1 H        0.924     0.045     2.389     2.417
    64   1 H        0.925     0.039     2.466     2.456
    65   1 H        0.925     0.022     2.703     2.571
    66   1 H        0.925     0.039     2.460     2.453
    67   1 H        0.924     0.042     2.428     2.437
    68   1 H        0.925     0.040     2.444     2.445
    69   1 H        0.925     0.034     2.528     2.487
    70   1 H        0.925     0.044     2.396     2.421
    71   1 H        0.925     0.047     2.354     2.400
    72   1 H        0.925     0.019     2.741     2.589

molecular dipole:
                 x           y           z       tot (Debye)
 q only:       -0.756      -0.421       0.250
   full:       -0.742      -0.473       0.261       2.333

 projected vibrational frequencies (cm⁻¹)
eigval :       -0.00    -0.00    -0.00     0.00     0.00     0.00
eigval :       15.36    27.77    33.17    35.37    43.32    46.76
eigval :       56.40    59.28    73.59    84.25    91.74   107.16
eigval :      111.46   120.28   127.58   134.15   141.50   145.10
eigval :      147.69   158.56   169.75   176.36   183.76   186.86
eigval :      197.33   205.83   210.28   217.13   244.81   273.94
eigval :      274.69   278.78   283.76   310.36   323.42   327.27
eigval :      332.80   358.92   399.45   409.19   419.83   429.14
eigval :      436.83   461.69   478.85   483.75   489.75   494.33
eigval :      499.29   508.82   512.98   515.44   519.37   535.81
eigval :      542.10   544.56   557.95   581.71   594.65   598.81
eigval :      601.44   605.12   607.68   628.56   672.92   678.99
eigval :      680.07   706.03   706.57   718.93   756.94   769.04
eigval :      780.09   781.99   833.53   839.73   866.63   869.24
eigval :      877.69   880.09   886.80   889.68   890.53   898.15
eigval :      898.64   904.60   919.56   922.79   925.67   927.81
eigval :      935.34   963.58   964.26   976.20   977.07  1011.40
eigval :     1022.04  1023.78  1029.56  1030.34  1031.40  1033.85
eigval :     1034.88  1035.29  1041.60  1042.83  1043.40  1044.74
eigval :     1067.83  1070.19  1072.41  1097.74  1110.78  1135.66
eigval :     1149.66  1159.37  1175.78  1178.63  1181.53  1183.18
eigval :     1193.83  1209.63  1218.64  1235.82  1236.46  1237.71
eigval :     1241.35  1251.09  1290.48  1298.75  1301.56  1302.62
eigval :     1305.46  1333.40  1337.26  1352.61  1361.82  1364.86
eigval :     1397.56  1398.79  1400.67  1401.88  1404.71  1407.73
eigval :     1408.55  1424.24  1428.00  1428.86  1432.64  1448.35
eigval :     1453.74  1459.00  1474.29  1475.84  1477.50  1479.09
eigval :     1479.95  1481.28  1483.11  1484.85  1485.71  1487.75
eigval :     1488.84  1489.84  1493.58  1498.69  1552.60  1557.53
eigval :     1559.71  1573.03  1579.83  1590.78  1598.53  1600.78
eigval :     1603.24  1616.59  2983.99  2984.10  2987.09  2993.02
eigval :     3013.40  3017.27  3018.76  3021.78  3021.89  3029.03
eigval :     3029.84  3031.09  3035.51  3036.65  3038.13  3052.74
eigval :     3053.72  3054.97  3057.11  3058.67  3059.96  3064.06
eigval :     3065.08  3066.94  3070.59  3071.85  3073.10  3073.88
eigval :     3080.81  3081.09  3084.43  3088.11  3090.19  3105.79

   temp. (K)  partition function   enthalpy   heat capacity  entropy
                                   cal/mol     cal/K/mol   cal/K/mol   J/K/mol
 298.15  VIB  0.108E+16            20640.473    127.655    128.351
         ROT  0.244E+08              888.752      2.981     36.787
         INT  0.264E+23            21529.225    130.636    165.139
         TR   0.105E+29             1481.254      4.968     44.444
         TOT                       23010.4792   135.6039   209.5826   876.8936

       T/K    H(0)-H(T)+PV         H(T)/Eh          T*S/Eh         G(T)/Eh
   ------------------------------------------------------------------------
    298.15    0.366695E-01    0.620464E+00    0.995795E-01    0.520885E+00
   ------------------------------------------------------------------------

         :::::::::::::::::::::::::::::::::::::::::::::::::::::
         ::                  THERMODYNAMIC                  ::
         :::::::::::::::::::::::::::::::::::::::::::::::::::::
         :: total free energy         -98.141312804487 Eh   ::
         ::.................................................::
         :: total energy              -98.662197812561 Eh   ::
         :: zero point energy           0.583794931134 Eh   ::
         :: G(RRHO) w/o ZPVE           -0.062909923060 Eh   ::
         :: G(RRHO) contrib.            0.520885008074 Eh   ::
         :::::::::::::::::::::::::::::::::::::::::::::::::::::

           -------------------------------------------------
          | TOTAL ENERGY              -98.662197812561 Eh   |
          | TOTAL ENTHALPY            -98.041733348686 Eh   |
          | TOTAL FREE ENERGY         -98.141312804487 Eh   |
          | GRADIENT NORM               0.000040651022 Eh/α |
          | HOMO-LUMO GAP               2.271646373114 eV   |
           -------------------------------------------------

 * finished run on 2025/08/23 at 23:39:10.926
