   * xtb version 6.7.1 (edcfbbe) compiled by 'albert@albert-system' on 2024-07-22

   ID    Z sym.   atoms
    1    6 C      1-6, 8-13, 15-38
    2    5 B      7
    3    7 N      14
    4    1 H      39-72

          program call               : xtb data2507/toluene/CzoB/CzoB.xyz --gfn 2 --gbsa toluene --ohess vtight --parallel 40 --molden --ceasefiles --namespace data2507/toluene/CzoB/CzoB_toluene_S0_preOpt
      * Solvation model:               GBSA
        Solvent                        toluene
        Solvent mass                       9.2140E+01 g/mol
          :  Hamiltonian                  GFN2-xTB          :
 * total energy  :   -98.6168701 Eh     change       -0.1822073E-08 Eh
 * total energy  :   -98.6492308 Eh     change       -0.3236075E-01 Eh
 * total energy  :   -98.6565912 Eh     change       -0.7360347E-02 Eh
 * total energy  :   -98.6582607 Eh     change       -0.1669541E-02 Eh
 * total energy  :   -98.6592025 Eh     change       -0.9418266E-03 Eh
 * total energy  :   -98.6596255 Eh     change       -0.4229775E-03 Eh
 * total energy  :   -98.6598953 Eh     change       -0.2697644E-03 Eh
 * total energy  :   -98.6601036 Eh     change       -0.2083565E-03 Eh
 * total energy  :   -98.6603029 Eh     change       -0.1993021E-03 Eh
 * total energy  :   -98.6605103 Eh     change       -0.2073059E-03 Eh
 * total energy  :   -98.6621382 Eh     change       -0.6980087E-06 Eh
 * total energy  :   -98.6621387 Eh     change       -0.5403155E-06 Eh
 * total energy  :   -98.6621389 Eh     change       -0.2199396E-06 Eh
 * total energy  :   -98.6621394 Eh     change       -0.4562908E-06 Eh
 * total energy  :   -98.6621398 Eh     change       -0.4368678E-06 Eh
 * total energy  :   -98.6621403 Eh     change       -0.4697657E-06 Eh
 * total energy  :   -98.6621409 Eh     change       -0.5731182E-06 Eh
 * total energy  :   -98.6621413 Eh     change       -0.4296461E-06 Eh
 * total energy  :   -98.6621413 Eh     change       -0.5637236E-07 Eh
   *** GEOMETRY OPTIMIZATION CONVERGED AFTER 128 ITERATIONS ***

 final structure:
================
72
 xtb: 6.7.1 (edcfbbe)
C            3.37544686927829        3.52050430877855       -1.07660201493132
C            2.22793956740690        2.64142938667530       -0.68040469156694
C            2.02421933784918        2.26878986202800        0.63629717898844
C            0.96558487633318        1.44985136741353        1.00613639008272
C            0.76971349205704        1.19990242771295        2.47452887962785
C            0.06711458499453        0.96495677270273        0.04344903462893
B           -1.07161757337331       -0.05781044535016        0.39386063931615
C           -0.72712428478657       -1.38786889928130        1.16669761302931
C           -1.71435765596050       -1.93854635735245        1.99745963232796
C           -1.49052501881828       -3.05090273633566        2.78511578285315
C           -0.25464210524111       -3.67654509195771        2.75649075211071
C            0.74118939853058       -3.17238329997865        1.94079572000283
C            0.51958359279541       -2.04085639688446        1.16193439950459
N            1.60767143440184       -1.57290476129943        0.39229997733746
C            2.80120757750323       -1.13535787486104        0.92480745139385
C            3.19909990217479       -1.05542863287786        2.25208064962399
C            4.46427377970527       -0.56922711393469        2.51997241478427
C            5.32103945208889       -0.16848057821784        1.49627076389057
C            4.93418805673148       -0.25383754213000        0.17372256799349
C            3.66833265854799       -0.74324430946066       -0.12102743197803
C            2.96815197947927       -1.00527967606660       -1.34537824518106
C            3.31154253893708       -0.89536372158319       -2.68633994651465
C            2.41355942549398       -1.33303286970470       -3.63932575518427
C            1.19264682896804       -1.89187197409473       -3.26787676397119
C            0.82427269326513       -2.00035812572078       -1.94057178863351
C            1.70720269650612       -1.53199911711763       -0.97945915266962
C           -2.58446686216336        0.24403571581769        0.07441778127758
C           -3.17644369278863        1.43722022709313        0.53641194710048
C           -2.38832357448888        2.42832235538906        1.34254233141878
C           -4.51315739396034        1.70519154811738        0.29489329742236
C           -5.31837948009937        0.82620077651218       -0.41725066695217
C           -6.75700106599361        1.15143107445365       -0.68383023386952
C           -4.74244000934232       -0.34576643973177       -0.87407600472363
C           -3.40748621223793       -0.64747274376983       -0.63406274900139
C           -2.88475248339815       -1.92994422663781       -1.21464812821688
C            0.23964653893378        1.39836805454224       -1.28477310313689
C           -0.73610283143699        1.00152251235230       -2.35404689793462
C            1.30824928389551        2.20823299653539       -1.62645031371767
H            3.84365225428041        3.15098672534997       -1.98730553384483
H            4.12239929249365        3.56245447727534       -0.28731731503857
H            3.02309168984778        4.53464129044831       -1.27051218099093
H            2.70499003194895        2.61941491184537        1.40054247148239
H            1.72703205165346        1.02248715070338        2.96005780286175
H            0.32722896906479        2.08522819244330        2.93413528929723
H            0.11130160988618        0.35652761500111        2.65838471941293
H           -2.68300417051372       -1.46041097487736        2.02360057986238
H           -2.27879452640625       -3.43326975529376        3.41689576800549
H           -0.06782903311619       -4.55289225988366        3.35963285576470
H            1.70887339990207       -3.65251916997013        1.89942305304007
H            2.54346454796059       -1.36906136619844        3.05084241589778
H            4.79838636201594       -0.49920238642060        3.54558814148995
H            6.30254552828447        0.20818294591913        1.74621163124592
H            5.60139418520968        0.05097977397146       -0.61906190076419
H            4.26962055436962       -0.48786353902099       -2.97403613126115
H            2.66424789119324       -1.26034002272096       -4.68782207396946
H            0.52307498291621       -2.25325659871787       -4.03545017102639
H           -0.11185550381790       -2.45481398446854       -1.65790940928547
H           -2.03805821865293        1.97151395695279        2.26596145201937
H           -3.00177946787114        3.29057370440927        1.59545761242887
H           -1.51783116158846        2.76986863925969        0.78732393865169
H           -4.94430784455924        2.62390067546130        0.67012517684752
H           -7.28598432623299        0.28625541479281       -1.07674638473939
H           -6.82961092003687        1.95923425502728       -1.41305716472508
H           -7.25129619012941        1.48246346453583        0.22843188503707
H           -5.34563352605823       -1.05035549656368       -1.43131824331567
H           -3.67196812012120       -2.68126548669393       -1.24634914481539
H           -2.54545425622205       -1.76265502180385       -2.23811956333307
H           -2.05455935732415       -2.31811117079115       -0.63381343307725
H           -1.70944659052039        1.44960436287334       -2.15813421959311
H           -0.39094942645524        1.33562363431063       -3.33009756122262
H           -0.86076630385306       -0.07667570912700       -2.38200473584636
H            1.43277127064990        2.51127230022826       -2.65762194298154

          :  Hamiltonian                  GFN2-xTB          :
         :: gradient norm              0.000142533525 Eh/a0 ::
         :: HOMO-LUMO gap              2.270825982912 eV    ::
         :: SCC energy              -100.471173408393 Eh    ::
         :: -> dispersion             -0.107590373168 Eh    ::
         :: -> Gsolv                  -0.033354465134 Eh    ::
         :: repulsion energy           1.809032062845 Eh    ::

    * Orbital Energies and Occupations

         #    Occupation            Energy/Eh            Energy/eV
      -------------------------------------------------------------
         1        2.0000           -0.6682778             -18.1848
       ...           ...                  ...                  ...
        81        2.0000           -0.4122679             -11.2184
        82        2.0000           -0.4103741             -11.1668
        83        2.0000           -0.4067163             -11.0673
        84        2.0000           -0.4053010             -11.0288
        85        2.0000           -0.4002327             -10.8909
        86        2.0000           -0.3989038             -10.8547
        87        2.0000           -0.3910501             -10.6410
        88        2.0000           -0.3795196             -10.3273
        89        2.0000           -0.3785000             -10.2995
        90        2.0000           -0.3719592             -10.1215
        91        2.0000           -0.3706002             -10.0845
        92        2.0000           -0.3676491             -10.0042
        93        2.0000           -0.3552754              -9.6675 (HOMO)
        94                         -0.2718238              -7.3967 (LUMO)
        95                         -0.2404330              -6.5425
        96                         -0.2284871              -6.2175
        97                         -0.2185932              -5.9482
        98                         -0.2170782              -5.9070
        99                         -0.2086620              -5.6780
       100                         -0.2053997              -5.5892
       101                         -0.2018500              -5.4926
       102                         -0.1873338              -5.0976
       103                         -0.1812734              -4.9327
       104                         -0.1683011              -4.5797
       ...                                ...                  ...
       186                          0.7520991              20.4657
      -------------------------------------------------------------
                  HL-Gap            0.0834516 Eh            2.2708 eV

     #   Z          covCN         q      C6AA      α(0)
     1   6 C        3.757    -0.105    22.553     6.771
     2   6 C        2.963     0.011    27.779     8.645
     3   6 C        2.930    -0.057    29.407     8.893
     4   6 C        2.967     0.011    27.777     8.645
     5   6 C        3.759    -0.109    22.639     6.783
     6   6 C        2.889    -0.083    30.065     8.990
     7   5 B        2.707     0.255    17.647     7.046
     8   6 C        2.881    -0.072    29.783     8.947
     9   6 C        2.926    -0.029    28.727     8.790
    10   6 C        2.915    -0.034    28.842     8.807
    11   6 C        2.919    -0.027    28.669     8.780
    12   6 C        2.923    -0.042    29.035     8.836
    13   6 C        2.914     0.065    26.553     8.450
    14   7 N        2.803    -0.050    22.211     7.000
    15   6 C        3.086     0.052    26.740     8.477
    16   6 C        2.910    -0.051    29.272     8.872
    17   6 C        2.924    -0.037    28.921     8.819
    18   6 C        2.920    -0.044    29.100     8.846
    19   6 C        2.912    -0.035    28.867     8.810
    20   6 C        3.069    -0.018    28.392     8.737
    21   6 C        3.071    -0.019    28.401     8.738
    22   6 C        2.913    -0.035    28.870     8.811
    23   6 C        2.920    -0.044    29.091     8.845
    24   6 C        2.924    -0.035    28.876     8.812
    25   6 C        2.910    -0.054    29.337     8.882
    26   6 C        3.083     0.051    26.756     8.480
    27   6 C        2.886    -0.083    30.077     8.991
    28   6 C        2.967     0.011    27.761     8.642
    29   6 C        3.759    -0.114    22.726     6.796
    30   6 C        2.930    -0.058    29.440     8.898
    31   6 C        2.962     0.011    27.769     8.643
    32   6 C        3.757    -0.107    22.595     6.777
    33   6 C        2.931    -0.058    29.440     8.898
    34   6 C        2.966     0.011    27.758     8.642
    35   6 C        3.760    -0.109    22.625     6.781
    36   6 C        2.967     0.010    27.790     8.647
    37   6 C        3.759    -0.111    22.667     6.787
    38   6 C        2.930    -0.057    29.405     8.893
    39   1 H        0.925     0.041     2.438     2.442
    40   1 H        0.925     0.038     2.478     2.461
    41   1 H        0.924     0.044     2.395     2.420
    42   1 H        0.925     0.019     2.752     2.594
    43   1 H        0.925     0.040     2.445     2.445
    44   1 H        0.924     0.044     2.393     2.419
    45   1 H        0.925     0.038     2.479     2.462
    46   1 H        0.926     0.040     2.447     2.446
    47   1 H        0.926     0.035     2.510     2.478
    48   1 H        0.926     0.037     2.495     2.470
    49   1 H        0.926     0.035     2.517     2.481
    50   1 H        0.926     0.028     2.612     2.527
    51   1 H        0.926     0.026     2.645     2.543
    52   1 H        0.926     0.024     2.672     2.556
    53   1 H        0.926     0.027     2.632     2.537
    54   1 H        0.926     0.026     2.642     2.542
    55   1 H        0.926     0.025     2.663     2.552
    56   1 H        0.926     0.027     2.628     2.535
    57   1 H        0.926     0.027     2.629     2.535
    58   1 H        0.925     0.044     2.395     2.420
    59   1 H        0.925     0.037     2.489     2.467
    60   1 H        0.925     0.049     2.334     2.389
    61   1 H        0.925     0.022     2.701     2.570
    62   1 H        0.925     0.039     2.464     2.455
    63   1 H        0.924     0.044     2.391     2.418
    64   1 H        0.925     0.042     2.416     2.431
    65   1 H        0.925     0.022     2.703     2.571
    66   1 H        0.925     0.039     2.460     2.453
    67   1 H        0.924     0.041     2.429     2.437
    68   1 H        0.925     0.040     2.442     2.444
    69   1 H        0.925     0.047     2.357     2.401
    70   1 H        0.925     0.034     2.528     2.487
    71   1 H        0.925     0.044     2.397     2.421
    72   1 H        0.925     0.019     2.741     2.589

molecular dipole:
                 x           y           z       tot (Debye)
 q only:       -0.771      -0.168       0.423
   full:       -0.756      -0.199       0.450       2.292

 projected vibrational frequencies (cm⁻¹)
eigval :       -0.00    -0.00    -0.00    -0.00     0.00     0.00
eigval :       13.18    24.95    31.11    37.50    41.63    45.64
eigval :       57.48    72.58    82.79    90.29    99.81   105.19
eigval :      107.64   115.83   123.11   131.91   140.50   142.50
eigval :      145.61   155.75   167.48   174.52   180.84   184.70
eigval :      196.08   203.27   209.26   215.05   244.90   274.06
eigval :      274.28   278.82   283.13   309.15   323.30   327.08
eigval :      331.57   358.36   399.07   408.98   419.97   428.21
eigval :      436.88   461.25   477.48   482.53   489.62   493.71
eigval :      498.67   508.90   512.66   516.29   519.31   536.41
eigval :      542.14   544.83   556.88   581.39   594.15   598.57
eigval :      600.80   604.97   607.78   628.61   672.96   679.05
eigval :      679.85   705.93   706.37   718.73   756.50   768.33
eigval :      779.16   781.15   835.46   837.70   865.47   869.19
eigval :      875.97   879.89   886.17   887.60   890.11   898.15
eigval :      899.03   904.17   917.92   921.73   925.52   927.58
eigval :      933.61   962.96   963.65   974.78   976.97  1011.28
eigval :     1021.62  1023.97  1028.98  1029.34  1030.89  1033.90
eigval :     1034.42  1035.60  1040.46  1041.96  1043.51  1043.56
eigval :     1067.26  1069.79  1071.44  1097.20  1110.64  1135.35
eigval :     1149.42  1159.09  1174.44  1178.31  1180.24  1183.37
eigval :     1192.70  1209.17  1218.04  1235.12  1235.72  1236.82
eigval :     1240.81  1250.89  1290.32  1298.77  1300.71  1302.13
eigval :     1305.38  1333.04  1337.45  1352.57  1361.39  1364.73
eigval :     1396.26  1397.80  1400.71  1402.12  1403.04  1406.72
eigval :     1408.31  1424.16  1427.59  1428.67  1432.53  1448.16
eigval :     1453.61  1459.06  1473.92  1475.66  1477.00  1478.68
eigval :     1479.43  1481.05  1483.76  1484.39  1485.72  1487.21
eigval :     1488.57  1489.10  1492.16  1497.35  1552.53  1557.36
eigval :     1559.81  1572.97  1579.70  1590.73  1598.59  1600.76
eigval :     1603.27  1616.53  2983.58  2984.05  2989.11  2993.03
eigval :     3010.70  3017.56  3020.35  3021.39  3021.50  3028.61
eigval :     3029.70  3030.96  3035.81  3036.09  3038.00  3053.61
eigval :     3053.96  3055.04  3056.97  3058.11  3058.95  3064.37
eigval :     3064.96  3067.13  3071.09  3071.47  3073.37  3074.48
eigval :     3080.04  3081.23  3084.22  3087.74  3090.23  3106.19

   temp. (K)  partition function   enthalpy   heat capacity  entropy
                                   cal/mol     cal/K/mol   cal/K/mol   J/K/mol
 298.15  VIB  0.121E+16            20659.075    127.911    128.528
         ROT  0.245E+08              888.752      2.981     36.789
         INT  0.295E+23            21547.827    130.892    165.317
         TR   0.105E+29             1481.254      4.968     44.444
         TOT                       23029.0812   135.8604   209.7608   877.6393

       T/K    H(0)-H(T)+PV         H(T)/Eh          T*S/Eh         G(T)/Eh
   ------------------------------------------------------------------------
    298.15    0.366992E-01    0.620327E+00    0.996641E-01    0.520663E+00
   ------------------------------------------------------------------------

         :::::::::::::::::::::::::::::::::::::::::::::::::::::
         ::                  THERMODYNAMIC                  ::
         :::::::::::::::::::::::::::::::::::::::::::::::::::::
         :: total free energy         -98.141478551942 Eh   ::
         ::.................................................::
         :: total energy              -98.662141346767 Eh   ::
         :: zero point energy           0.583627754324 Eh   ::
         :: G(RRHO) w/o ZPVE           -0.062964959499 Eh   ::
         :: G(RRHO) contrib.            0.520662794825 Eh   ::
         :::::::::::::::::::::::::::::::::::::::::::::::::::::

           -------------------------------------------------
          | TOTAL ENERGY              -98.662141346767 Eh   |
          | TOTAL ENTHALPY            -98.041814415554 Eh   |
          | TOTAL FREE ENERGY         -98.141478551942 Eh   |
          | GRADIENT NORM               0.000142462419 Eh/α |
          | HOMO-LUMO GAP               2.270833626041 eV   |
           -------------------------------------------------

 * finished run on 2025/08/23 at 23:35:32.068
