   * xtb version 6.7.1 (edcfbbe) compiled by 'albert@albert-system' on 2024-07-22

   ID    Z sym.   atoms
    1    6 C      1-6, 8-13, 15-38
    2    5 B      7
    3    7 N      14
    4    1 H      39-72

          program call               : xtb data2507/toluene/CzoB/CzoB_toluene_T1_crest.xyz --gfn 2 --uhf 2 --gbsa toluene --ohess vtight --parallel 40 --molden --ceasefiles --namespace data2507/toluene/CzoB/CzoB_toluene_T1_finalOpt
      * Solvation model:               GBSA
        Solvent                        toluene
        Solvent mass                       9.2140E+01 g/mol
          :  Hamiltonian                  GFN2-xTB          :
 * total energy  :   -98.5690250 Eh     change       -0.9158384E-08 Eh
 * total energy  :   -98.5691289 Eh     change       -0.1039281E-03 Eh
 * total energy  :   -98.5691834 Eh     change       -0.5445695E-04 Eh
 * total energy  :   -98.5692002 Eh     change       -0.1685982E-04 Eh
 * total energy  :   -98.5692321 Eh     change       -0.3190770E-04 Eh
 * total energy  :   -98.5692489 Eh     change       -0.1673621E-04 Eh
 * total energy  :   -98.5692749 Eh     change       -0.2603850E-04 Eh
 * total energy  :   -98.5692874 Eh     change       -0.1252682E-04 Eh
 * total energy  :   -98.5692913 Eh     change       -0.3829916E-05 Eh
 * total energy  :   -98.5692955 Eh     change       -0.4188916E-05 Eh
 * total energy  :   -98.5693048 Eh     change       -0.1483338E-05 Eh
 * total energy  :   -98.5693059 Eh     change       -0.1136484E-05 Eh
 * total energy  :   -98.5693069 Eh     change       -0.9946680E-06 Eh
 * total energy  :   -98.5693080 Eh     change       -0.1128133E-05 Eh
 * total energy  :   -98.5693092 Eh     change       -0.1171093E-05 Eh
 * total energy  :   -98.5693104 Eh     change       -0.1141987E-05 Eh
 * total energy  :   -98.5693110 Eh     change       -0.6242787E-06 Eh
 * total energy  :   -98.5693113 Eh     change       -0.3505943E-06 Eh
 * total energy  :   -98.5693113 Eh     change       -0.7497903E-08 Eh
   *** GEOMETRY OPTIMIZATION CONVERGED AFTER 22 ITERATIONS ***

 final structure:
================
72
 xtb: 6.7.1 (edcfbbe)
C            3.10124605741858        3.33671109067441        1.59303183866618
C            1.92510121975951        2.45274731564253        1.32954549577659
C            1.78969200841299        1.24007218254685        1.99910081182885
C            0.71035171925261        0.40820169325809        1.78100003559386
C            0.56340511901469       -0.82860825356046        2.61020709492411
C           -0.26813388751889        0.74283629743773        0.79909445340420
B           -1.29852906019324       -0.32118714125046        0.31953492878624
C           -0.84260121488589       -1.72177863991840       -0.07842516709821
C           -1.72301202243905       -2.83481297518356       -0.02101943785249
C           -1.31358173822941       -4.12840306274776       -0.18833407022777
C            0.03289828692646       -4.41355522462990       -0.46784156893634
C            0.92655476550857       -3.36723179825503       -0.57789338037728
C            0.52381641178045       -2.04527721930170       -0.42440509194954
N            1.50163283496668       -1.05623331277047       -0.58749489931053
C            2.72583653429713       -1.03770105376628        0.04962373823575
C            3.23154125318348       -1.88722776869436        1.02629513613212
C            4.49601261024137       -1.62895916555990        1.52156870385074
C            5.25266182375238       -0.55459422725933        1.05776865899556
C            4.75997433841066        0.29235525374817        0.08060262476792
C            3.49225676203799        0.05548380933740       -0.42672176791335
C            2.69728242948594        0.69648136762186       -1.43807960931169
C            2.92474205231745        1.75936613935824       -2.29844734403079
C            1.95812357657661        2.06889720653347       -3.23844094401325
C            0.78938126367988        1.31936282468462       -3.33694093386241
C            0.53957771389629        0.25952975623820       -2.48397164200206
C            1.48825294562449       -0.03312707685215       -1.51700209006051
C           -2.84835420079018        0.02935062074277        0.26820283506006
C           -3.47198814675173        0.61621799511243        1.38617629118403
C           -2.72256883812447        0.89312782242104        2.65619935595420
C           -4.82733129647323        0.90781517049196        1.36510266647104
C           -5.61679875523090        0.64398636642416        0.25519399031977
C           -7.08583228048355        0.94786979175611        0.26215200044619
C           -5.00192438352824        0.07449637206731       -0.84659105486230
C           -3.64601906979587       -0.23044809393003       -0.85899653607370
C           -3.09681639011291       -0.76353625523921       -2.15272779468979
C           -0.19119762226222        2.03895573596991        0.22341186956717
C           -1.27616311342147        2.52169322288413       -0.68692244885665
C            0.89891676705089        2.84549969534725        0.46764161265714
H            3.18817241902336        4.10796091024842        0.83138241635760
H            4.01736057842634        2.74843740724109        1.61492356647458
H            2.99752839423744        3.82475326750687        2.56389918290119
H            2.54583922350526        0.95185480759641        2.71730538220964
H            0.58613966102684       -1.72466673468936        1.99242995590288
H            1.35880425267908       -0.89266573568278        3.34938128951041
H           -0.39711338558053       -0.82597248530977        3.12239326969182
H           -2.76099923215206       -2.63352546996029        0.20484924642107
H           -2.02324219069805       -4.93978886655039       -0.10469235426549
H            0.35803312161033       -5.43014959441716       -0.62744961045207
H            1.95561707345782       -3.56315987689979       -0.84999567838583
H            2.65997512259056       -2.72622489030117        1.39149270882372
H            4.90718248597459       -2.27551678198192        2.28295640057118
H            6.23815975086706       -0.38620917797012        1.46693678893683
H            5.35002614454645        1.12028403530932       -0.28299241333153
H            3.84308817343234        2.32420458942096       -2.24251168278674
H            2.11775806345211        2.89212205398309       -3.91938052327368
H            0.06628831582737        1.56691841877987       -4.10014087986490
H           -0.35673842709726       -0.33023946895950       -2.57294173899997
H           -3.30645512485227        1.52915468129966        3.31845478124842
H           -1.77180659066975        1.37926875819631        2.45075250812998
H           -2.51755123856787       -0.04263860134301        3.17744712732475
H           -5.28524531911853        1.34193114072777        2.24467319839217
H           -7.46259464267476        1.06795634881805       -0.75142814862519
H           -7.28966915201622        1.85721849496618        0.82476526056413
H           -7.63550399075636        0.13130722867611        0.73382206757471
H           -5.58749106464810       -0.12485822229655       -1.73496266737168
H           -3.83484722183502       -1.39161917907174       -2.64905960561294
H           -2.86354885552021        0.06618920279623       -2.82294507616771
H           -2.19760768940570       -1.34855351896629       -1.99362199458979
H           -2.19251260040587        2.69876813106619       -0.12435740348795
H           -0.98537874008230        3.44662114713744       -1.17975797920607
H           -1.49669953897589        1.76940237231266       -1.44005684871103
H            0.96703200314414        3.80751574173503       -0.02235140619339

          :  Hamiltonian                  GFN2-xTB          :
         :: gradient norm              0.000056388849 Eh/a0 ::
         :: HOMO-LUMO gap              0.312392056574 eV    ::
         :: SCC energy              -100.366306104295 Eh    ::
         :: -> dispersion             -0.110578724748 Eh    ::
         :: -> Gsolv                  -0.032291337803 Eh    ::
         :: repulsion energy           1.796994764455 Eh    ::

    * Orbital Energies and Occupations

         #    Occupation            Energy/Eh            Energy/eV
      -------------------------------------------------------------
         1        2.0000           -0.6767021             -18.4140
       ...           ...                  ...                  ...
        82        2.0000           -0.4077858             -11.0964
        83        2.0000           -0.4071606             -11.0794
        84        2.0000           -0.3959966             -10.7756
        85        2.0000           -0.3900689             -10.6143
        86        2.0000           -0.3879300             -10.5561
        87        2.0000           -0.3855902             -10.4924
        88        2.0000           -0.3843507             -10.4587
        89        2.0000           -0.3752401             -10.2108
        90        2.0000           -0.3737537             -10.1704
        91        2.0000           -0.3680889             -10.0162
        92        1.9993           -0.3649368              -9.9304
        93        1.0007           -0.3512280              -9.5574
        94        0.9976           -0.2587637              -7.0413 (HOMO)
        95        0.0024           -0.2472837              -6.7289 (LUMO)
        96                         -0.2259438              -6.1482
        97                         -0.2168512              -5.9008
        98                         -0.2140628              -5.8249
        99                         -0.2048346              -5.5738
       100                         -0.2038754              -5.5477
       101                         -0.2004782              -5.4553
       102                         -0.1915916              -5.2135
       103                         -0.1881456              -5.1197
       104                         -0.1474911              -4.0134
       105                         -0.0977037              -2.6587
       ...                                ...                  ...
       186                          0.7434733              20.2309
      -------------------------------------------------------------
                  HL-Gap            0.0114801 Eh            0.3124 eV

     #   Z          covCN         q      C6AA      α(0)
     1   6 C        3.757    -0.106    22.578     6.775
     2   6 C        2.962     0.015    27.685     8.630
     3   6 C        2.924    -0.055    29.377     8.888
     4   6 C        2.963     0.012    27.752     8.641
     5   6 C        3.759    -0.111    22.670     6.788
     6   6 C        2.888    -0.062    29.535     8.910
     7   5 B        2.710     0.173    18.808     7.272
     8   6 C        2.879    -0.074    29.846     8.956
     9   6 C        2.917    -0.041    29.029     8.835
    10   6 C        2.911    -0.039    28.962     8.825
    11   6 C        2.915    -0.054    29.343     8.883
    12   6 C        2.918    -0.044    29.103     8.847
    13   6 C        2.907     0.037    27.173     8.548
    14   7 N        2.799    -0.012    21.483     6.884
    15   6 C        3.078     0.050    26.803     8.488
    16   6 C        2.910    -0.041    29.021     8.834
    17   6 C        2.922    -0.035    28.870     8.811
    18   6 C        2.920    -0.037    28.913     8.818
    19   6 C        2.911    -0.032    28.799     8.800
    20   6 C        3.066    -0.012    28.246     8.715
    21   6 C        3.065    -0.013    28.283     8.721
    22   6 C        2.912    -0.032    28.793     8.799
    23   6 C        2.920    -0.037    28.913     8.818
    24   6 C        2.923    -0.032    28.808     8.802
    25   6 C        2.911    -0.045    29.116     8.848
    26   6 C        3.080     0.050    26.795     8.486
    27   6 C        2.885    -0.065    29.613     8.922
    28   6 C        2.966     0.005    27.915     8.666
    29   6 C        3.759    -0.108    22.618     6.780
    30   6 C        2.931    -0.058    29.440     8.898
    31   6 C        2.961     0.001    28.015     8.682
    32   6 C        3.757    -0.104    22.532     6.768
    33   6 C        2.933    -0.058    29.447     8.899
    34   6 C        2.965     0.006    27.895     8.663
    35   6 C        3.760    -0.107    22.603     6.778
    36   6 C        2.962     0.011    27.762     8.642
    37   6 C        3.759    -0.111    22.674     6.789
    38   6 C        2.924    -0.054    29.339     8.883
    39   1 H        0.925     0.042     2.416     2.431
    40   1 H        0.925     0.047     2.357     2.401
    41   1 H        0.924     0.050     2.322     2.383
    42   1 H        0.925     0.021     2.724     2.581
    43   1 H        0.925     0.053     2.281     2.362
    44   1 H        0.925     0.037     2.488     2.467
    45   1 H        0.925     0.050     2.324     2.384
    46   1 H        0.926     0.026     2.639     2.540
    47   1 H        0.926     0.015     2.813     2.623
    48   1 H        0.926     0.015     2.806     2.619
    49   1 H        0.925     0.020     2.729     2.584
    50   1 H        0.926     0.038     2.470     2.457
    51   1 H        0.926     0.034     2.525     2.485
    52   1 H        0.926     0.033     2.538     2.491
    53   1 H        0.926     0.036     2.504     2.474
    54   1 H        0.926     0.036     2.500     2.472
    55   1 H        0.926     0.034     2.527     2.486
    56   1 H        0.926     0.036     2.504     2.475
    57   1 H        0.926     0.043     2.403     2.424
    58   1 H        0.925     0.034     2.528     2.486
    59   1 H        0.925     0.052     2.295     2.369
    60   1 H        0.924     0.038     2.477     2.461
    61   1 H        0.925     0.017     2.783     2.609
    62   1 H        0.925     0.036     2.497     2.471
    63   1 H        0.925     0.037     2.486     2.466
    64   1 H        0.924     0.040     2.450     2.448
    65   1 H        0.925     0.017     2.771     2.603
    66   1 H        0.925     0.035     2.523     2.484
    67   1 H        0.924     0.037     2.484     2.465
    68   1 H        0.925     0.047     2.364     2.404
    69   1 H        0.925     0.051     2.310     2.377
    70   1 H        0.925     0.036     2.502     2.474
    71   1 H        0.925     0.054     2.270     2.356
    72   1 H        0.925     0.022     2.696     2.568

molecular dipole:
                 x           y           z       tot (Debye)
 q only:        0.849       0.688       0.044
   full:        0.827       0.602       0.090       2.610

 projected vibrational frequencies (cm⁻¹)
eigval :       -0.00    -0.00    -0.00     0.00     0.00     0.00
eigval :       19.73    25.92    32.61    40.70    49.28    53.36
eigval :       67.06    69.49    71.57    76.64    82.42    84.04
eigval :       97.22   108.20   124.17   133.01   137.86   145.23
eigval :      149.23   157.90   161.63   172.77   179.05   187.05
eigval :      191.15   211.36   215.19   218.85   251.04   273.97
eigval :      276.01   279.94   293.07   299.10   307.83   324.18
eigval :      331.96   360.25   392.42   402.55   410.08   425.77
eigval :      434.34   450.22   461.30   474.91   479.74   487.21
eigval :      491.01   499.43   507.04   512.21   515.41   521.87
eigval :      536.20   539.03   550.44   560.83   580.37   591.51
eigval :      595.84   597.70   601.67   616.17   649.87   664.82
eigval :      666.60   672.76   704.57   711.42   738.08   754.94
eigval :      768.84   777.35   833.01   834.75   842.18   848.71
eigval :      865.65   867.70   870.80   871.95   873.73   887.55
eigval :      896.16   900.83   906.47   907.69   917.72   919.76
eigval :      921.79   957.75   959.49   971.37   973.74  1007.42
eigval :     1009.68  1013.71  1019.52  1023.45  1023.74  1025.74
eigval :     1029.79  1030.85  1032.57  1037.09  1038.41  1041.67
eigval :     1058.45  1066.19  1069.36  1071.27  1088.08  1119.00
eigval :     1126.07  1141.03  1156.71  1169.61  1174.51  1179.85
eigval :     1186.39  1194.22  1199.28  1224.69  1226.55  1228.06
eigval :     1235.02  1237.64  1275.21  1283.12  1289.69  1299.78
eigval :     1304.65  1320.27  1325.11  1340.61  1343.22  1365.50
eigval :     1372.62  1390.76  1394.11  1395.72  1397.07  1399.94
eigval :     1401.31  1405.63  1410.25  1415.68  1416.26  1420.21
eigval :     1423.49  1432.48  1452.77  1458.32  1461.74  1464.27
eigval :     1464.94  1470.31  1474.79  1478.31  1480.36  1481.52
eigval :     1482.75  1483.17  1485.71  1487.89  1489.71  1490.81
eigval :     1532.06  1536.38  1559.89  1565.30  1568.31  1579.98
eigval :     1581.09  1592.30  2973.44  2980.03  2981.01  2986.49
eigval :     3002.33  3002.61  3017.17  3019.16  3020.64  3024.18
eigval :     3025.15  3029.11  3030.38  3031.29  3032.56  3036.01
eigval :     3037.94  3044.75  3048.52  3052.14  3054.38  3057.31
eigval :     3057.50  3067.51  3070.05  3073.02  3073.91  3079.75
eigval :     3081.13  3086.79  3088.52  3091.21  3096.18  3129.76

   temp. (K)  partition function   enthalpy   heat capacity  entropy
                                   cal/mol     cal/K/mol   cal/K/mol   J/K/mol
 298.15  VIB  0.108E+16            20892.049    129.715    130.272
         ROT  0.238E+08              888.752      2.981     36.739
         INT  0.259E+23            21780.801    132.695    167.011
         TR   0.105E+29             1481.254      4.968     44.444
         TOT                       23262.0554   137.6636   211.4553   884.7288

       T/K    H(0)-H(T)+PV         H(T)/Eh          T*S/Eh         G(T)/Eh
   ------------------------------------------------------------------------
    298.15    0.370704E-01    0.616514E+00    0.100469E+00    0.516045E+00
   ------------------------------------------------------------------------

         :::::::::::::::::::::::::::::::::::::::::::::::::::::
         ::                  THERMODYNAMIC                  ::
         :::::::::::::::::::::::::::::::::::::::::::::::::::::
         :: total free energy         -98.053266634583 Eh   ::
         ::.................................................::
         :: total energy              -98.569311341705 Eh   ::
         :: zero point energy           0.579443484319 Eh   ::
         :: G(RRHO) w/o ZPVE           -0.063398777197 Eh   ::
         :: G(RRHO) contrib.            0.516044707122 Eh   ::
         :::::::::::::::::::::::::::::::::::::::::::::::::::::

           -------------------------------------------------
          | TOTAL ENERGY              -98.569311341705 Eh   |
          | TOTAL ENTHALPY            -97.952797412545 Eh   |
          | TOTAL FREE ENERGY         -98.053266634583 Eh   |
          | GRADIENT NORM               0.000056360019 Eh/α |
          | HOMO-LUMO GAP               0.312388172657 eV   |
           -------------------------------------------------

 * finished run on 2025/08/23 at 23:42:37.692
