   * xtb version 6.7.1 (edcfbbe) compiled by 'albert@albert-system' on 2024-07-22

   ID    Z sym.   atoms
    1    6 C      1-18, 20-24, 26-32, 34-40, 42-44, 46-48
    2    7 N      19, 25, 33, 41, 45
    3    1 H      49-77

          program call               : xtb data2507/gas/ICBNTrz4/ICBNTrz4_gas_S0_crest.xyz --gfn 2 --ohess vtight --parallel 40 --molden --ceasefiles --namespace data2507/gas/ICBNTrz4/ICBNTrz4_gas_S0_finalOpt
          :  Hamiltonian                  GFN2-xTB          :
 * total energy  :  -121.5245081 Eh     change       -0.1767845E-08 Eh
 * total energy  :  -121.5245088 Eh     change       -0.6717565E-06 Eh
 * total energy  :  -121.5245091 Eh     change       -0.3536428E-06 Eh
 * total energy  :  -121.5245109 Eh     change       -0.1750258E-05 Eh
 * total energy  :  -121.5245130 Eh     change       -0.2103486E-05 Eh
 * total energy  :  -121.5245131 Eh     change       -0.1773634E-06 Eh
 * total energy  :  -121.5245142 Eh     change       -0.1088830E-05 Eh
 * total energy  :  -121.5245150 Eh     change       -0.7330887E-06 Eh
 * total energy  :  -121.5245155 Eh     change       -0.4845709E-06 Eh
 * total energy  :  -121.5245162 Eh     change       -0.7153674E-06 Eh
 * total energy  :  -121.5245183 Eh     change       -0.4684420E-06 Eh
 * total energy  :  -121.5245187 Eh     change       -0.3980514E-06 Eh
 * total energy  :  -121.5245190 Eh     change       -0.2688396E-06 Eh
 * total energy  :  -121.5245192 Eh     change       -0.2040954E-06 Eh
 * total energy  :  -121.5245195 Eh     change       -0.2530321E-06 Eh
 * total energy  :  -121.5245199 Eh     change       -0.4194136E-06 Eh
 * total energy  :  -121.5245205 Eh     change       -0.5775346E-06 Eh
 * total energy  :  -121.5245209 Eh     change       -0.4157190E-06 Eh
 * total energy  :  -121.5245209 Eh     change       -0.5046999E-08 Eh
   *** GEOMETRY OPTIMIZATION CONVERGED AFTER 22 ITERATIONS ***

 final structure:
================
77
 xtb: 6.7.1 (edcfbbe)
C            4.26161081087666        3.33964265085077        0.33317299392010
C            4.77772376252662        2.21975956098855        1.24293742392387
C            4.19692557551062        2.36154994645681        2.65291181833221
C            6.28903620368964        2.19711790542079        1.27030002750508
C            7.15945964266815        3.16600456319271        1.72017052997208
C            8.52535104550547        2.92727918339800        1.64446560673702
C            9.00915930864323        1.73686905359212        1.12485217214328
C            8.14085146101911        0.75805725085263        0.66964418302338
C            6.77781222948025        0.99267879580169        0.74475128794250
C            5.64957019364530        0.16379151262009        0.35302489574749
C            5.61999823044361       -1.10371314102506       -0.19635494387158
C            4.37331358886116       -1.64814954108619       -0.47621890212066
C            3.96110247159763       -2.91685858495693       -1.01293465336125
C            4.65678595679932       -4.02523922540186       -1.47529314085833
C            3.94017022919945       -5.10089645105977       -1.96227572955070
C            2.54927834179811       -5.07229934061778       -2.00868326450422
C            1.83471697806629       -3.97858297134938       -1.55524825074740
C            2.54947616025191       -2.90940957871535       -1.03851213179296
N            2.09372185548744       -1.69269535126123       -0.55528884569618
C            0.76191107561208       -1.31179434079695       -0.45188409801911
C           -0.16511226749192       -2.15487813794657        0.16221340068374
C           -1.48628133045463       -1.78307690855310        0.28097681405727
C           -1.92272095237215       -0.55062584272149       -0.20911600038281
C           -3.32289641307945       -0.14983970997793       -0.07022241273256
N           -3.67077834175573        1.05008242695914       -0.52194330965019
C           -4.95311843673384        1.37634180809262       -0.37620306377777
C           -5.38786720210030        2.68540791388595       -0.86041835188358
C           -4.47143723937201        3.55500246967848       -1.44929644985046
C           -4.88584847581499        4.79112642030699       -1.90517214056923
C           -6.21342433457861        5.16968299005133       -1.77826397506400
C           -7.12904659068853        4.30835287841828       -1.19347419866649
C           -6.72146469979396        3.07078349915941       -0.73546522910716
N           -5.85964508951433        0.58186220610695        0.18533229912263
C           -5.42321219997792       -0.59947514413759        0.61108519676454
C           -6.38623287086560       -1.50327044371044        1.23885943233616
C           -5.98230494540906       -2.76114476614396        1.68265652093699
C           -6.89487768667549       -3.61071266575904        2.27683204384087
C           -8.21409761832274       -3.21450184344609        2.43357157693877
C           -8.62113522285621       -1.96441155804595        1.99356713216639
C           -7.71379256274270       -1.11013989497152        1.39814029355349
N           -4.16081595746881       -1.00827792520408        0.50119908935313
C           -1.01496374551847        0.29557600531208       -0.83293807706561
C            0.31854222657290       -0.07679202094278       -0.96456510059508
C            1.18932406428812        0.78078439248316       -1.67713813520350
N            1.85354435783127        1.48895600407160       -2.28689389696279
C            3.19181756940066       -0.92046613102655       -0.20853101175952
C            3.22163072081522        0.33400451632644        0.38837770967850
C            4.46315869409838        0.86696611463588        0.64706178692287
H            4.67715987453827        3.23142113023070       -0.66589650413595
H            3.17772759064656        3.29746889301834        0.25794967459019
H            4.54918714515684        4.31090204527724        0.72899681872389
H            3.11088446691939        2.31235557443987        2.62168564334539
H            4.48847423723245        3.31524904783938        3.08643528043948
H            4.56388052382765        1.56209119743048        3.29347416613432
H            6.79325675867755        4.09808080656115        2.12589729073465
H            9.21893555775553        3.67819378106685        1.99408318511856
H           10.07578521225402        1.57186935188946        1.07449536951693
H            8.52074112520335       -0.16807190540874        0.26437320756906
H            6.52471896824491       -1.65523325500464       -0.39954061922333
H            5.73583928018780       -4.03885596979209       -1.45822508437306
H            4.46229441784770       -5.97402663378705       -2.32394947153663
H            2.01532265356365       -5.91999752690537       -2.41170267882860
H            0.75693531784870       -3.95998021481752       -1.61730869317734
H            0.17636397924853       -3.09535973963791        0.56778343655178
H           -2.20086914303898       -2.42889047155245        0.76578297320776
H           -3.44242839896737        3.24491861692104       -1.54024334878204
H           -4.17415168929710        5.46339212002500       -2.36134323267146
H           -6.53493209743931        6.13702890112903       -2.13565600536771
H           -8.16287089745039        4.60568197699473       -1.09599641363684
H           -7.41952401546109        2.38741915916139       -0.27824269267490
H           -4.95217344263253       -3.05301511470858        1.55229185466025
H           -6.58029280546267       -4.58538113648705        2.62014984359254
H           -8.92568395526109       -3.88068849954144        2.89909831641561
H           -9.64952889837798       -1.65800909056811        2.11679426476726
H           -8.01196874195127       -0.13381654816966        1.05010276414203
H           -1.35570824773344        1.24101316381329       -1.22578253249906
H            2.31743263101446        0.86637290487733        0.64217914208875

          :  Hamiltonian                  GFN2-xTB          :
         :: gradient norm              0.000042983902 Eh/a0 ::
         :: HOMO-LUMO gap              1.791815861563 eV    ::
         :: SCC energy              -123.775988429253 Eh    ::
         :: -> dispersion             -0.106336998363 Eh    ::
         :: repulsion energy           2.251467542038 Eh    ::

    * Orbital Energies and Occupations

         #    Occupation            Energy/Eh            Energy/eV
      -------------------------------------------------------------
         1        2.0000           -0.6893937             -18.7594
       ...           ...                  ...                  ...
       101        2.0000           -0.4155555             -11.3078
       102        2.0000           -0.4150511             -11.2941
       103        2.0000           -0.4142644             -11.2727
       104        2.0000           -0.4118068             -11.2058
       105        2.0000           -0.4106862             -11.1753
       106        2.0000           -0.4104513             -11.1689
       107        2.0000           -0.4084512             -11.1145
       108        2.0000           -0.3952487             -10.7553
       109        2.0000           -0.3905776             -10.6282
       110        2.0000           -0.3774796             -10.2717
       111        2.0000           -0.3767806             -10.2527
       112        2.0000           -0.3760128             -10.2318
       113        2.0000           -0.3621616              -9.8549 (HOMO)
       114                         -0.2963136              -8.0631 (LUMO)
       115                         -0.2909461              -7.9170
       116                         -0.2760172              -7.5108
       117                         -0.2539619              -6.9107
       118                         -0.2462584              -6.7010
       119                         -0.2428098              -6.6072
       120                         -0.2326012              -6.3294
       121                         -0.2312817              -6.2935
       122                         -0.2205335              -6.0010
       123                         -0.2149915              -5.8502
       124                         -0.2111706              -5.7462
       ...                                ...                  ...
       221                          1.1652744              31.7087
      -------------------------------------------------------------
                  HL-Gap            0.0658480 Eh            1.7918 eV

     #   Z          covCN         q      C6AA      α(0)
     1   6 C        3.759    -0.099    22.441     6.754
     2   6 C        3.935     0.019    20.185     6.385
     3   6 C        3.758    -0.098    22.418     6.750
     4   6 C        3.054    -0.001    28.007     8.679
     5   6 C        2.915    -0.034    28.835     8.806
     6   6 C        2.922    -0.034    28.839     8.807
     7   6 C        2.921    -0.033    28.831     8.805
     8   6 C        2.915    -0.035    28.863     8.810
     9   6 C        3.036     0.001    27.966     8.674
    10   6 C        3.036    -0.006    28.138     8.701
    11   6 C        2.909    -0.037    28.908     8.816
    12   6 C        3.068    -0.017    28.364     8.733
    13   6 C        3.067    -0.012    28.255     8.716
    14   6 C        2.913    -0.032    28.789     8.798
    15   6 C        2.920    -0.039    28.958     8.825
    16   6 C        2.924    -0.033    28.819     8.804
    17   6 C        2.910    -0.050    29.243     8.867
    18   6 C        3.066     0.046    26.900     8.505
    19   7 N        2.802    -0.041    22.035     6.972
    20   6 C        2.915     0.077    26.280     8.406
    21   6 C        2.920    -0.042    29.032     8.836
    22   6 C        2.921    -0.019    28.492     8.753
    23   6 C        2.982    -0.002    28.072     8.691
    24   6 C        2.985     0.202    23.719     7.989
    25   7 N        1.845    -0.296    28.531     7.916
    26   6 C        2.982     0.203    23.687     7.983
    27   6 C        2.984    -0.000    28.031     8.685
    28   6 C        2.924    -0.023    28.569     8.765
    29   6 C        2.918    -0.027    28.669     8.780
    30   6 C        2.920    -0.022    28.564     8.764
    31   6 C        2.918    -0.027    28.675     8.781
    32   6 C        2.924    -0.023    28.579     8.767
    33   7 N        1.844    -0.292    28.422     7.901
    34   6 C        2.982     0.203    23.694     7.985
    35   6 C        2.984    -0.000    28.026     8.684
    36   6 C        2.924    -0.023    28.583     8.767
    37   6 C        2.918    -0.027    28.680     8.782
    38   6 C        2.920    -0.023    28.571     8.765
    39   6 C        2.918    -0.027    28.673     8.781
    40   6 C        2.924    -0.023    28.577     8.766
    41   7 N        1.844    -0.296    28.532     7.916
    42   6 C        2.934    -0.017    28.435     8.745
    43   6 C        2.972     0.005    27.909     8.666
    44   6 C        1.912     0.117    28.211     8.578
    45   7 N        0.911    -0.232    26.078     7.386
    46   6 C        3.071     0.045    26.918     8.507
    47   6 C        2.907    -0.049    29.212     8.862
    48   6 C        3.061     0.001    27.948     8.669
    49   1 H        0.925     0.043     2.409     2.427
    50   1 H        0.925     0.042     2.422     2.434
    51   1 H        0.925     0.040     2.442     2.444
    52   1 H        0.925     0.038     2.479     2.462
    53   1 H        0.925     0.041     2.431     2.438
    54   1 H        0.925     0.035     2.522     2.483
    55   1 H        0.926     0.027     2.633     2.537
    56   1 H        0.926     0.028     2.617     2.530
    57   1 H        0.926     0.028     2.618     2.530
    58   1 H        0.926     0.029     2.603     2.523
    59   1 H        0.926     0.036     2.502     2.474
    60   1 H        0.926     0.035     2.521     2.483
    61   1 H        0.926     0.031     2.567     2.505
    62   1 H        0.926     0.032     2.563     2.503
    63   1 H        0.926     0.027     2.628     2.535
    64   1 H        0.926     0.052     2.296     2.369
    65   1 H        0.926     0.066     2.131     2.283
    66   1 H        0.926     0.055     2.260     2.351
    67   1 H        0.926     0.039     2.458     2.452
    68   1 H        0.926     0.038     2.470     2.458
    69   1 H        0.926     0.038     2.475     2.460
    70   1 H        0.926     0.055     2.253     2.347
    71   1 H        0.926     0.054     2.272     2.357
    72   1 H        0.926     0.038     2.480     2.463
    73   1 H        0.926     0.038     2.475     2.460
    74   1 H        0.926     0.038     2.473     2.459
    75   1 H        0.926     0.056     2.246     2.344
    76   1 H        0.926     0.068     2.112     2.273
    77   1 H        0.926     0.024     2.675     2.557

molecular dipole:
                 x           y           z       tot (Debye)
 q only:       -0.963      -0.305       0.721
   full:       -1.365      -0.577       0.929       4.446

 projected vibrational frequencies (cm⁻¹)
eigval :       -0.00    -0.00    -0.00     0.00     0.00     0.00
eigval :        5.21    12.14    16.27    16.91    22.95    34.35
eigval :       39.63    45.66    54.74    56.94    60.78    82.56
eigval :       90.37    96.53   105.62   111.66   123.78   134.77
eigval :      137.29   143.99   154.53   160.45   182.06   186.42
eigval :      202.93   205.67   212.15   219.83   227.98   245.12
eigval :      254.44   261.99   286.42   293.83   306.44   327.12
eigval :      334.33   356.81   359.62   363.79   364.57   372.90
eigval :      376.42   401.57   406.72   416.80   425.42   433.08
eigval :      443.54   463.46   466.63   489.47   500.38   513.25
eigval :      536.29   542.48   544.49   550.36   555.83   563.79
eigval :      578.55   586.70   587.68   592.60   610.79   613.92
eigval :      622.94   626.81   644.88   647.51   651.32   670.11
eigval :      673.69   675.21   687.83   699.36   708.53   718.36
eigval :      722.46   734.86   752.13   767.87   775.41   775.48
eigval :      779.49   795.23   802.14   830.64   846.05   846.29
eigval :      847.68   871.26   873.30   874.68   876.88   878.79
eigval :      889.91   903.38   906.50   909.55   909.66   911.13
eigval :      921.38   926.92   929.20   930.42   932.68   933.90
eigval :      934.15   936.78   950.12   966.00   974.55   984.59
eigval :      990.61  1013.18  1013.73  1048.24  1068.33  1074.27
eigval :     1074.99  1075.79  1079.07  1088.53  1101.37  1105.98
eigval :     1108.48  1112.26  1134.16  1149.28  1154.49  1166.86
eigval :     1173.84  1174.58  1180.19  1180.88  1181.14  1182.76
eigval :     1188.62  1203.12  1203.96  1208.82  1212.83  1216.49
eigval :     1230.38  1235.28  1240.45  1264.21  1268.51  1269.31
eigval :     1271.93  1277.83  1314.25  1323.19  1328.32  1329.89
eigval :     1342.48  1348.21  1357.70  1364.94  1372.47  1373.23
eigval :     1390.89  1396.48  1409.54  1412.94  1425.86  1429.72
eigval :     1432.56  1433.93  1445.88  1464.69  1467.86  1474.29
eigval :     1477.31  1479.82  1485.91  1488.27  1497.01  1498.49
eigval :     1508.15  1508.71  1516.88  1547.77  1570.75  1576.57
eigval :     1583.66  1585.91  1586.75  1593.54  1594.84  1595.56
eigval :     1601.90  1605.08  1613.34  2369.80  3028.76  3030.01
eigval :     3033.36  3036.28  3039.59  3045.04  3069.35  3073.67
eigval :     3075.61  3076.12  3078.36  3081.51  3081.78  3081.95
eigval :     3082.57  3083.52  3089.44  3090.77  3090.97  3091.56
eigval :     3094.45  3094.80  3098.78  3107.53  3107.75  3107.91
eigval :     3109.58  3110.02  3114.01

   temp. (K)  partition function   enthalpy   heat capacity  entropy
                                   cal/mol     cal/K/mol   cal/K/mol   J/K/mol
 298.15  VIB  0.356E+19            22891.850    141.460    144.114
         ROT  0.105E+09              888.752      2.981     39.693
         INT  0.376E+27            23780.603    144.441    183.806
         TR   0.148E+29             1481.254      4.968     45.115
         TOT                       25261.8565   149.4093   228.9219   957.8093

       T/K    H(0)-H(T)+PV         H(T)/Eh          T*S/Eh         G(T)/Eh
   ------------------------------------------------------------------------
    298.15    0.402573E-01    0.627239E+00    0.108768E+00    0.518470E+00
   ------------------------------------------------------------------------

         :::::::::::::::::::::::::::::::::::::::::::::::::::::
         ::                  THERMODYNAMIC                  ::
         :::::::::::::::::::::::::::::::::::::::::::::::::::::
         :: total free energy        -121.006050571961 Eh   ::
         ::.................................................::
         :: total energy             -121.524520887209 Eh   ::
         :: zero point energy           0.586981172055 Eh   ::
         :: G(RRHO) w/o ZPVE           -0.068510856807 Eh   ::
         :: G(RRHO) contrib.            0.518470315248 Eh   ::
         :::::::::::::::::::::::::::::::::::::::::::::::::::::

           -------------------------------------------------
          | TOTAL ENERGY             -121.524520887209 Eh   |
          | TOTAL ENTHALPY           -120.897282384273 Eh   |
          | TOTAL FREE ENERGY        -121.006050571961 Eh   |
          | GRADIENT NORM               0.000042966473 Eh/α |
          | HOMO-LUMO GAP               1.791816038790 eV   |
           -------------------------------------------------

 * finished run on 2025/09/13 at 07:13:50.853
