   * xtb version 6.7.1 (edcfbbe) compiled by 'albert@albert-system' on 2024-07-22

   ID    Z sym.   atoms
    1    6 C      1-18, 20-24, 26-32, 34-40, 42-44, 46-48
    2    7 N      19, 25, 33, 41, 45
    3    1 H      49-77

          program call               : xtb data2507/gas/ICBNTrz4/ICBNTrz4_gas_T1_crest.xyz --gfn 2 --spinpol --tblite --uhf 2 --ohess vtight --parallel 40 --molden --ceasefiles --namespace data2507/gas/ICBNTrz4/ICBNTrz4_gas_T1_finalOpt
 * total energy  :  -121.4523317 Eh     change       -0.2662455E-07 Eh
 * total energy  :  -121.4523869 Eh     change       -0.5515871E-04 Eh
 * total energy  :  -121.4524090 Eh     change       -0.2212618E-04 Eh
 * total energy  :  -121.4524044 Eh     change        0.4559787E-05 Eh
 * total energy  :  -121.4524120 Eh     change       -0.7583670E-05 Eh
 * total energy  :  -121.4524127 Eh     change       -0.7049324E-06 Eh
 * total energy  :  -121.4524140 Eh     change       -0.1232284E-05 Eh
 * total energy  :  -121.4524146 Eh     change       -0.6125713E-06 Eh
 * total energy  :  -121.4524153 Eh     change       -0.7501536E-06 Eh
 * total energy  :  -121.4524158 Eh     change       -0.4718672E-06 Eh
 * total energy  :  -121.4524160 Eh     change       -0.1970572E-06 Eh
 * total energy  :  -121.4524162 Eh     change       -0.1981761E-06 Eh
 * total energy  :  -121.4524164 Eh     change       -0.1913218E-06 Eh
 * total energy  :  -121.4524166 Eh     change       -0.2314908E-06 Eh
 * total energy  :  -121.4524169 Eh     change       -0.2653802E-06 Eh
 * total energy  :  -121.4524172 Eh     change       -0.2648061E-06 Eh
 * total energy  :  -121.4524173 Eh     change       -0.1414435E-06 Eh
 * total energy  :  -121.4524174 Eh     change       -0.1375545E-06 Eh
 * total energy  :  -121.4524175 Eh     change       -0.7173388E-07 Eh
   *** GEOMETRY OPTIMIZATION CONVERGED AFTER 20 ITERATIONS ***

 final structure:
================
77
 xtb: 6.7.1 (edcfbbe)
C            4.26154884875330        3.31973825257173        0.50941479142493
C            4.80281001208295        2.16159399680134        1.35473098261751
C            4.25381007650031        2.23531614620914        2.78268529012016
C            6.31376100173057        2.14517275927375        1.34651362753748
C            7.19180848828036        3.09504994454166        1.82019442545340
C            8.55656557621806        2.86510649852951        1.70116938081761
C            9.03368417036140        1.70113395039914        1.11501064842199
C            8.16000750603237        0.74118381606212        0.63537812868450
C            6.79551414167745        0.96622383599190        0.75301036597422
C            5.66700809691457        0.15391289018722        0.34998181199313
C            5.63563136302931       -1.08911047339641       -0.26544641086372
C            4.39156291799998       -1.62872873691149       -0.54312795785416
C            3.96794713941133       -2.86237122867024       -1.15170758778298
C            4.64513179946981       -3.94676067739576       -1.68664573087609
C            3.90785995716809       -4.98766015467593       -2.22466245048799
C            2.51701424608992       -4.94791443169619       -2.24453871255833
C            1.81905884396720       -3.87566247828718       -1.71761510429316
C            2.55418157269936       -2.84132085647939       -1.15846246039578
N            2.11453403230392       -1.66385479026898       -0.58450846452238
C            0.77333740685685       -1.28316819742080       -0.44927836802841
C           -0.14278409313978       -2.12633571242372        0.18731530222773
C           -1.45836035497665       -1.76631537991896        0.31950535695502
C           -1.92743237062711       -0.52842378865207       -0.18357011728540
C           -3.28667647760756       -0.14982898679876       -0.04813163607700
N           -3.71231412492255        1.03900090730981       -0.54643320075281
C           -4.96733650206903        1.36864148002620       -0.40834655378996
C           -5.43364952156159        2.64613611027720       -0.93128879832137
C           -4.54922763781357        3.50687855512517       -1.58257954743795
C           -4.99695729176972        4.71523243337503       -2.07626588645579
C           -6.32709636822803        5.07980609134071       -1.92738856181591
C           -7.21050553653422        4.22906487096985       -1.28093703946988
C           -6.77012274662759        3.01837961508304       -0.78447642742927
N           -5.86158499794166        0.56445343458759        0.20164774776001
C           -5.40999685913821       -0.61279864127775        0.68179013908584
C           -6.36129194396993       -1.49763882062538        1.34054072742730
C           -5.94089216759738       -2.72041611885412        1.86557552089332
C           -6.84694667544676       -3.55513908155004        2.48710735809953
C           -8.17934086486723       -3.18349857000739        2.59287762091076
C           -8.60320287145442       -1.97011467941528        2.07316796458299
C           -7.70258441190123       -1.12942495279136        1.45012008838029
N           -4.16086329221548       -0.97673803304063        0.57784368195325
C           -1.00880462755997        0.31871142710321       -0.82829768163007
C            0.31649919167712       -0.04743103452311       -0.96601752735068
C            1.19376146854797        0.80685157422984       -1.66938553760059
N            1.88914770441581        1.50969252889975       -2.25215383219905
C            3.20504939264419       -0.92387898164023       -0.20631365385003
C            3.23951633978115        0.30773859660672        0.44778436921266
C            4.47966860231314        0.83622252593759        0.70416592134758
H            4.65177397128653        3.25915277344381       -0.50376841684343
H            3.17655404436858        3.27583265165015        0.45961551175522
H            4.55546403091956        4.27303372323022        0.94220093829545
H            3.16781543834078        2.18330386748691        2.77229793025074
H            4.55186604467102        3.16914970823384        3.25315130447133
H            4.63682766187001        1.40859665928773        3.37758238256376
H            6.83307451346591        4.00566913666298        2.27720444153171
H            9.25581573870533        3.60164971416512        2.06890417944110
H           10.09938873412816        1.54495843577798        1.03286667857081
H            8.53273879307064       -0.16338779521029        0.17865691377761
H            6.54218611046936       -1.61568056390935       -0.52018990615172
H            5.72407363624703       -3.97471058951537       -1.68643217119507
H            4.41743050633355       -5.84183820959364       -2.64452847485183
H            1.97031511326087       -5.76860993791270       -2.68405384216685
H            0.74078059131409       -3.84233429813708       -1.75047758480519
H            0.21268444965940       -3.06196516431339        0.59439188642561
H           -2.16178006061376       -2.41433605728202        0.81715393468998
H           -3.51772978653077        3.20958910700271       -1.69169142206193
H           -4.30940488856178        5.37858100933756       -2.58028561576253
H           -6.67429285709452        6.02619725470168       -2.31519591504152
H           -8.24620334130968        4.51366094502321       -1.16536384736838
H           -7.44565063037991        2.34559915296406       -0.27894028500863
H           -4.90134387971395       -2.99523664111846        1.77555041106728
H           -6.51794829206133       -4.50090165375626        2.89251841827589
H           -8.88596432243098       -3.83934110922657        3.07986645909878
H           -9.64091268036627       -1.68139127219009        2.15566701085601
H           -8.01762486969995       -0.18219246606699        1.04029242642744
H           -1.35609138081289        1.25912085866462       -1.22800682783877
H            2.33299683820919        0.81695524718160        0.73610126014476

 projected vibrational frequencies (cm⁻¹)
eigval :       -0.00    -0.00    -0.00    -0.00     0.00     0.00
eigval :        9.35    11.81    16.48    24.79    27.32    33.06
eigval :       38.49    44.12    52.53    54.33    59.56    81.85
eigval :       95.40    99.04   107.72   111.06   122.32   132.89
eigval :      134.87   141.70   149.56   160.29   184.03   191.18
eigval :      199.51   209.65   218.49   222.38   225.50   238.16
eigval :      247.28   251.57   276.34   288.89   304.06   321.91
eigval :      333.31   350.27   362.20   365.79   366.64   367.21
eigval :      373.82   382.53   384.99   404.67   409.02   415.62
eigval :      436.96   446.61   463.52   487.27   490.67   510.82
eigval :      530.94   537.97   538.27   543.12   546.64   548.60
eigval :      556.16   561.10   578.50   587.36   588.35   595.71
eigval :      602.52   603.77   608.22   638.76   648.33   654.12
eigval :      660.53   662.61   669.34   679.40   688.18   708.57
eigval :      716.09   722.54   729.95   731.02   762.20   763.84
eigval :      773.30   776.62   800.31   801.10   807.64   815.02
eigval :      830.49   846.32   857.25   865.08   869.66   870.50
eigval :      872.14   877.14   893.35   900.66   901.69   902.57
eigval :      910.46   912.08   918.30   921.64   926.16   926.33
eigval :      927.17   929.76   930.26   948.56   961.64   966.50
eigval :      972.83   984.10   990.41  1010.46  1013.54  1059.41
eigval :     1067.16  1070.87  1073.95  1076.31  1077.01  1094.97
eigval :     1101.76  1108.92  1109.87  1127.42  1142.82  1148.01
eigval :     1156.68  1172.85  1173.66  1177.17  1180.07  1180.58
eigval :     1181.59  1182.54  1189.62  1195.32  1204.21  1208.41
eigval :     1216.60  1231.84  1236.79  1256.08  1263.66  1266.37
eigval :     1267.72  1273.83  1278.77  1281.17  1295.52  1330.57
eigval :     1331.51  1333.94  1338.16  1343.43  1358.69  1361.99
eigval :     1389.62  1396.75  1399.74  1413.08  1417.01  1418.62
eigval :     1424.06  1431.20  1438.47  1441.80  1448.46  1460.68
eigval :     1463.89  1465.50  1471.22  1484.19  1484.45  1486.97
eigval :     1494.27  1495.49  1496.79  1506.62  1546.22  1546.61
eigval :     1574.23  1575.12  1577.08  1581.30  1584.03  1587.10
eigval :     1592.25  1595.67  1605.50  2359.92  3030.40  3033.59
eigval :     3035.81  3039.06  3042.73  3047.04  3074.29  3074.54
eigval :     3075.14  3078.46  3079.30  3079.84  3080.20  3082.65
eigval :     3086.04  3087.74  3089.84  3090.34  3091.38  3092.96
eigval :     3094.08  3096.17  3099.22  3099.86  3100.57  3100.63
eigval :     3101.52  3102.45  3108.98

   temp. (K)  partition function   enthalpy   heat capacity  entropy
                                   cal/mol     cal/K/mol   cal/K/mol   J/K/mol
 298.15  VIB  0.195E+19            23230.346    143.886    144.983
         ROT  0.106E+09              888.752      2.981     39.703
         INT  0.206E+27            24119.098    146.866    184.686
         TR   0.148E+29             1481.254      4.968     45.115
         TOT                       25600.3522   151.8345   229.8012   961.4882

       T/K    H(0)-H(T)+PV         H(T)/Eh          T*S/Eh         G(T)/Eh
   ------------------------------------------------------------------------
    298.15    0.407968E-01    0.622845E+00    0.109186E+00    0.513659E+00
   ------------------------------------------------------------------------

         :::::::::::::::::::::::::::::::::::::::::::::::::::::
         ::                  THERMODYNAMIC                  ::
         :::::::::::::::::::::::::::::::::::::::::::::::::::::
         :: total free energy        -120.938758212942 Eh   ::
         ::.................................................::
         :: total energy             -121.452417516308 Eh   ::
         :: zero point energy           0.582048512160 Eh   ::
         :: G(RRHO) w/o ZPVE           -0.068389208794 Eh   ::
         :: G(RRHO) contrib.            0.513659303366 Eh   ::
         :::::::::::::::::::::::::::::::::::::::::::::::::::::

           -------------------------------------------------
          | TOTAL ENERGY             -121.452417516308 Eh   |
          | TOTAL ENTHALPY           -120.829572246127 Eh   |
          | TOTAL FREE ENERGY        -120.938758212942 Eh   |
          | GRADIENT NORM               0.000052790026 Eh/α |
           -------------------------------------------------

 * finished run on 2025/09/13 at 07:21:04.685
