   * xtb version 6.7.1 (edcfbbe) compiled by 'albert@albert-system' on 2024-07-22

   ID    Z sym.   atoms
    1    6 C      1-18, 20-24, 26-32, 34-40, 42-44, 46-48
    2    7 N      19, 25, 33, 41, 45
    3    1 H      49-77

          program call               : xtb data2507/gas/ICBNTrz4/ICBNTrz4_gas_S0_finalOpt.xtbopt.xyz --gfn 2 --spinpol --tblite --uhf 2 --ohess vtight --parallel 40 --molden --ceasefiles --namespace data2507/gas/ICBNTrz4/ICBNTrz4_gas_T1_preOpt
 * total energy  :  -121.4470046 Eh     change        0.4036661E-07 Eh
 * total energy  :  -121.4503141 Eh     change       -0.3309489E-02 Eh
 * total energy  :  -121.4520114 Eh     change       -0.1697277E-02 Eh
 * total energy  :  -121.4521272 Eh     change       -0.1158266E-03 Eh
 * total energy  :  -121.4522331 Eh     change       -0.1058412E-03 Eh
 * total energy  :  -121.4522902 Eh     change       -0.5709439E-04 Eh
 * total energy  :  -121.4523187 Eh     change       -0.2857162E-04 Eh
 * total energy  :  -121.4523338 Eh     change       -0.1509716E-04 Eh
 * total energy  :  -121.4523270 Eh     change        0.6798208E-05 Eh
 * total energy  :  -121.4523389 Eh     change       -0.1190990E-04 Eh
 * total energy  :  -121.4523995 Eh     change       -0.2421817E-05 Eh
 * total energy  :  -121.4524009 Eh     change       -0.1369877E-05 Eh
 * total energy  :  -121.4524027 Eh     change       -0.1815867E-05 Eh
 * total energy  :  -121.4524039 Eh     change       -0.1176098E-05 Eh
 * total energy  :  -121.4524045 Eh     change       -0.6140599E-06 Eh
 * total energy  :  -121.4524050 Eh     change       -0.4699096E-06 Eh
 * total energy  :  -121.4524054 Eh     change       -0.4253793E-06 Eh
 * total energy  :  -121.4524063 Eh     change       -0.8553286E-06 Eh
 * total energy  :  -121.4524063 Eh     change       -0.1552237E-07 Eh
   *** GEOMETRY OPTIMIZATION CONVERGED AFTER 44 ITERATIONS ***

 final structure:
================
77
 xtb: 6.7.1 (edcfbbe)
C            4.23436879894916        3.32628437360257        0.45380007095502
C            4.79403840494070        2.19116870601289        1.31790706133094
C            4.26018409509050        2.29165952854534        2.75010016078284
C            6.30489727078949        2.18557759617486        1.29474969153388
C            7.18028282581730        3.15428218861076        1.73395335212054
C            8.54550786286907        2.93152296519041        1.60695164436538
C            9.02566808349334        1.75577810623858        1.04736976733122
C            8.15467174966807        0.77665560092983        0.60290234154010
C            6.78971359659069        0.99460832825869        0.72834744202078
C            5.66341981257397        0.16472110994858        0.35610520239561
C            5.63508871200277       -1.09384137447667       -0.22704719050448
C            4.39230206876552       -1.64563319138610       -0.48597409074093
C            3.97175744125905       -2.89485953545355       -1.06405579088012
C            4.65209051860356       -3.99002744728789       -1.57236772320269
C            3.91790457548935       -5.04567860571316       -2.08520186952753
C            2.52700177560944       -5.00976284379980       -2.10702877959260
C            1.82597012536864       -3.92692114525248       -1.60645382120465
C            2.55790441952701       -2.87772850104667       -1.07126894881783
N            2.11514845462814       -1.68822519444216       -0.52475379249409
C            0.77381150282071       -1.30347383847477       -0.40492955164901
C           -0.14874598506874       -2.13353768705412        0.23964238151539
C           -1.46454766515987       -1.76874269483673        0.35602402028141
C           -1.92695705628671       -0.53750120657407       -0.16906552271189
C           -3.28576145956270       -0.15240327684836       -0.04787526043452
N           -3.70012338265117        1.03865374352732       -0.55041627231484
C           -4.95422868039024        1.37595271152076       -0.42268238897105
C           -5.40718773989170        2.65947964698985       -0.94255929147706
C           -4.51082252620965        3.51903640559762       -1.57890738487432
C           -4.94556207798312        4.73432735446279       -2.06717180003512
C           -6.27443209748798        5.10712253992374       -1.92762036432407
C           -7.16972854945075        4.25749819498182       -1.29623186424552
C           -6.74239628662430        3.03988762536634       -0.80535117848666
N           -5.85927132336722        0.57492272805371        0.17536087845814
C           -5.41920948147333       -0.60563865025042        0.65800890553197
C           -6.38315821248006       -1.48832167536014        1.30102168484334
C           -5.97547796969370       -2.71500397350684        1.82696397475729
C           -6.89381225086889       -3.54827154253643        2.43220245206806
C           -8.22600080539918       -3.17136600016176        2.52047966221299
C           -8.63728332076204       -1.95413392890472        1.99966949008435
C           -7.72431921134264       -1.11480879912885        1.39298335431647
N           -4.17037478337284       -0.97478103023385        0.56929382701458
C           -1.00189465902343        0.29653759607610       -0.82155945722935
C            0.32291025514505       -0.07594073484014       -0.94627274182860
C            1.20447280721038        0.76258857999225       -1.66311160800048
N            1.90179665736004        1.45242539459545       -2.25903187359043
C            3.20401446484692       -0.93704280342801       -0.16380638429089
C            3.23569928320993        0.30897026910092        0.46266277448000
C            4.47445829286414        0.84901775883099        0.70089725767218
H            4.60988300306160        3.24376303928083       -0.56336101204164
H            3.14901228512649        3.27582118747514        0.42110336884756
H            4.52932435166777        4.29100430307244        0.85971451531977
H            3.17472026487991        2.22868466786820        2.75323993694132
H            4.55413269519776        3.23872594472713        3.19606285776399
H            4.65815432140563        1.48233961816926        3.35895381961210
H            6.81909766825328        4.07419537790047        2.16993725844785
H            9.24269211974463        3.68309006953116        1.94718051968005
H           10.09166005478799        1.60562758739370        0.95805100183969
H            8.52980957546136       -0.13694777879087        0.16658816529587
H            6.54291669775486       -1.62247830406713       -0.47281942600730
H            5.73110627809815       -4.01501195252455       -1.57094473525073
H            4.42990289428032       -5.90857854618940       -2.48373863430452
H            1.98261533289383       -5.84210271268071       -2.52709072360229
H            0.74767590392061       -3.89723833734499       -1.64146337097041
H            0.20159463697392       -3.06253651465581        0.66585797416089
H           -2.17289226096216       -2.40708404945279        0.85916570308695
H           -3.48033214442273        3.21562171713339       -1.68042792570208
H           -4.24874288540726        5.39685217586163       -2.55941787733755
H           -6.61136148709882        6.05908338003349       -2.31084119538932
H           -8.20442566241674        4.54849609917459       -1.18784274485960
H           -7.42723247214186        2.36806057464917       -0.31119791462193
H           -4.93600613500076       -2.99409473288618        1.75022409825828
H           -6.57466945735168       -4.49712202296720        2.83827340415881
H           -8.94229586342659       -3.82618199767667        2.99454611894349
H           -9.67486809559541       -1.66137907356016        2.06837402602957
H           -8.02954942024125       -0.16471356135950        0.98236263441236
H           -1.34413062813006        1.23094862212831       -1.23930732172635
H            2.32823206915214        0.82064516213363        0.74356604486997

 projected vibrational frequencies (cm⁻¹)
eigval :       -0.00     0.00     0.00     0.00     0.00     0.00
eigval :        9.18    11.76    15.76    24.63    27.05    33.04
eigval :       38.34    44.12    52.78    54.33    59.63    82.05
eigval :       95.46    99.01   107.80   111.21   122.38   132.83
eigval :      135.31   141.93   149.65   160.27   184.16   191.11
eigval :      199.77   209.45   218.22   222.29   225.45   238.31
eigval :      247.13   251.78   276.30   288.71   304.06   322.00
eigval :      333.04   350.11   362.68   365.79   366.61   367.52
eigval :      373.97   382.62   385.13   404.72   408.88   415.81
eigval :      437.08   446.67   463.55   487.13   490.51   510.84
eigval :      531.00   537.97   538.12   543.07   546.50   548.59
eigval :      556.38   561.26   578.57   587.31   588.26   595.59
eigval :      602.48   603.76   608.28   638.60   648.23   654.05
eigval :      660.45   662.59   669.16   679.37   688.20   708.50
eigval :      716.25   722.53   730.36   731.16   762.18   763.83
eigval :      773.29   776.60   800.40   801.12   807.62   813.72
eigval :      830.54   846.37   857.30   865.22   869.62   870.48
eigval :      871.97   877.10   893.11   900.45   901.70   902.48
eigval :      910.43   911.82   918.08   921.75   926.07   926.31
eigval :      927.13   929.61   930.24   948.62   960.98   966.72
eigval :      972.79   984.34   992.94  1010.41  1013.57  1059.54
eigval :     1067.62  1070.79  1074.02  1076.17  1076.71  1094.99
eigval :     1101.66  1109.15  1110.12  1127.12  1142.10  1147.93
eigval :     1156.72  1172.41  1173.66  1177.49  1179.98  1180.47
eigval :     1181.53  1182.92  1189.45  1194.84  1204.02  1207.77
eigval :     1216.71  1231.91  1236.72  1255.82  1263.64  1266.37
eigval :     1267.70  1273.70  1278.85  1281.13  1295.11  1330.58
eigval :     1331.51  1333.94  1337.87  1343.15  1359.03  1361.90
eigval :     1388.80  1396.69  1399.26  1412.61  1416.54  1418.31
eigval :     1424.00  1430.74  1438.42  1441.72  1447.71  1460.36
eigval :     1463.77  1465.18  1470.78  1484.00  1484.41  1486.93
eigval :     1494.42  1495.36  1496.65  1506.42  1545.88  1546.58
eigval :     1574.09  1574.95  1576.86  1581.19  1583.99  1586.98
eigval :     1592.20  1595.50  1605.44  2359.36  3030.19  3033.40
eigval :     3035.55  3038.73  3042.25  3046.59  3073.93  3074.20
eigval :     3074.73  3078.06  3078.89  3079.77  3079.79  3082.38
eigval :     3085.54  3087.47  3089.33  3089.78  3090.97  3092.55
eigval :     3093.72  3095.73  3098.82  3099.34  3100.03  3100.41
eigval :     3101.17  3101.93  3108.55

   temp. (K)  partition function   enthalpy   heat capacity  entropy
                                   cal/mol     cal/K/mol   cal/K/mol   J/K/mol
 298.15  VIB  0.209E+19            23230.848    143.886    145.035
         ROT  0.106E+09              888.752      2.981     39.700
         INT  0.222E+27            24119.601    146.867    184.736
         TR   0.148E+29             1481.254      4.968     45.115
         TOT                       25600.8545   151.8353   229.8511   961.6969

       T/K    H(0)-H(T)+PV         H(T)/Eh          T*S/Eh         G(T)/Eh
   ------------------------------------------------------------------------
    298.15    0.407976E-01    0.622797E+00    0.109210E+00    0.513587E+00
   ------------------------------------------------------------------------

         :::::::::::::::::::::::::::::::::::::::::::::::::::::
         ::                  THERMODYNAMIC                  ::
         :::::::::::::::::::::::::::::::::::::::::::::::::::::
         :: total free energy        -120.938818994682 Eh   ::
         ::.................................................::
         :: total energy             -121.452406232599 Eh   ::
         :: zero point energy           0.581999344721 Eh   ::
         :: G(RRHO) w/o ZPVE           -0.068412106804 Eh   ::
         :: G(RRHO) contrib.            0.513587237917 Eh   ::
         :::::::::::::::::::::::::::::::::::::::::::::::::::::

           -------------------------------------------------
          | TOTAL ENERGY             -121.452406232599 Eh   |
          | TOTAL ENTHALPY           -120.829609329351 Eh   |
          | TOTAL FREE ENERGY        -120.938818994682 Eh   |
          | GRADIENT NORM               0.000112242406 Eh/α |
           -------------------------------------------------

 * finished run on 2025/09/13 at 07:14:04.341
