   * xtb version 6.7.1 (edcfbbe) compiled by 'albert@albert-system' on 2024-07-22

   ID    Z sym.   atoms
    1    6 C      1-18, 20-24, 26-32, 34-40, 42-44, 46-48
    2    7 N      19, 25, 33, 41, 45
    3    1 H      49-77

          program call               : xtb data2507/gas/ICBNTrz4/ICBNTrz4.xyz --gfn 2 --ohess vtight --parallel 40 --molden --ceasefiles --namespace data2507/gas/ICBNTrz4/ICBNTrz4_gas_S0_preOpt
          :  Hamiltonian                  GFN2-xTB          :
 * total energy  :  -121.5075200 Eh     change       -0.2102439E-08 Eh
 * total energy  :  -121.5190819 Eh     change       -0.1156183E-01 Eh
 * total energy  :  -121.5207888 Eh     change       -0.1706949E-02 Eh
 * total energy  :  -121.5223153 Eh     change       -0.1526501E-02 Eh
 * total energy  :  -121.5233326 Eh     change       -0.1017333E-02 Eh
 * total energy  :  -121.5237161 Eh     change       -0.3834411E-03 Eh
 * total energy  :  -121.5239646 Eh     change       -0.2485046E-03 Eh
 * total energy  :  -121.5241151 Eh     change       -0.1504784E-03 Eh
 * total energy  :  -121.5242049 Eh     change       -0.8981529E-04 Eh
 * total energy  :  -121.5242831 Eh     change       -0.7827485E-04 Eh
 * total energy  :  -121.5244866 Eh     change       -0.3482171E-06 Eh
 * total energy  :  -121.5244869 Eh     change       -0.3168864E-06 Eh
 * total energy  :  -121.5244872 Eh     change       -0.2603723E-06 Eh
 * total energy  :  -121.5244874 Eh     change       -0.2233856E-06 Eh
 * total energy  :  -121.5244876 Eh     change       -0.1881226E-06 Eh
 * total energy  :  -121.5244878 Eh     change       -0.2048690E-06 Eh
 * total energy  :  -121.5244880 Eh     change       -0.2482674E-06 Eh
 * total energy  :  -121.5244884 Eh     change       -0.3312596E-06 Eh
 * total energy  :  -121.5244884 Eh     change       -0.1132832E-08 Eh
   *** GEOMETRY OPTIMIZATION CONVERGED AFTER 68 ITERATIONS ***

 final structure:
================
77
 xtb: 6.7.1 (edcfbbe)
C            4.20977803646412        3.13994417753808        0.29317364577079
C            4.71550806222017        1.96834208599268        1.14145328745049
C            4.16171406221170        2.05761956665117        2.56656889081985
C            6.22620437564672        1.91142737007400        1.14151140414135
C            7.12571442523708        2.83962808366785        1.61911621324686
C            8.48439850079502        2.57437284958024        1.50946162162594
C            8.93246023615507        1.39809634262343        0.92915010577196
C            8.03477025833442        0.46019332275474        0.44572071728756
C            6.67885287960042        0.72135057969641        0.55454858711262
C            5.52586915073793       -0.06416926685741        0.14602735970109
C            5.45899188355495       -1.30531042753001       -0.45751145508794
C            4.19601503500384       -1.81029466230887       -0.73807567056171
C            3.74688322205539       -3.04588826119049       -1.32036596620654
C            4.40973937736761       -4.14770634407731       -1.84279827501163
C            3.66111351304891       -5.18630174409493       -2.36104281996963
C            2.27051182379190       -5.12696268973783       -2.37889298570200
C            1.58831609285368       -4.03905695319493       -1.86564984251949
C            2.33556496915597       -3.00793271495609       -1.31843063395286
N            1.91515244265681       -1.80359844085622       -0.77583786346462
C            0.59295995713985       -1.40236388841052       -0.63145103616445
C           -0.33689858471593       -2.25255720526990       -0.03172241289420
C           -1.64965083283845       -1.86491556250744        0.12329847304379
C           -2.07526012975543       -0.61052894988843       -0.31829253077136
C           -3.46903143874930       -0.19897279371265       -0.14869120692432
N           -3.83177323422235        0.98040304674676       -0.64088478364864
C           -5.11011799462261        1.31164280496983       -0.47210157478917
C           -5.56505513588203        2.59227106845284       -1.01071028404987
C           -4.68219456300882        3.41197650534016       -1.71173352219382
C           -5.11734917461674        4.61922919924700       -2.22244404526626
C           -6.43214024312271        5.01855423385452       -2.03873171562612
C           -7.31418437987423        4.20713479585619       -1.34171107732110
C           -6.88590092304524        2.99844613720474       -0.82881527322747
N           -5.99652630468519        0.54533128907100        0.15674279443528
C           -5.54488812195267       -0.61457894738200        0.62343614658314
C           -6.48404906667552       -1.48615258666271        1.32813834282718
C           -6.05113097184197       -2.69942019125023        1.86008685197709
C           -6.94087021313337       -3.51911357629544        2.52641852221440
C           -8.26610454769174       -3.13739173650764        2.66759457837716
C           -8.70186230142537       -1.93153509443873        2.14029964760807
C           -7.81729251988135       -1.10701550407756        1.47296985192618
N           -4.28755059257666       -1.03061513869654        0.48683694086453
C           -1.16433406994156        0.24434830572946       -0.92528961596293
C            0.16173555908773       -0.14197311207123       -1.08950564271465
C            1.03624007228541        0.72997385903966       -1.77967416983994
N            1.70414793490694        1.45178891971256       -2.36906308064985
C            3.03560965451720       -1.06985424477160       -0.41788912692920
C            3.10326497617621        0.15706497824013        0.23096530168868
C            4.36055775748151        0.65112203685738        0.49094626283726
H            4.60687584599866        3.06946194253121       -0.71671796264145
H            3.12415704486139        3.12444951948936        0.23454621150199
H            4.52499943643279        4.08540870132025        0.72843908138097
H            3.07440691063525        2.03684282931076        2.55219562955901
H            4.48466266464257        2.98219591710012        3.03916090072026
H            4.51860837191473        1.21988728929866        3.16235080621939
H            6.78756827015751        3.76041679227790        2.07220725411812
H            9.20052094559210        3.29328004734328        1.88027643384982
H            9.99408474218284        1.21194015684612        0.85328841536677
H            8.38675422583738       -0.45501001027620       -0.00681613570171
H            6.34771861793182       -1.86667487939271       -0.70043207526117
H            5.48837495810129       -4.18453575468119       -1.84731200941137
H            4.15742702227455       -6.05373870056976       -2.76970375321306
H            1.71096731498399       -5.94541828972203       -2.80687352656848
H            0.51018045796372       -3.99548808067678       -1.90539040756589
H           -0.00384130357444       -3.21267834759053        0.33279057770936
H           -2.36654584510257       -2.51701462074774        0.59611093080691
H           -3.66316692854251        3.08555408559264       -1.84718265143389
H           -4.43196958132539        5.25251277912639       -2.76626737002930
H           -6.76996699914563        5.96306149346289       -2.43952825965800
H           -8.33805516872745        4.52063285295748       -1.19987600492110
H           -7.55762270353846        2.35413355698066       -0.28385188169187
H           -5.01633988901835       -2.97980827663772        1.74199453333288
H           -6.60365148669765       -4.45895021306502        2.93848061220018
H           -8.95993507755872       -3.78032479433474        3.18922541799950
H           -9.73489665030798       -1.63641378685890        2.25161458305333
H           -8.13816611605996       -0.16563170896426        1.05573163008833
H           -1.49634135524763        1.20850381707354       -1.27814643742429
H            2.21528436110995        0.69735416067580        0.52253252175573

          :  Hamiltonian                  GFN2-xTB          :
         :: gradient norm              0.000034943233 Eh/a0 ::
         :: HOMO-LUMO gap              1.788982770831 eV    ::
         :: SCC energy              -123.775974577861 Eh    ::
         :: -> dispersion             -0.106297964693 Eh    ::
         :: repulsion energy           2.251486220910 Eh    ::

    * Orbital Energies and Occupations

         #    Occupation            Energy/Eh            Energy/eV
      -------------------------------------------------------------
         1        2.0000           -0.6894597             -18.7612
       ...           ...                  ...                  ...
       101        2.0000           -0.4156011             -11.3091
       102        2.0000           -0.4150136             -11.2931
       103        2.0000           -0.4142507             -11.2723
       104        2.0000           -0.4118466             -11.2069
       105        2.0000           -0.4106559             -11.1745
       106        2.0000           -0.4104593             -11.1692
       107        2.0000           -0.4084194             -11.1137
       108        2.0000           -0.3952131             -10.7543
       109        2.0000           -0.3905466             -10.6273
       110        2.0000           -0.3775171             -10.2728
       111        2.0000           -0.3767457             -10.2518
       112        2.0000           -0.3760645             -10.2332
       113        2.0000           -0.3620880              -9.8529 (HOMO)
       114                         -0.2963441              -8.0639 (LUMO)
       115                         -0.2909817              -7.9180
       116                         -0.2760928              -7.5129
       117                         -0.2539675              -6.9108
       118                         -0.2462071              -6.6996
       119                         -0.2427733              -6.6062
       120                         -0.2326470              -6.3306
       121                         -0.2312679              -6.2931
       122                         -0.2205319              -6.0010
       123                         -0.2149587              -5.8493
       124                         -0.2110761              -5.7437
       ...                                ...                  ...
       221                          1.1653018              31.7095
      -------------------------------------------------------------
                  HL-Gap            0.0657439 Eh            1.7890 eV

     #   Z          covCN         q      C6AA      α(0)
     1   6 C        3.759    -0.099    22.441     6.754
     2   6 C        3.935     0.019    20.185     6.385
     3   6 C        3.758    -0.098    22.418     6.750
     4   6 C        3.054    -0.001    28.007     8.679
     5   6 C        2.915    -0.034    28.836     8.806
     6   6 C        2.922    -0.034    28.839     8.807
     7   6 C        2.921    -0.033    28.831     8.805
     8   6 C        2.915    -0.035    28.863     8.810
     9   6 C        3.036     0.001    27.966     8.674
    10   6 C        3.036    -0.006    28.139     8.701
    11   6 C        2.909    -0.037    28.908     8.816
    12   6 C        3.068    -0.017    28.364     8.733
    13   6 C        3.067    -0.012    28.256     8.716
    14   6 C        2.913    -0.032    28.789     8.798
    15   6 C        2.920    -0.039    28.959     8.825
    16   6 C        2.924    -0.033    28.819     8.804
    17   6 C        2.910    -0.050    29.243     8.867
    18   6 C        3.067     0.046    26.900     8.505
    19   7 N        2.802    -0.041    22.038     6.972
    20   6 C        2.915     0.077    26.279     8.406
    21   6 C        2.920    -0.041    29.030     8.835
    22   6 C        2.922    -0.019    28.493     8.753
    23   6 C        2.982    -0.002    28.070     8.691
    24   6 C        2.985     0.202    23.719     7.989
    25   7 N        1.844    -0.296    28.528     7.916
    26   6 C        2.982     0.203    23.687     7.983
    27   6 C        2.984    -0.000    28.031     8.685
    28   6 C        2.924    -0.023    28.568     8.765
    29   6 C        2.918    -0.027    28.669     8.780
    30   6 C        2.920    -0.022    28.563     8.764
    31   6 C        2.918    -0.027    28.675     8.781
    32   6 C        2.924    -0.023    28.579     8.767
    33   7 N        1.844    -0.292    28.421     7.901
    34   6 C        2.982     0.203    23.694     7.985
    35   6 C        2.984    -0.000    28.027     8.684
    36   6 C        2.924    -0.023    28.583     8.767
    37   6 C        2.918    -0.027    28.680     8.782
    38   6 C        2.920    -0.023    28.571     8.765
    39   6 C        2.918    -0.027    28.673     8.781
    40   6 C        2.924    -0.023    28.576     8.766
    41   7 N        1.844    -0.296    28.533     7.916
    42   6 C        2.934    -0.017    28.435     8.745
    43   6 C        2.972     0.005    27.907     8.665
    44   6 C        1.912     0.117    28.212     8.578
    45   7 N        0.911    -0.232    26.074     7.385
    46   6 C        3.071     0.045    26.918     8.507
    47   6 C        2.907    -0.049    29.212     8.862
    48   6 C        3.061     0.001    27.948     8.669
    49   1 H        0.925     0.043     2.410     2.428
    50   1 H        0.925     0.042     2.422     2.434
    51   1 H        0.925     0.040     2.442     2.444
    52   1 H        0.925     0.038     2.479     2.462
    53   1 H        0.925     0.041     2.431     2.438
    54   1 H        0.925     0.035     2.522     2.483
    55   1 H        0.926     0.027     2.633     2.538
    56   1 H        0.926     0.028     2.617     2.530
    57   1 H        0.926     0.028     2.618     2.530
    58   1 H        0.926     0.029     2.603     2.523
    59   1 H        0.926     0.036     2.502     2.474
    60   1 H        0.926     0.035     2.521     2.483
    61   1 H        0.926     0.031     2.567     2.506
    62   1 H        0.926     0.032     2.563     2.504
    63   1 H        0.926     0.027     2.630     2.536
    64   1 H        0.926     0.052     2.295     2.369
    65   1 H        0.926     0.066     2.130     2.282
    66   1 H        0.926     0.055     2.259     2.350
    67   1 H        0.926     0.039     2.457     2.451
    68   1 H        0.926     0.038     2.470     2.458
    69   1 H        0.926     0.038     2.475     2.460
    70   1 H        0.926     0.055     2.253     2.347
    71   1 H        0.926     0.054     2.272     2.357
    72   1 H        0.926     0.038     2.480     2.462
    73   1 H        0.926     0.038     2.475     2.460
    74   1 H        0.926     0.038     2.473     2.459
    75   1 H        0.926     0.056     2.247     2.344
    76   1 H        0.926     0.068     2.112     2.273
    77   1 H        0.926     0.024     2.676     2.558

molecular dipole:
                 x           y           z       tot (Debye)
 q only:       -0.968      -0.323       0.714
   full:       -1.371      -0.596       0.919       4.460

 projected vibrational frequencies (cm⁻¹)
eigval :       -0.00    -0.00     0.00     0.00     0.00     0.00
eigval :        5.24    12.19    16.43    17.08    23.20    34.07
eigval :       39.57    45.39    54.84    57.03    60.95    82.56
eigval :       90.35    96.29   105.81   111.61   123.47   134.83
eigval :      137.00   143.91   153.40   161.60   182.03   186.34
eigval :      202.96   205.61   211.84   219.81   228.52   244.69
eigval :      254.28   261.98   286.83   293.40   306.53   327.01
eigval :      334.39   356.69   359.55   363.82   364.58   372.25
eigval :      376.23   401.52   407.18   417.21   424.55   433.55
eigval :      443.46   463.43   466.58   489.59   500.20   513.20
eigval :      536.25   541.99   544.26   550.22   557.76   562.88
eigval :      578.49   586.65   587.66   592.45   610.94   613.96
eigval :      622.99   626.82   644.84   647.54   651.28   670.33
eigval :      673.71   674.76   687.80   699.59   708.52   718.27
eigval :      722.43   734.82   752.14   767.86   775.41   775.47
eigval :      779.48   795.22   802.12   830.64   845.99   846.52
eigval :      847.52   871.03   873.23   874.73   876.91   878.78
eigval :      890.12   903.38   906.51   909.59   909.65   911.16
eigval :      921.39   926.91   929.21   930.45   932.83   933.92
eigval :      934.15   936.68   950.14   966.01   974.50   984.58
eigval :      990.59  1013.21  1013.72  1048.24  1068.35  1074.26
eigval :     1074.99  1075.78  1079.07  1088.52  1101.34  1105.92
eigval :     1108.50  1112.27  1134.17  1149.30  1154.53  1166.86
eigval :     1173.87  1174.62  1180.19  1180.87  1181.13  1182.76
eigval :     1188.63  1203.16  1203.92  1208.78  1212.95  1216.49
eigval :     1230.32  1235.32  1240.47  1264.31  1268.52  1269.30
eigval :     1271.94  1277.88  1314.06  1323.17  1328.31  1329.87
eigval :     1342.49  1348.26  1357.71  1364.85  1372.54  1373.29
eigval :     1390.94  1396.46  1409.52  1412.92  1425.94  1429.76
eigval :     1432.60  1433.93  1445.93  1464.71  1467.86  1474.34
eigval :     1477.40  1479.77  1485.93  1488.29  1497.01  1498.52
eigval :     1508.17  1508.73  1516.94  1547.85  1570.72  1576.76
eigval :     1583.63  1585.90  1586.77  1593.55  1594.81  1595.55
eigval :     1601.93  1605.08  1613.37  2369.83  3028.74  3030.01
eigval :     3033.34  3036.25  3039.59  3044.98  3069.34  3073.66
eigval :     3075.64  3076.12  3078.27  3081.45  3081.83  3081.94
eigval :     3082.60  3083.43  3089.43  3090.71  3090.98  3091.57
eigval :     3094.36  3094.78  3098.77  3107.41  3107.72  3107.85
eigval :     3109.42  3109.94  3114.12

   temp. (K)  partition function   enthalpy   heat capacity  entropy
                                   cal/mol     cal/K/mol   cal/K/mol   J/K/mol
 298.15  VIB  0.348E+19            22893.182    141.459    144.096
         ROT  0.106E+09              888.752      2.981     39.698
         INT  0.368E+27            23781.935    144.440    183.795
         TR   0.148E+29             1481.254      4.968     45.115
         TOT                       25263.1886   149.4079   228.9101   957.7599

       T/K    H(0)-H(T)+PV         H(T)/Eh          T*S/Eh         G(T)/Eh
   ------------------------------------------------------------------------
    298.15    0.402595E-01    0.627237E+00    0.108763E+00    0.518474E+00
   ------------------------------------------------------------------------

         :::::::::::::::::::::::::::::::::::::::::::::::::::::
         ::                  THERMODYNAMIC                  ::
         :::::::::::::::::::::::::::::::::::::::::::::::::::::
         :: total free energy        -121.006014005622 Eh   ::
         ::.................................................::
         :: total energy             -121.524488356940 Eh   ::
         :: zero point energy           0.586977473928 Eh   ::
         :: G(RRHO) w/o ZPVE           -0.068503122610 Eh   ::
         :: G(RRHO) contrib.            0.518474351318 Eh   ::
         :::::::::::::::::::::::::::::::::::::::::::::::::::::

           -------------------------------------------------
          | TOTAL ENERGY             -121.524488356940 Eh   |
          | TOTAL ENTHALPY           -120.897251429345 Eh   |
          | TOTAL FREE ENERGY        -121.006014005622 Eh   |
          | GRADIENT NORM               0.000034933795 Eh/α |
          | HOMO-LUMO GAP               1.788982741964 eV   |
           -------------------------------------------------

 * finished run on 2025/09/13 at 07:10:00.634
