   * xtb version 6.7.1 (edcfbbe) compiled by 'albert@albert-system' on 2024-07-22

   ID    Z sym.   atoms
    1    6 C      1-9, 11-21, 23-39, 41, 43-50
    2    7 N      10, 22, 40, 42
    3    1 H      51-88

          program call               : xtb data2507/toluene/AcHPM/AcHPM_toluene_S0_crest.xyz --gfn 2 --gbsa toluene --ohess vtight --parallel 40 --molden --ceasefiles --namespace data2507/toluene/AcHPM/AcHPM_toluene_S0_finalOpt
      * Solvation model:               GBSA
        Solvent                        toluene
        Solvent mass                       9.2140E+01 g/mol
          :  Hamiltonian                  GFN2-xTB          :
 * total energy  :  -129.6930363 Eh     change       -0.2902397E-08 Eh
 * total energy  :  -129.6930741 Eh     change       -0.3780720E-04 Eh
 * total energy  :  -129.6930878 Eh     change       -0.1370030E-04 Eh
 * total energy  :  -129.6930953 Eh     change       -0.7501944E-05 Eh
 * total energy  :  -129.6931025 Eh     change       -0.7260302E-05 Eh
 * total energy  :  -129.6931080 Eh     change       -0.5509590E-05 Eh
 * total energy  :  -129.6931137 Eh     change       -0.5704776E-05 Eh
 * total energy  :  -129.6931203 Eh     change       -0.6526816E-05 Eh
 * total energy  :  -129.6931272 Eh     change       -0.6897794E-05 Eh
 * total energy  :  -129.6931333 Eh     change       -0.6131024E-05 Eh
 * total energy  :  -129.6931508 Eh     change       -0.4028066E-05 Eh
 * total energy  :  -129.6931520 Eh     change       -0.1205035E-05 Eh
 * total energy  :  -129.6931527 Eh     change       -0.6915636E-06 Eh
 * total energy  :  -129.6931534 Eh     change       -0.6909129E-06 Eh
 * total energy  :  -129.6931540 Eh     change       -0.5868641E-06 Eh
 * total energy  :  -129.6931545 Eh     change       -0.5097147E-06 Eh
 * total energy  :  -129.6931553 Eh     change       -0.7436144E-06 Eh
 * total energy  :  -129.6931563 Eh     change       -0.1063689E-05 Eh
 * total energy  :  -129.6931563 Eh     change       -0.9175523E-08 Eh
   *** GEOMETRY OPTIMIZATION CONVERGED AFTER 22 ITERATIONS ***

 final structure:
================
88
 xtb: 6.7.1 (edcfbbe)
C          -10.17249517180259       -0.92330689625220       -0.95488179195156
C           -8.96641917641517       -1.44544285592613       -0.15155177217230
C           -9.35059798928886       -2.72534019201797        0.61475571510451
C           -8.55264679201377       -0.38629732529321        0.85338210781637
C           -9.46110850342713        0.03371014414191        1.81580041757674
C           -9.13605361003241        0.97835668792621        2.77204667434847
C           -7.86213384729148        1.51751848332829        2.78327611791270
C           -6.93977957069542        1.11877486993939        1.83844219495250
C           -7.27284160362607        0.17904503499977        0.85801277575391
N           -6.32436456134811       -0.19820198785676       -0.08147472881721
C           -5.03986799501878        0.40747816292691       -0.04977274465097
C           -4.85837840460972        1.69416049958999       -0.54813221680573
C           -3.60711875779037        2.27504851095842       -0.51950804872089
C           -2.51191259259788        1.58063820337324       -0.00402045891309
C           -1.19435360156222        2.22572752153929       -0.00286032958332
C           -0.00040314369251        1.50544065148800        0.00131736093720
C            1.19344251889716        2.22597540938399        0.00076088241179
C            2.51125623037312        1.58146079290691        0.00377473510129
C            3.60784375345702        2.28107831345317        0.50929589842937
C            4.85960263952614        1.70131453093013        0.53861895856699
C            5.04025009964787        0.41036645053370        0.05108833848653
N            6.32521351898979       -0.19422997524202        0.08305110606612
C            6.60059184649967       -1.13627089989993        1.06327002404524
C            5.62710493089444       -1.44662714067173        2.01799633322084
C            5.86851364025664       -2.38264406358680        3.00184526864631
C            7.09304591883768       -3.02383696678702        3.05629318553178
C            8.06430470902572       -2.70409806954949        2.12513953482384
C            7.84867489374129       -1.76566564481094        1.12478511017512
C            8.96553313604716       -1.44543371191100        0.14878433248766
C           10.17735287726010       -0.92209472909412        0.94259375063914
C            9.34205354635179       -2.73082309444683       -0.61218025970191
C            8.54906657771111       -0.39141757569962       -0.86041804777269
C            9.45385256037354        0.02102551296327       -1.82954028997963
C            9.12575280567300        0.95958488151721       -2.79072125157586
C            7.85234820712142        1.49998903683621       -2.80021027044731
C            6.93368289891515        1.10889204305898       -1.84860149939006
C            7.26992404024503        0.17545881758219       -0.86324698327586
C            3.95556699400408       -0.28675045750035       -0.47115813873009
C            2.70189495929079        0.29200327988012       -0.49220073112280
N            1.17835049669979        3.56444745143189        0.01342273215860
C           -0.00075218196471        4.14945981748504       -0.00606011861770
N           -1.17974575533834        3.56408405109671       -0.02286475398591
C           -2.70342063228262        0.29561974836542        0.50290929331727
C           -3.95667123870023       -0.28414028561044        0.48273392115763
C           -6.59639852189306       -1.14670853236928       -1.05636112499996
C           -5.61864149106488       -1.46558531630263       -2.00389170985991
C           -5.85689354761813       -2.40782188784584       -2.98255829849952
C           -7.08235244521099       -3.04707299785469       -3.03881717836563
C           -8.05758983543761       -2.71933061513339       -2.11462502267384
C           -7.84524133145785       -1.77442472816395       -1.11967001156006
H           -9.89383414715863       -0.02170251384754       -1.49807549999819
H          -10.51119827238841       -1.66498086665567       -1.67291189895709
H          -11.00246165425741       -0.68394665971939       -0.29598108035642
H           -8.49595520254172       -3.08697795971976        1.18439669363263
H           -9.66235301329937       -3.50873014633032       -0.07055595044819
H          -10.16629746506432       -2.53317100500712        1.30619526059876
H          -10.45506659615545       -0.38745837938604        1.82643520439909
H           -9.86860880747714        1.28365382315397        3.50415847707905
H           -7.58152556778812        2.24744957129059        3.52853418578249
H           -5.94535253788544        1.53766074582045        1.86008219547115
H           -5.70361308789618        2.23029506469845       -0.95350875486933
H           -3.45310693061487        3.27195015672659       -0.90191314486865
H           -0.00045601399539        0.42895318353760        0.00445856065325
H            3.45446290003197        3.28119299043763        0.88346348709936
H            5.70587466129306        2.24165184884800        0.93618018695325
H            4.67315706463893       -0.94276009683916        1.98995689677529
H            5.09888957877185       -2.60623217875028        3.72628792990333
H            7.29458679470814       -3.76006284315081        3.82002102845513
H            9.01927283740407       -3.20377437118842        2.18619811719054
H            9.90338095076413       -0.01823758438075        1.48441465112223
H           10.51963909545840       -1.66174173469794        1.66101151680388
H           11.00354696200858       -0.68618589754861        0.27772938167364
H            8.48404830174380       -3.09208845533270       -1.17698843167321
H            9.65310515142585       -3.51187396234574        0.07612742709871
H           10.15608597244006       -2.54535742998250       -1.30742320581353
H           10.44717310902495       -0.40159117113635       -1.84181147333837
H            9.85542108763930        1.25901064561595       -3.52811708959716
H            7.56928519730534        2.22484392939428       -3.54948671742027
H            5.93960312595862        1.52865480857524       -1.86891959997203
H            4.10452908188458       -1.28373212422141       -0.85893682199353
H            1.87738818242318       -0.25471603506733       -0.92356485272377
H           -0.00089527940230        5.23348199218498       -0.00868549341640
H           -1.87994992424803       -0.24655257316634        0.94196040098260
H           -4.10639121136030       -1.27764496856793        0.87904253395642
H           -4.66385379655089       -0.96341090117128       -1.97446523933386
H           -5.08404646334770       -2.63781595358023       -3.70154346274197
H           -7.28147974936027       -3.78800662966972       -3.79861449396269
H           -9.01313869249306       -3.21774203622883       -2.17700096984360

          :  Hamiltonian                  GFN2-xTB          :
         :: gradient norm              0.000072690536 Eh/a0 ::
         :: HOMO-LUMO gap              1.456221288133 eV    ::
         :: SCC energy              -132.021347748807 Eh    ::
         :: -> dispersion             -0.120234802373 Eh    ::
         :: -> Gsolv                  -0.052214486202 Eh    ::
         :: repulsion energy           2.328191407168 Eh    ::

    * Orbital Energies and Occupations

         #    Occupation            Energy/Eh            Energy/eV
      -------------------------------------------------------------
         1        2.0000           -0.6859309             -18.6651
       ...           ...                  ...                  ...
       109        2.0000           -0.4064825             -11.0610
       110        2.0000           -0.4063849             -11.0583
       111        2.0000           -0.4056260             -11.0376
       112        2.0000           -0.4051370             -11.0243
       113        2.0000           -0.4028559             -10.9623
       114        2.0000           -0.4028491             -10.9621
       115        2.0000           -0.3973391             -10.8121
       116        2.0000           -0.3973322             -10.8120
       117        2.0000           -0.3919854             -10.6665
       118        2.0000           -0.3919766             -10.6662
       119        2.0000           -0.3749735             -10.2035
       120        2.0000           -0.3462804              -9.4228
       121        2.0000           -0.3461807              -9.4201 (HOMO)
       122                         -0.2926655              -7.9638 (LUMO)
       123                         -0.2717245              -7.3940
       124                         -0.2404553              -6.5431
       125                         -0.2404360              -6.5426
       126                         -0.2339389              -6.3658
       127                         -0.2237664              -6.0890
       128                         -0.2237572              -6.0887
       129                         -0.2189268              -5.9573
       130                         -0.2186585              -5.9500
       131                         -0.2175842              -5.9208
       132                         -0.2175699              -5.9204
       ...                                ...                  ...
       238                          0.6786151              18.4661
      -------------------------------------------------------------
                  HL-Gap            0.0535151 Eh            1.4562 eV

     #   Z          covCN         q      C6AA      α(0)
     1   6 C        3.761    -0.103    22.521     6.765
     2   6 C        3.908     0.021    20.165     6.383
     3   6 C        3.761    -0.103    22.518     6.765
     4   6 C        2.979    -0.014    28.357     8.735
     5   6 C        2.928    -0.038    28.936     8.822
     6   6 C        2.917    -0.046    29.151     8.854
     7   6 C        2.919    -0.035    28.866     8.810
     8   6 C        2.924    -0.060    29.493     8.906
     9   6 C        2.927     0.058    26.693     8.473
    10   7 N        2.754    -0.073    22.655     7.069
    11   6 C        2.927     0.075    26.335     8.416
    12   6 C        2.919    -0.036    28.889     8.814
    13   6 C        2.925    -0.023    28.584     8.768
    14   6 C        2.979     0.001    28.005     8.681
    15   6 C        2.978     0.113    25.504     8.284
    16   6 C        2.912    -0.066    29.635     8.927
    17   6 C        2.978     0.113    25.505     8.284
    18   6 C        2.978     0.001    28.006     8.681
    19   6 C        2.925    -0.023    28.585     8.768
    20   6 C        2.919    -0.036    28.889     8.814
    21   6 C        2.927     0.075    26.335     8.416
    22   7 N        2.754    -0.073    22.655     7.069
    23   6 C        2.927     0.058    26.692     8.473
    24   6 C        2.924    -0.060    29.502     8.907
    25   6 C        2.919    -0.035    28.872     8.811
    26   6 C        2.917    -0.047    29.155     8.854
    27   6 C        2.928    -0.038    28.935     8.821
    28   6 C        2.979    -0.014    28.354     8.735
    29   6 C        3.909     0.021    20.165     6.383
    30   6 C        3.761    -0.103    22.521     6.765
    31   6 C        3.761    -0.103    22.518     6.765
    32   6 C        2.979    -0.014    28.357     8.735
    33   6 C        2.928    -0.038    28.936     8.822
    34   6 C        2.917    -0.046    29.151     8.854
    35   6 C        2.919    -0.035    28.866     8.810
    36   6 C        2.924    -0.060    29.493     8.906
    37   6 C        2.927     0.058    26.693     8.473
    38   6 C        2.920    -0.037    28.926     8.820
    39   6 C        2.922    -0.030    28.761     8.795
    40   7 N        1.841    -0.272    27.902     7.828
    41   6 C        2.904     0.157    24.604     8.133
    42   7 N        1.841    -0.272    27.902     7.828
    43   6 C        2.922    -0.030    28.761     8.795
    44   6 C        2.920    -0.037    28.926     8.820
    45   6 C        2.927     0.058    26.692     8.473
    46   6 C        2.924    -0.060    29.502     8.907
    47   6 C        2.919    -0.035    28.872     8.811
    48   6 C        2.917    -0.047    29.156     8.854
    49   6 C        2.928    -0.038    28.935     8.821
    50   6 C        2.979    -0.014    28.354     8.735
    51   1 H        0.925     0.030     2.588     2.516
    52   1 H        0.925     0.041     2.431     2.438
    53   1 H        0.925     0.041     2.429     2.437
    54   1 H        0.925     0.030     2.590     2.517
    55   1 H        0.925     0.041     2.430     2.438
    56   1 H        0.925     0.041     2.431     2.438
    57   1 H        0.926     0.032     2.555     2.500
    58   1 H        0.926     0.025     2.653     2.547
    59   1 H        0.926     0.026     2.638     2.540
    60   1 H        0.926     0.024     2.672     2.556
    61   1 H        0.926     0.051     2.310     2.377
    62   1 H        0.926     0.061     2.191     2.315
    63   1 H        0.926     0.049     2.333     2.388
    64   1 H        0.926     0.061     2.190     2.314
    65   1 H        0.926     0.051     2.310     2.377
    66   1 H        0.926     0.023     2.681     2.561
    67   1 H        0.926     0.026     2.642     2.542
    68   1 H        0.926     0.025     2.654     2.548
    69   1 H        0.926     0.032     2.555     2.500
    70   1 H        0.925     0.030     2.588     2.516
    71   1 H        0.925     0.041     2.431     2.438
    72   1 H        0.925     0.041     2.430     2.437
    73   1 H        0.925     0.030     2.590     2.517
    74   1 H        0.925     0.041     2.430     2.438
    75   1 H        0.925     0.041     2.431     2.438
    76   1 H        0.926     0.032     2.555     2.499
    77   1 H        0.926     0.025     2.653     2.547
    78   1 H        0.926     0.026     2.638     2.540
    79   1 H        0.926     0.024     2.672     2.556
    80   1 H        0.926     0.050     2.317     2.381
    81   1 H        0.926     0.048     2.343     2.394
    82   1 H        0.925     0.036     2.502     2.474
    83   1 H        0.926     0.048     2.344     2.394
    84   1 H        0.926     0.050     2.317     2.380
    85   1 H        0.926     0.023     2.682     2.561
    86   1 H        0.926     0.026     2.642     2.542
    87   1 H        0.926     0.025     2.654     2.548
    88   1 H        0.926     0.032     2.555     2.500

molecular dipole:
                 x           y           z       tot (Debye)
 q only:        0.002      -0.792       0.001
   full:        0.002      -1.003       0.002       2.550

 projected vibrational frequencies (cm⁻¹)
eigval :       -0.00    -0.00    -0.00     0.00     0.00     0.00
eigval :       -4.76     7.57     9.46    12.12    21.58    22.31
eigval :       27.52    37.30    38.40    49.53    61.99    72.30
eigval :       95.43    98.15    99.17   102.84   106.08   113.03
eigval :      125.94   143.41   143.63   165.30   181.97   191.21
eigval :      200.82   205.09   205.85   223.12   223.42   224.70
eigval :      232.20   235.44   282.98   293.53   301.05   311.20
eigval :      314.19   325.29   331.97   332.11   344.25   344.43
eigval :      361.70   371.49   372.12   377.56   378.08   386.05
eigval :      403.41   406.80   411.28   427.64   429.40   431.75
eigval :      451.61   451.82   470.91   485.71   490.90   497.00
eigval :      515.81   515.91   519.28   547.80   547.88   549.56
eigval :      551.44   576.64   581.33   590.30   593.47   606.01
eigval :      609.23   615.85   623.47   634.24   664.18   665.09
eigval :      683.21   683.23   694.11   694.19   696.43   711.61
eigval :      719.10   728.84   743.13   764.71   774.72   775.13
eigval :      776.23   776.48   809.90   817.53   823.61   826.21
eigval :      828.26   843.67   862.81   863.23   867.62   867.90
eigval :      868.72   869.94   911.36   911.55   911.77   912.22
eigval :      912.58   913.19   914.11   916.28   919.58   919.76
eigval :      919.97   920.04   920.47   920.76   924.33   929.50
eigval :      930.61   937.75   937.99   956.51   956.73  1001.75
eigval :     1015.00  1015.83  1015.87  1025.94  1076.72  1076.74
eigval :     1083.14  1085.08  1085.43  1088.41  1111.76  1111.88
eigval :     1117.68  1117.75  1129.83  1130.34  1139.40  1139.63
eigval :     1158.16  1158.17  1169.91  1170.53  1182.53  1183.34
eigval :     1184.89  1185.43  1185.57  1185.67  1203.95  1205.01
eigval :     1216.41  1234.12  1242.81  1245.11  1247.92  1248.03
eigval :     1255.13  1262.38  1266.05  1266.24  1275.65  1276.36
eigval :     1293.38  1293.45  1309.62  1310.66  1317.57  1318.39
eigval :     1324.00  1324.31  1332.98  1333.24  1336.30  1336.38
eigval :     1371.72  1399.19  1400.10  1400.31  1401.94  1418.87
eigval :     1418.99  1424.81  1435.27  1435.46  1439.69  1439.73
eigval :     1476.44  1476.50  1479.28  1481.64  1486.64  1486.78
eigval :     1490.21  1490.22  1495.85  1495.95  1499.16  1499.48
eigval :     1503.07  1503.20  1503.83  1547.58  1560.74  1561.77
eigval :     1573.59  1573.60  1586.07  1587.41  1590.24  1590.29
eigval :     1590.46  1591.38  1600.65  1600.69  3019.89  3019.89
eigval :     3022.43  3022.44  3037.92  3038.70  3038.76  3040.81
eigval :     3040.84  3047.34  3047.38  3051.76  3051.77  3071.09
eigval :     3071.39  3072.27  3072.41  3078.55  3078.70  3078.80
eigval :     3078.82  3084.42  3084.75  3089.23  3089.27  3089.48
eigval :     3089.51  3090.00  3090.02  3095.36  3095.75  3096.96
eigval :     3097.03  3098.18  3098.28  3107.25  3107.39  3114.59

   temp. (K)  partition function   enthalpy   heat capacity  entropy
                                   cal/mol     cal/K/mol   cal/K/mol   J/K/mol
 298.15  VIB  0.490E+21            24924.725    155.581    156.525
         ROT  0.717E+08              888.752      2.981     38.927
         INT  0.351E+29            25813.478    158.561    195.452
         TR   0.159E+29             1481.254      4.968     45.262
         TOT                       27294.7316   163.5296   240.7146  1007.1500

       T/K    H(0)-H(T)+PV         H(T)/Eh          T*S/Eh         G(T)/Eh
   ------------------------------------------------------------------------
    298.15    0.434969E-01    0.742801E+00    0.114371E+00    0.628430E+00
   ------------------------------------------------------------------------

         :::::::::::::::::::::::::::::::::::::::::::::::::::::
         ::                  THERMODYNAMIC                  ::
         :::::::::::::::::::::::::::::::::::::::::::::::::::::
         :: total free energy        -129.064726801403 Eh   ::
         ::.................................................::
         :: total energy             -129.693156340271 Eh   ::
         :: zero point energy           0.699303900674 Eh   ::
         :: G(RRHO) w/o ZPVE           -0.070874361806 Eh   ::
         :: G(RRHO) contrib.            0.628429538868 Eh   ::
         :::::::::::::::::::::::::::::::::::::::::::::::::::::

           -------------------------------------------------
          | TOTAL ENERGY             -129.693156340271 Eh   |
          | TOTAL ENTHALPY           -128.950355516093 Eh   |
          | TOTAL FREE ENERGY        -129.064726801403 Eh   |
          | GRADIENT NORM               0.000072685004 Eh/α |
          | HOMO-LUMO GAP               1.456221272464 eV   |
           -------------------------------------------------

 * finished run on 2025/08/29 at 12:12:17.543
