   * xtb version 6.7.1 (edcfbbe) compiled by 'albert@albert-system' on 2024-07-22

   ID    Z sym.   atoms
    1    6 C      1-9, 11-21, 23-39, 41, 43-50
    2    7 N      10, 22, 40, 42
    3    1 H      51-88

          program call               : xtb data2507/toluene/AcHPM/AcHPM_toluene_T1_crest.xyz --gfn 2 --uhf 2 --gbsa toluene --ohess vtight --parallel 40 --molden --ceasefiles --namespace data2507/toluene/AcHPM/AcHPM_toluene_T1_finalOpt
      * Solvation model:               GBSA
        Solvent                        toluene
        Solvent mass                       9.2140E+01 g/mol
          :  Hamiltonian                  GFN2-xTB          :
 * total energy  :  -129.6237563 Eh     change       -0.1868645E-07 Eh
 * total energy  :  -129.6238818 Eh     change       -0.1255087E-03 Eh
 * total energy  :  -129.6239398 Eh     change       -0.5796302E-04 Eh
 * total energy  :  -129.6239474 Eh     change       -0.7572096E-05 Eh
 * total energy  :  -129.6239509 Eh     change       -0.3578205E-05 Eh
 * total energy  :  -129.6239533 Eh     change       -0.2349649E-05 Eh
 * total energy  :  -129.6239555 Eh     change       -0.2204036E-05 Eh
 * total energy  :  -129.6239574 Eh     change       -0.1906642E-05 Eh
 * total energy  :  -129.6239611 Eh     change       -0.3712119E-05 Eh
 * total energy  :  -129.6239651 Eh     change       -0.4035971E-05 Eh
 * total energy  :  -129.6240666 Eh     change       -0.5043381E-06 Eh
 * total energy  :  -129.6240671 Eh     change       -0.4975363E-06 Eh
 * total energy  :  -129.6240676 Eh     change       -0.4394635E-06 Eh
 * total energy  :  -129.6240681 Eh     change       -0.5207353E-06 Eh
 * total energy  :  -129.6240686 Eh     change       -0.5706869E-06 Eh
 * total energy  :  -129.6240693 Eh     change       -0.6677111E-06 Eh
 * total energy  :  -129.6240701 Eh     change       -0.8305716E-06 Eh
 * total energy  :  -129.6240712 Eh     change       -0.1023724E-05 Eh
 * total energy  :  -129.6240712 Eh     change       -0.3293366E-08 Eh
   *** GEOMETRY OPTIMIZATION CONVERGED AFTER 94 ITERATIONS ***

 final structure:
================
88
 xtb: 6.7.1 (edcfbbe)
C           -9.34276064231492        0.89206173698940        2.73061248768806
C           -9.06665794914832        0.48441608753079        1.27001796615157
C          -10.39380885367538        0.33560398313246        0.50064201429106
C           -8.34989540206331       -0.85024910344385        1.26635171404323
C           -8.96483268895643       -1.96312255654563        1.82377875869971
C           -8.35330614880792       -3.20340710970320        1.84874177138916
C           -7.08640314773872       -3.35035321134076        1.30556796246720
C           -6.45076514538752       -2.26404547716491        0.74694769864910
C           -7.06796970106212       -1.00580497944480        0.71751610602264
N           -6.40326701727564        0.06196885587163        0.15037312552638
C           -5.09297590407790       -0.13651557033568       -0.37683206000447
C           -4.91548926447623       -0.53350654425706       -1.70280400943730
C           -3.64967584624410       -0.71037598615594       -2.20447539269781
C           -2.50534227368149       -0.49673382346858       -1.40828386191352
C           -1.20429007332244       -0.68361345673958       -1.99346694287809
C           -0.00017643912736       -0.48133324932660       -1.32385038758411
C            1.20398982401002       -0.67987057697530       -1.99447250983886
C            2.50487731509454       -0.48953893147373       -1.40997603098454
C            3.64917767207833       -0.68928977075908       -2.20979613453178
C            4.91474178037937       -0.51100869402560       -1.70799764057477
C            5.09194592819609       -0.12651528964147       -0.37832888726252
N            6.40234689424658        0.06768816401051        0.15015341970729
C            6.96875832896748        1.32436376215819        0.08744770426141
C            6.25464703073955        2.37269231068967       -0.50930337137779
C            6.78897682081838        3.63965703033440       -0.58365388681346
C            8.05000761377328        3.88753084320278       -0.06403251994524
C            8.75907702411778        2.85535747274460        0.52304800541519
C            8.24726288173388        1.56784382344028        0.61172564471707
C            9.07054546559825        0.47584719721032        1.26354585374342
C           10.39304217687295        0.32348108548453        0.48687494954865
C            9.35615805689666        0.87743874361246        2.72397273559166
C            8.34786747157243       -0.85563514024401        1.25892222110087
C            8.95961017478276       -1.97271531424894        1.81145343655371
C            8.34297049506697       -3.21050458871701        1.83437419964610
C            7.07427587590081       -3.35073182330108        1.29361695310971
C            6.44187934284177       -2.26023806436668        0.73953895339505
C            7.06403932982711       -1.00437629193772        0.71272381269416
C            3.97577735257135        0.07008568702670        0.43295039318966
C            2.70819028912572       -0.10753184567593       -0.07072092756931
N            1.16762583052084       -1.07783237716449       -3.31265652044633
C            0.00000161599762       -1.25128534354728       -3.87384812274031
N           -1.16767714371225       -1.08238519404121       -3.31140459630616
C           -2.70891098489453       -0.10363937071778       -0.07227373145715
C           -3.97672937448251        0.07276795987986        0.43121146911312
C           -6.96596303618741        1.32018379175702        0.08300519244005
C           -6.25099381592768        2.36307694671192       -0.52223787438883
C           -6.78126805909118        3.63149420411273       -0.60059448008892
C           -8.03913099318862        3.88638432724965       -0.07674172568397
C           -8.74945980359170        2.85941448699076        0.51786975759103
C           -8.24181847721347        1.57052014710677        0.61043668717563
H           -9.87230995752055        1.83936520320668        2.77310753356246
H           -9.94506944090565        0.14094658103135        3.23321114684719
H           -8.40340470624686        0.99800318086136        3.27045286993490
H          -10.19526139702139        0.04605463822918       -0.52979684086574
H          -10.94361870040256        1.27212771375359        0.49454125370599
H          -11.02102104167979       -0.42473378036927        0.95657324010883
H           -9.95003998769005       -1.86606082590986        2.25297006599447
H           -8.86074422567024       -4.04794171890193        2.28965689096775
H           -6.59335265066698       -4.31089223620316        1.31663000594127
H           -5.46438054882677       -2.37729436373061        0.32508523176756
H           -5.78195357645027       -0.69761790397768       -2.32742536474291
H           -3.49943949370232       -1.01515343228240       -3.22881617921828
H           -0.00021326793860       -0.16731128448597       -0.29311296900714
H            3.49913269052728       -0.98564781445400       -3.23663243586162
H            5.78126753570702       -0.66507161822849       -2.33509235413683
H            5.27381681693957        2.17889332211292       -0.91459178917897
H            6.22185739337780        4.43288046097492       -1.04744986606461
H            8.47801882768461        4.87711202138864       -0.11623600437539
H            9.73949386427525        3.06548219125409        0.92170031144161
H           10.18796245686448        0.03795933440557       -0.54341057756652
H           10.94694863352216        1.25760312296308        0.48082009023561
H           11.01909381493256       -0.44110560782033        0.93729300555461
H            8.42008989957678        0.98722486284966        3.26871862940742
H            9.89153109008202        1.82144048483770        2.76679584270286
H            9.95654344549640        0.12136433188993        3.22138781164455
H            9.94646772712757       -1.88116519052396        2.23805457951354
H            8.84799522142234       -4.05846517046453        2.27146845602887
H            6.57733919036440       -4.30928006262172        1.30287723624887
H            5.45426959886144       -2.36829985960777        0.31918980583065
H            4.11678170699611        0.36496050929122        1.46328349230695
H            1.86587061753366        0.05182849802681        0.58435970919984
H            0.00003776666449       -1.56592390120562       -4.91242254279193
H           -1.86658281921572        0.06702543117623        0.57992859213384
H           -4.11786191648517        0.37726570722159        1.45872903623038
H           -5.27269526870296        2.16413482519809       -0.93105570318892
H           -6.21340672828658        4.42038296781797       -1.07082952787826
H           -8.46372990077213        4.87728694519114       -0.13162164396039
H           -9.72749667864911        3.07484270755701        0.91951885142668

          :  Hamiltonian                  GFN2-xTB          :
         :: gradient norm              0.000063656028 Eh/a0 ::
         :: HOMO-LUMO gap              0.688795017749 eV    ::
         :: SCC energy              -131.942597295154 Eh    ::
         :: -> dispersion             -0.120097833928 Eh    ::
         :: -> Gsolv                  -0.057343002908 Eh    ::
         :: repulsion energy           2.318526118000 Eh    ::

    * Orbital Energies and Occupations

         #    Occupation            Energy/Eh            Energy/eV
      -------------------------------------------------------------
         1        2.0000           -0.6758734             -18.3915
       ...           ...                  ...                  ...
       110        2.0000           -0.4073178             -11.0837
       111        2.0000           -0.4073049             -11.0833
       112        2.0000           -0.4056875             -11.0393
       113        2.0000           -0.4056466             -11.0382
       114        2.0000           -0.4010406             -10.9129
       115        2.0000           -0.4010308             -10.9126
       116        2.0000           -0.3890118             -10.5856
       117        2.0000           -0.3850527             -10.4778
       118        2.0000           -0.3845977             -10.4654
       119        1.8751           -0.3564890              -9.7006
       120        1.6993           -0.3554418              -9.6721
       121        1.4256           -0.3543550              -9.6425
       122        1.0000           -0.2762885              -7.5182 (HOMO)
       123        0.0000           -0.2509759              -6.8294 (LUMO)
       124                         -0.2344765              -6.3804
       125                         -0.2344752              -6.3804
       126                         -0.2273160              -6.1856
       127                         -0.2273145              -6.1855
       128                         -0.2268992              -6.1742
       129                         -0.2268919              -6.1740
       130                         -0.2207619              -6.0072
       131                         -0.2206744              -6.0049
       132                         -0.2072893              -5.6406
       133                         -0.1992984              -5.4232
       ...                                ...                  ...
       238                          0.6926556              18.8481
      -------------------------------------------------------------
                  HL-Gap            0.0253126 Eh            0.6888 eV

     #   Z          covCN         q      C6AA      α(0)
     1   6 C        3.761    -0.106    22.567     6.772
     2   6 C        3.909     0.023    20.130     6.377
     3   6 C        3.761    -0.106    22.572     6.773
     4   6 C        2.978    -0.006    28.173     8.707
     5   6 C        2.926    -0.035    28.868     8.811
     6   6 C        2.917    -0.037    28.919     8.818
     7   6 C        2.918    -0.030    28.758     8.794
     8   6 C        2.923    -0.051    29.264     8.871
     9   6 C        2.929     0.061    26.623     8.462
    10   7 N        2.754    -0.037    21.956     6.959
    11   6 C        2.928     0.043    27.029     8.526
    12   6 C        2.915    -0.041    29.028     8.835
    13   6 C        2.926    -0.037    28.927     8.820
    14   6 C        2.973    -0.009    28.236     8.716
    15   6 C        2.948     0.075    26.321     8.415
    16   6 C        2.910    -0.058    29.447     8.898
    17   6 C        2.948     0.075    26.321     8.415
    18   6 C        2.973    -0.009    28.236     8.716
    19   6 C        2.926    -0.037    28.926     8.820
    20   6 C        2.915    -0.041    29.028     8.835
    21   6 C        2.928     0.043    27.028     8.526
    22   7 N        2.754    -0.037    21.956     6.959
    23   6 C        2.929     0.061    26.624     8.462
    24   6 C        2.923    -0.051    29.264     8.871
    25   6 C        2.918    -0.030    28.758     8.794
    26   6 C        2.917    -0.037    28.919     8.818
    27   6 C        2.926    -0.035    28.868     8.811
    28   6 C        2.978    -0.006    28.172     8.707
    29   6 C        3.909     0.023    20.130     6.377
    30   6 C        3.761    -0.106    22.571     6.773
    31   6 C        3.761    -0.106    22.568     6.772
    32   6 C        2.978    -0.006    28.173     8.707
    33   6 C        2.926    -0.035    28.868     8.811
    34   6 C        2.917    -0.037    28.919     8.818
    35   6 C        2.918    -0.030    28.758     8.794
    36   6 C        2.923    -0.051    29.264     8.871
    37   6 C        2.929     0.061    26.623     8.462
    38   6 C        2.916    -0.042    29.045     8.838
    39   6 C        2.920    -0.044    29.102     8.847
    40   7 N        1.841    -0.294    28.477     7.908
    41   6 C        2.851     0.162    24.498     8.112
    42   7 N        1.841    -0.294    28.477     7.908
    43   6 C        2.920    -0.044    29.102     8.847
    44   6 C        2.916    -0.042    29.045     8.838
    45   6 C        2.929     0.061    26.624     8.462
    46   6 C        2.923    -0.051    29.264     8.871
    47   6 C        2.918    -0.030    28.758     8.794
    48   6 C        2.917    -0.037    28.919     8.818
    49   6 C        2.926    -0.035    28.869     8.811
    50   6 C        2.978    -0.006    28.172     8.706
    51   1 H        0.925     0.048     2.344     2.394
    52   1 H        0.925     0.048     2.344     2.394
    53   1 H        0.925     0.034     2.532     2.489
    54   1 H        0.925     0.034     2.529     2.487
    55   1 H        0.925     0.048     2.344     2.394
    56   1 H        0.925     0.048     2.343     2.394
    57   1 H        0.926     0.044     2.401     2.423
    58   1 H        0.926     0.037     2.487     2.466
    59   1 H        0.926     0.036     2.509     2.477
    60   1 H        0.926     0.035     2.514     2.479
    61   1 H        0.926     0.034     2.533     2.489
    62   1 H        0.926     0.045     2.387     2.416
    63   1 H        0.926     0.022     2.708     2.573
    64   1 H        0.926     0.045     2.387     2.416
    65   1 H        0.926     0.034     2.534     2.489
    66   1 H        0.926     0.035     2.515     2.480
    67   1 H        0.926     0.035     2.510     2.478
    68   1 H        0.926     0.037     2.487     2.466
    69   1 H        0.926     0.044     2.401     2.423
    70   1 H        0.925     0.034     2.530     2.487
    71   1 H        0.925     0.048     2.344     2.394
    72   1 H        0.925     0.048     2.344     2.394
    73   1 H        0.925     0.034     2.532     2.488
    74   1 H        0.925     0.048     2.344     2.394
    75   1 H        0.925     0.048     2.344     2.394
    76   1 H        0.926     0.044     2.401     2.423
    77   1 H        0.926     0.037     2.487     2.466
    78   1 H        0.926     0.036     2.509     2.477
    79   1 H        0.926     0.035     2.514     2.479
    80   1 H        0.926     0.033     2.551     2.497
    81   1 H        0.926     0.027     2.634     2.538
    82   1 H        0.925     0.016     2.793     2.614
    83   1 H        0.926     0.027     2.634     2.538
    84   1 H        0.926     0.032     2.551     2.498
    85   1 H        0.926     0.035     2.515     2.480
    86   1 H        0.926     0.035     2.510     2.478
    87   1 H        0.926     0.037     2.487     2.466
    88   1 H        0.926     0.044     2.401     2.423

molecular dipole:
                 x           y           z       tot (Debye)
 q only:        0.002       0.878       2.559
   full:        0.001       0.904       2.667       7.158

 projected vibrational frequencies (cm⁻¹)
eigval :       -0.00    -0.00    -0.00     0.00     0.00     0.00
eigval :       -5.54     3.63    15.04    18.23    19.97    21.48
eigval :       28.63    31.82    35.88    55.06    70.61    83.99
eigval :       91.83    92.69    93.83   100.28   101.81   110.15
eigval :      138.40   140.09   143.47   164.41   169.95   174.14
eigval :      197.76   200.52   201.82   217.94   218.24   221.06
eigval :      230.99   234.96   290.35   298.76   301.15   321.74
eigval :      325.58   326.92   327.17   329.72   336.58   340.59
eigval :      353.92   369.37   369.75   377.69   378.30   387.97
eigval :      389.00   406.57   408.22   412.07   424.96   430.85
eigval :      449.76   450.16   458.95   464.27   486.23   506.91
eigval :      507.00   510.14   510.75   543.25   543.33   543.72
eigval :      549.30   557.80   576.44   582.55   588.93   593.45
eigval :      602.13   607.56   608.86   618.66   650.98   658.38
eigval :      660.28   679.70   681.17   686.59   686.72   699.60
eigval :      699.68   704.80   724.22   751.07   773.58   773.87
eigval :      776.50   777.22   794.61   795.94   809.66   820.64
eigval :      825.31   825.45   847.85   849.98   866.67   867.23
eigval :      871.76   871.94   899.34   901.02   905.32   910.25
eigval :      913.18   913.47   913.84   914.59   914.64   916.53
eigval :      917.49   917.82   917.93   922.09   922.15   923.65
eigval :      925.25   937.13   937.21   958.49   958.53   959.16
eigval :      996.59  1001.09  1013.97  1014.03  1042.36  1050.46
eigval :     1074.82  1074.84  1084.64  1085.15  1104.76  1106.50
eigval :     1113.17  1113.29  1120.54  1130.66  1137.17  1137.18
eigval :     1150.43  1150.44  1158.81  1167.60  1168.82  1181.18
eigval :     1181.36  1184.51  1184.86  1186.31  1198.18  1203.11
eigval :     1206.47  1236.95  1238.05  1242.59  1242.68  1252.00
eigval :     1256.68  1259.39  1259.93  1266.59  1286.03  1292.43
eigval :     1292.48  1305.66  1307.28  1314.62  1317.02  1317.15
eigval :     1321.46  1328.18  1328.22  1332.25  1333.36  1333.66
eigval :     1342.51  1392.21  1397.81  1397.95  1408.43  1411.14
eigval :     1416.50  1416.54  1422.86  1422.88  1429.72  1430.85
eigval :     1436.85  1437.78  1457.44  1457.45  1467.13  1478.15
eigval :     1478.91  1483.66  1483.68  1484.58  1484.61  1485.63
eigval :     1494.12  1494.14  1498.84  1498.95  1500.97  1505.49
eigval :     1556.18  1556.20  1568.01  1570.51  1571.93  1579.59
eigval :     1579.60  1588.52  1590.29  1591.38  3008.46  3024.57
eigval :     3024.68  3026.82  3026.95  3045.17  3045.30  3046.96
eigval :     3047.00  3052.57  3052.64  3055.97  3056.13  3070.35
eigval :     3070.57  3074.43  3074.71  3079.47  3079.92  3079.99
eigval :     3080.42  3086.42  3086.44  3086.54  3086.88  3087.32
eigval :     3089.96  3096.05  3096.19  3096.68  3096.80  3097.14
eigval :     3097.37  3100.26  3102.78  3103.10  3106.14  3106.69

   temp. (K)  partition function   enthalpy   heat capacity  entropy
                                   cal/mol     cal/K/mol   cal/K/mol   J/K/mol
 298.15  VIB  0.556E+21            25142.740    157.151    157.691
         ROT  0.146E+09              888.752      2.981     40.341
         INT  0.813E+29            26031.492    160.132    198.032
         TR   0.159E+29             1481.254      4.968     45.262
         TOT                       27512.7463   165.1001   243.2940  1017.9422

       T/K    H(0)-H(T)+PV         H(T)/Eh          T*S/Eh         G(T)/Eh
   ------------------------------------------------------------------------
    298.15    0.438444E-01    0.739906E+00    0.115597E+00    0.624310E+00
   ------------------------------------------------------------------------

         :::::::::::::::::::::::::::::::::::::::::::::::::::::
         ::                  THERMODYNAMIC                  ::
         :::::::::::::::::::::::::::::::::::::::::::::::::::::
         :: total free energy        -128.999761541400 Eh   ::
         ::.................................................::
         :: total energy             -129.624071177227 Eh   ::
         :: zero point energy           0.696062128496 Eh   ::
         :: G(RRHO) w/o ZPVE           -0.071752492668 Eh   ::
         :: G(RRHO) contrib.            0.624309635828 Eh   ::
         :::::::::::::::::::::::::::::::::::::::::::::::::::::

           -------------------------------------------------
          | TOTAL ENERGY             -129.624071177227 Eh   |
          | TOTAL ENTHALPY           -128.884164696669 Eh   |
          | TOTAL FREE ENERGY        -128.999761541400 Eh   |
          | GRADIENT NORM               0.000065795725 Eh/α |
          | HOMO-LUMO GAP               0.688791995807 eV   |
           -------------------------------------------------

 * finished run on 2025/08/29 at 12:20:48.861
