   * xtb version 6.7.1 (edcfbbe) compiled by 'albert@albert-system' on 2024-07-22

   ID    Z sym.   atoms
    1    6 C      1-9, 11-21, 23-39, 41, 43-50
    2    7 N      10, 22, 40, 42
    3    1 H      51-88

          program call               : xtb data2507/toluene/AcHPM/AcHPM.xyz --gfn 2 --gbsa toluene --ohess vtight --parallel 40 --molden --ceasefiles --namespace data2507/toluene/AcHPM/AcHPM_toluene_S0_preOpt
      * Solvation model:               GBSA
        Solvent                        toluene
        Solvent mass                       9.2140E+01 g/mol
          :  Hamiltonian                  GFN2-xTB          :
 * total energy  :  -129.6654296 Eh     change       -0.4105232E-08 Eh
 * total energy  :  -129.6839892 Eh     change       -0.1855955E-01 Eh
 * total energy  :  -129.6900097 Eh     change       -0.6020548E-02 Eh
 * total energy  :  -129.6912622 Eh     change       -0.1252519E-02 Eh
 * total energy  :  -129.6921581 Eh     change       -0.8958318E-03 Eh
 * total energy  :  -129.6925354 Eh     change       -0.3773577E-03 Eh
 * total energy  :  -129.6927073 Eh     change       -0.1719056E-03 Eh
 * total energy  :  -129.6927783 Eh     change       -0.7100316E-04 Eh
 * total energy  :  -129.6928175 Eh     change       -0.3920432E-04 Eh
 * total energy  :  -129.6928532 Eh     change       -0.3568346E-04 Eh
 * total energy  :  -129.6931482 Eh     change       -0.9411213E-06 Eh
 * total energy  :  -129.6931488 Eh     change       -0.5672306E-06 Eh
 * total energy  :  -129.6931491 Eh     change       -0.3354300E-06 Eh
 * total energy  :  -129.6931494 Eh     change       -0.2969712E-06 Eh
 * total energy  :  -129.6931497 Eh     change       -0.3220665E-06 Eh
 * total energy  :  -129.6931500 Eh     change       -0.2811726E-06 Eh
 * total energy  :  -129.6931503 Eh     change       -0.2747902E-06 Eh
 * total energy  :  -129.6931505 Eh     change       -0.2152537E-06 Eh
 * total energy  :  -129.6931505 Eh     change       -0.3682004E-08 Eh
   *** GEOMETRY OPTIMIZATION CONVERGED AFTER 44 ITERATIONS ***

 final structure:
================
88
 xtb: 6.7.1 (edcfbbe)
C          -10.21921682208923       -0.60842141354498       -0.87649585930963
C           -8.99282153387989       -1.19103348125477       -0.14909384396742
C           -9.36424332914675       -2.51660396489003        0.54214617412491
C           -8.53892097480291       -0.20244533751174        0.90918569376889
C           -9.41341099522608        0.16127395011033        1.92442778457536
C           -9.05232652627391        1.04512445962955        2.92496865061303
C           -7.77667575192220        1.58031679053562        2.92609158498276
C           -6.88724213757679        1.23628284425799        1.92959838202943
C           -7.25589733161628        0.35561199750425        0.90799747644830
N           -6.33982025246281        0.03158260863784       -0.08151019896173
C           -5.05049070669920        0.62863649113549       -0.05275862750420
C           -4.86938628466969        1.92791889591865       -0.51672075513307
C           -3.61415884160418        2.50017157281148       -0.49272530526050
C           -2.51471143569014        1.78632637086414       -0.01321591145883
C           -1.19487799621836        2.42741082114370       -0.01763977024167
C           -0.00078746561220        1.70705558807239       -0.00719102283452
C            1.19385719915446        2.42654042534721       -0.01900392230304
C            2.51340213264109        1.78503269435185       -0.00848527769001
C            3.61499663436207        2.51271107276400        0.44463538985221
C            4.87073784923222        1.94211734285781        0.47808825884847
C            5.05034428499276        0.63018500333257        0.05043734614401
N            6.34043366115821        0.03563440607181        0.08631015490102
C            6.65429686729185       -0.82723685609160        1.12553982037550
C            5.71100989765677       -1.07452336703473        2.12776053088905
C            5.98984873632039       -1.93352637314328        3.17025522981237
C            7.22249441116347       -2.55784174701808        3.23652174622764
C            8.16353864573839       -2.30023653592528        2.25635303721281
C            7.90996572971819       -1.44042766372146        1.19604511565000
C            8.99315484421870       -1.18732576376069        0.16374456771980
C           10.22273405470279       -0.59197661408309        0.87529944821581
C            9.36158227479551       -2.52512592781096       -0.50519784226776
C            8.53488490593935       -0.21781242554562       -0.91016469382036
C            9.40499319678340        0.12674959174013       -1.93584879639033
C            9.03973631189353        0.99191237832263       -2.95105733007563
C            7.76397029295428        1.52677627889842       -2.95685627848543
C            6.87882365863471        1.20141335506708       -1.95034493163127
C            7.25201299198435        0.34058218835385       -0.91356475718491
C            3.96074044200099       -0.09708295827574       -0.41696782265345
C            2.70360102543366        0.47420637293491       -0.44534635921274
N            1.17875789637145        3.76522926560270       -0.02543871355421
C            0.00010125396245        4.35063046440379       -0.04629495754795
N           -1.17897963044854        3.76569296853228       -0.05053535475786
C           -2.70669173638946        0.48885192995605        0.46104994712745
C           -3.96344029616774       -0.08382283976876        0.44246189492292
C           -6.64946781569454       -0.84941888548829       -1.10661983809276
C           -5.70127120168089       -1.11605628245637       -2.09917559716831
C           -5.97627099078599       -1.99262668419286       -3.12797505329112
C           -7.20955484623077       -2.61615014124187       -3.18959081066423
C           -8.15493548269988       -2.34056508728376       -2.21848588637532
C           -7.90536152031036       -1.46271336524072       -1.17214171755770
H           -9.95276157402886        0.33077820599426       -1.35864577646644
H          -10.58109224118613       -1.29378264171269       -1.63788709745732
H          -11.02934200187959       -0.41752163959840       -0.17819483898809
H           -8.49342371208887       -2.92618419679727        1.05155463978023
H           -9.71267219921153       -3.24717004907770       -0.18268859755458
H          -10.15036321381234       -2.36399829094940        1.27640973954997
H          -10.40911595331006       -0.25555782708185        1.94157147664503
H           -9.75887921572605        1.30754262154705        3.69811062382769
H           -7.46949305604187        2.26503915250011        3.70311181799326
H           -5.89137155594941        1.65232155956308        1.94140906958104
H           -5.71767448416906        2.48025614274134       -0.89292189993809
H           -3.45985693399062        3.50636269760349       -0.84971106380775
H           -0.00124653289178        0.63087998417271        0.00880194128123
H            3.46214798973499        3.52909520905703        0.77219743362462
H            5.72078625683147        2.50584794272140        0.83284772314637
H            4.75058156491298       -0.58367619826347        2.08821433437145
H            5.24324147681075       -2.11035034340304        3.93083940050196
H            7.45337533955012       -3.23432427644306        4.04581663740261
H            9.12477853080030       -2.78658440796158        2.32642750684586
H            9.95906294662669        0.35682717707854        1.33985809301937
H           10.58655847410013       -1.26272826500006        1.64868081052381
H           11.03058094619646       -0.41577365480223        0.17051752938341
H            8.48851452508090       -2.94380307839120       -1.00322846776960
H            9.71336157731763       -3.24253927644964        0.23105194715602
H           10.14437813082628       -2.38579049301524       -1.24560819035170
H           10.40058060951459       -0.29048487702738       -1.94946471667619
H            9.74300555915750        1.23984949005625       -3.73193444042703
H            7.45332326091357        2.19678247775025       -3.74523549872730
H            5.88276109886181        1.61678381867506       -1.96629327261384
H            4.10857666697319       -1.11144022821036       -0.75725586813329
H            1.87607110632225       -0.09830939663054       -0.83522859440430
H            0.00048933275459        5.43458016227963       -0.06171455178013
H           -1.88092807508082       -0.07135870218252        0.87199154447085
H           -4.11277970292060       -1.08766183695269        0.81196038849228
H           -4.74017528498716       -0.62624041056333       -2.06315862472721
H           -5.22613795474431       -2.18371340919119       -3.88159914316826
H           -7.43754737784815       -3.30588314535055       -3.98846618340760
H           -9.11637161662684       -2.82707441056768       -2.28461083024917

          :  Hamiltonian                  GFN2-xTB          :
         :: gradient norm              0.000040538208 Eh/a0 ::
         :: HOMO-LUMO gap              1.434873096037 eV    ::
         :: SCC energy              -132.021244249091 Eh    ::
         :: -> dispersion             -0.120212527115 Eh    ::
         :: -> Gsolv                  -0.052245240922 Eh    ::
         :: repulsion energy           2.328093754794 Eh    ::

    * Orbital Energies and Occupations

         #    Occupation            Energy/Eh            Energy/eV
      -------------------------------------------------------------
         1        2.0000           -0.6859506             -18.6657
       ...           ...                  ...                  ...
       109        2.0000           -0.4064727             -11.0607
       110        2.0000           -0.4063633             -11.0577
       111        2.0000           -0.4055917             -11.0367
       112        2.0000           -0.4051055             -11.0235
       113        2.0000           -0.4027861             -10.9604
       114        2.0000           -0.4027574             -10.9596
       115        2.0000           -0.3973009             -10.8111
       116        2.0000           -0.3972836             -10.8106
       117        2.0000           -0.3919536             -10.6656
       118        2.0000           -0.3919361             -10.6651
       119        2.0000           -0.3750952             -10.2069
       120        2.0000           -0.3461354              -9.4188
       121        2.0000           -0.3460488              -9.4165 (HOMO)
       122                         -0.2933181              -7.9816 (LUMO)
       123                         -0.2721823              -7.4065
       124                         -0.2406212              -6.5476
       125                         -0.2405645              -6.5461
       126                         -0.2338127              -6.3624
       127                         -0.2236785              -6.0866
       128                         -0.2236468              -6.0857
       129                         -0.2187740              -5.9531
       130                         -0.2185916              -5.9482
       131                         -0.2175317              -5.9193
       132                         -0.2175054              -5.9186
       ...                                ...                  ...
       238                          0.6786903              18.4681
      -------------------------------------------------------------
                  HL-Gap            0.0527306 Eh            1.4349 eV

     #   Z          covCN         q      C6AA      α(0)
     1   6 C        3.761    -0.103    22.520     6.765
     2   6 C        3.908     0.021    20.165     6.383
     3   6 C        3.761    -0.103    22.518     6.765
     4   6 C        2.979    -0.014    28.360     8.735
     5   6 C        2.928    -0.038    28.936     8.822
     6   6 C        2.917    -0.046    29.155     8.854
     7   6 C        2.919    -0.035    28.866     8.811
     8   6 C        2.924    -0.060    29.495     8.906
     9   6 C        2.927     0.058    26.691     8.472
    10   7 N        2.754    -0.073    22.665     7.071
    11   6 C        2.927     0.075    26.328     8.415
    12   6 C        2.919    -0.036    28.884     8.813
    13   6 C        2.925    -0.023    28.586     8.768
    14   6 C        2.978     0.001    28.003     8.680
    15   6 C        2.977     0.113    25.508     8.285
    16   6 C        2.911    -0.066    29.631     8.926
    17   6 C        2.977     0.113    25.508     8.285
    18   6 C        2.978     0.001    28.004     8.680
    19   6 C        2.925    -0.023    28.587     8.768
    20   6 C        2.919    -0.036    28.886     8.813
    21   6 C        2.927     0.075    26.329     8.415
    22   7 N        2.754    -0.073    22.662     7.070
    23   6 C        2.927     0.058    26.690     8.472
    24   6 C        2.924    -0.060    29.503     8.907
    25   6 C        2.919    -0.035    28.871     8.811
    26   6 C        2.917    -0.047    29.157     8.855
    27   6 C        2.928    -0.038    28.935     8.821
    28   6 C        2.979    -0.014    28.357     8.735
    29   6 C        3.908     0.021    20.165     6.383
    30   6 C        3.761    -0.103    22.520     6.765
    31   6 C        3.761    -0.103    22.518     6.765
    32   6 C        2.979    -0.014    28.359     8.735
    33   6 C        2.928    -0.038    28.936     8.822
    34   6 C        2.917    -0.046    29.154     8.854
    35   6 C        2.919    -0.035    28.866     8.811
    36   6 C        2.924    -0.060    29.495     8.906
    37   6 C        2.927     0.058    26.691     8.473
    38   6 C        2.920    -0.037    28.924     8.819
    39   6 C        2.922    -0.030    28.758     8.794
    40   7 N        1.842    -0.272    27.899     7.828
    41   6 C        2.904     0.157    24.605     8.133
    42   7 N        1.841    -0.272    27.900     7.828
    43   6 C        2.922    -0.030    28.758     8.794
    44   6 C        2.920    -0.037    28.924     8.819
    45   6 C        2.928     0.058    26.690     8.472
    46   6 C        2.924    -0.060    29.503     8.907
    47   6 C        2.919    -0.035    28.872     8.811
    48   6 C        2.917    -0.047    29.158     8.855
    49   6 C        2.928    -0.038    28.935     8.821
    50   6 C        2.979    -0.014    28.357     8.735
    51   1 H        0.925     0.030     2.589     2.516
    52   1 H        0.925     0.041     2.432     2.439
    53   1 H        0.925     0.041     2.430     2.438
    54   1 H        0.925     0.030     2.590     2.517
    55   1 H        0.925     0.041     2.431     2.438
    56   1 H        0.925     0.041     2.432     2.439
    57   1 H        0.926     0.032     2.556     2.500
    58   1 H        0.926     0.025     2.655     2.548
    59   1 H        0.926     0.026     2.640     2.541
    60   1 H        0.926     0.024     2.678     2.559
    61   1 H        0.926     0.051     2.310     2.377
    62   1 H        0.926     0.062     2.179     2.308
    63   1 H        0.926     0.049     2.331     2.388
    64   1 H        0.926     0.062     2.179     2.308
    65   1 H        0.926     0.051     2.310     2.377
    66   1 H        0.926     0.023     2.685     2.562
    67   1 H        0.926     0.026     2.643     2.542
    68   1 H        0.926     0.025     2.656     2.548
    69   1 H        0.926     0.032     2.556     2.500
    70   1 H        0.925     0.030     2.588     2.516
    71   1 H        0.925     0.041     2.432     2.439
    72   1 H        0.925     0.041     2.430     2.438
    73   1 H        0.925     0.030     2.590     2.517
    74   1 H        0.925     0.041     2.430     2.438
    75   1 H        0.925     0.041     2.432     2.439
    76   1 H        0.926     0.032     2.556     2.500
    77   1 H        0.926     0.025     2.654     2.548
    78   1 H        0.926     0.026     2.640     2.541
    79   1 H        0.926     0.024     2.676     2.558
    80   1 H        0.926     0.050     2.316     2.380
    81   1 H        0.926     0.048     2.340     2.392
    82   1 H        0.925     0.036     2.503     2.474
    83   1 H        0.926     0.048     2.339     2.392
    84   1 H        0.926     0.050     2.315     2.380
    85   1 H        0.926     0.023     2.686     2.563
    86   1 H        0.926     0.026     2.644     2.543
    87   1 H        0.926     0.025     2.656     2.549
    88   1 H        0.926     0.032     2.557     2.500

molecular dipole:
                 x           y           z       tot (Debye)
 q only:        0.007      -0.772       0.011
   full:        0.007      -0.984       0.014       2.501

 projected vibrational frequencies (cm⁻¹)
eigval :       -0.00    -0.00    -0.00    -0.00     0.00     0.00
eigval :       -6.78    -1.28    12.00    18.66    19.64    20.30
eigval :       29.83    37.59    40.10    48.09    62.01    71.43
eigval :       95.97    98.11    99.60   100.56   104.30   112.38
eigval :      126.72   130.68   130.76   165.21   180.49   189.81
eigval :      193.72   194.05   200.67   219.94   220.31   223.69
eigval :      231.50   234.90   283.68   294.26   300.27   310.99
eigval :      314.86   325.28   331.10   331.38   344.27   344.44
eigval :      359.46   371.43   371.97   377.09   377.69   385.79
eigval :      403.82   406.45   411.11   427.77   430.13   431.12
eigval :      450.53   451.14   470.69   485.00   490.99   495.12
eigval :      515.88   515.95   516.86   547.53   547.60   549.34
eigval :      551.23   576.10   580.72   590.10   592.84   606.20
eigval :      609.16   615.85   623.60   632.15   664.25   665.23
eigval :      682.68   683.02   693.70   693.92   696.03   712.21
eigval :      718.94   728.64   742.61   764.75   776.44   776.60
eigval :      777.68   779.03   805.92   814.09   823.53   825.65
eigval :      827.05   841.98   862.07   864.52   864.57   866.37
eigval :      866.51   867.84   909.83   910.52   911.94   912.09
eigval :      912.16   913.55   913.80   916.42   916.90   917.86
eigval :      920.24   920.69   921.45   922.41   922.50   924.50
eigval :      926.30   937.42   937.67   955.35   955.41  1001.93
eigval :     1014.81  1014.90  1015.20  1025.88  1076.50  1076.52
eigval :     1082.59  1084.92  1085.24  1088.12  1111.27  1111.43
eigval :     1117.53  1117.59  1129.73  1130.44  1138.96  1139.13
eigval :     1157.88  1157.93  1169.62  1170.24  1182.56  1183.57
eigval :     1184.30  1184.46  1185.49  1185.71  1204.29  1205.21
eigval :     1216.94  1233.75  1242.41  1244.81  1247.35  1247.48
eigval :     1254.79  1262.75  1265.74  1265.95  1275.74  1276.34
eigval :     1293.07  1293.12  1309.78  1310.74  1317.96  1319.09
eigval :     1323.98  1324.26  1333.14  1333.38  1337.08  1337.21
eigval :     1371.11  1398.90  1399.43  1399.62  1401.79  1418.24
eigval :     1418.36  1424.46  1435.36  1435.52  1439.88  1439.90
eigval :     1476.54  1476.59  1478.77  1481.36  1486.56  1486.64
eigval :     1487.37  1487.46  1495.99  1496.00  1496.99  1497.09
eigval :     1502.32  1502.37  1504.17  1547.73  1560.98  1562.09
eigval :     1573.59  1573.65  1586.31  1587.60  1590.24  1590.26
eigval :     1590.56  1591.60  1600.69  1600.73  3020.48  3020.49
eigval :     3023.15  3023.21  3037.40  3038.52  3038.53  3040.41
eigval :     3040.44  3047.21  3047.23  3051.46  3051.49  3071.38
eigval :     3071.55  3071.57  3071.62  3078.26  3078.34  3078.65
eigval :     3078.67  3084.66  3085.01  3088.73  3088.74  3089.14
eigval :     3089.19  3089.65  3089.67  3095.82  3096.03  3096.05
eigval :     3096.30  3097.37  3097.43  3107.46  3107.68  3116.44

   temp. (K)  partition function   enthalpy   heat capacity  entropy
                                   cal/mol     cal/K/mol   cal/K/mol   J/K/mol
 298.15  VIB  0.150E+22            24999.257    155.754    158.216
         ROT  0.720E+08              888.752      2.981     38.934
         INT  0.108E+30            25888.009    158.735    197.149
         TR   0.159E+29             1481.254      4.968     45.262
         TOT                       27369.2628   163.7029   242.4115  1014.2499

       T/K    H(0)-H(T)+PV         H(T)/Eh          T*S/Eh         G(T)/Eh
   ------------------------------------------------------------------------
    298.15    0.436157E-01    0.742617E+00    0.115178E+00    0.627439E+00
   ------------------------------------------------------------------------

         :::::::::::::::::::::::::::::::::::::::::::::::::::::
         ::                  THERMODYNAMIC                  ::
         :::::::::::::::::::::::::::::::::::::::::::::::::::::
         :: total free energy        -129.065711404197 Eh   ::
         ::.................................................::
         :: total energy             -129.693150493516 Eh   ::
         :: zero point energy           0.699000941140 Eh   ::
         :: G(RRHO) w/o ZPVE           -0.071561851820 Eh   ::
         :: G(RRHO) contrib.            0.627439089320 Eh   ::
         :::::::::::::::::::::::::::::::::::::::::::::::::::::

           -------------------------------------------------
          | TOTAL ENERGY             -129.693150493516 Eh   |
          | TOTAL ENTHALPY           -128.950533855798 Eh   |
          | TOTAL FREE ENERGY        -129.065711404197 Eh   |
          | GRADIENT NORM               0.000040535189 Eh/α |
          | HOMO-LUMO GAP               1.434873107597 eV   |
           -------------------------------------------------

 * finished run on 2025/08/29 at 12:05:39.788
