   * xtb version 6.7.1 (edcfbbe) compiled by 'albert@albert-system' on 2024-07-22

   ID    Z sym.   atoms
    1    6 C      1-9, 11-21, 23-39, 41, 43-50
    2    7 N      10, 22, 40, 42
    3    1 H      51-88

          program call               : xtb data2507/toluene/AcHPM/AcHPM_toluene_S0_finalOpt.xtbopt.xyz --gfn 2 --uhf 2 --gbsa toluene --ohess vtight --parallel 40 --molden --ceasefiles --namespace data2507/toluene/AcHPM/AcHPM_toluene_T1_preOpt
      * Solvation model:               GBSA
        Solvent                        toluene
        Solvent mass                       9.2140E+01 g/mol
          :  Hamiltonian                  GFN2-xTB          :
 * total energy  :  -129.6172545 Eh     change       -0.1702603E-08 Eh
 * total energy  :  -129.6207780 Eh     change       -0.3523436E-02 Eh
 * total energy  :  -129.6216264 Eh     change       -0.8483935E-03 Eh
 * total energy  :  -129.6217186 Eh     change       -0.9223124E-04 Eh
 * total energy  :  -129.6218179 Eh     change       -0.9933701E-04 Eh
 * total energy  :  -129.6218856 Eh     change       -0.6769317E-04 Eh
 * total energy  :  -129.6219623 Eh     change       -0.7667101E-04 Eh
 * total energy  :  -129.6220403 Eh     change       -0.7799792E-04 Eh
 * total energy  :  -129.6221079 Eh     change       -0.6764325E-04 Eh
 * total energy  :  -129.6221753 Eh     change       -0.6739889E-04 Eh
 * total energy  :  -129.6236256 Eh     change       -0.7302580E-06 Eh
 * total energy  :  -129.6236263 Eh     change       -0.7433759E-06 Eh
 * total energy  :  -129.6236271 Eh     change       -0.7273589E-06 Eh
 * total energy  :  -129.6236278 Eh     change       -0.7554607E-06 Eh
 * total energy  :  -129.6236286 Eh     change       -0.7412926E-06 Eh
 * total energy  :  -129.6236293 Eh     change       -0.7618925E-06 Eh
 * total energy  :  -129.6236301 Eh     change       -0.7514161E-06 Eh
 * total energy  :  -129.6236308 Eh     change       -0.7588911E-06 Eh
 * total energy  :  -129.6236308 Eh     change       -0.4482359E-08 Eh
   *** GEOMETRY OPTIMIZATION CONVERGED AFTER 260 ITERATIONS ***

 final structure:
================
88
 xtb: 6.7.1 (edcfbbe)
C          -10.34935215963418       -0.65660765134419       -0.73826443610569
C           -9.08069460836658       -1.36797333746843       -0.22852963208272
C           -9.42731450026995       -2.79027826504726        0.25392369626696
C           -8.51673206831070       -0.58764413750158        0.94091747949925
C           -9.29394831391699       -0.39297209629966        2.07471922787808
C           -8.82044732531865        0.28956235498246        3.18041209128670
C           -7.52693475912244        0.78773914916601        3.17083926656929
C           -6.73303363269550        0.61129228600407        2.05961502433179
C           -7.21583609731088       -0.06180986576221        0.92852265784477
N           -6.40024833787078       -0.20828793206275       -0.17591755221088
C           -5.09018598112206        0.35092161273557       -0.14796593811739
C           -4.90215765587756        1.72085682020917       -0.33898312466534
C           -3.63741137395034        2.25355413371126       -0.30365334421391
C           -2.50356864962281        1.44345872923203       -0.08747874809794
C           -1.20267703879131        2.05712239886461       -0.06153724687484
C           -0.00005277485799        1.35710290143691       -0.00815994740173
C            1.20262044677462        2.05791215302920        0.03102182267403
C            2.50343232985995        1.44462552226103        0.06811919335040
C            3.63746225775270        2.25807687103067        0.27019358504202
C            4.90223155380206        1.72598248378895        0.31315973519215
C            5.09026464575961        0.35312916674466        0.14384036915985
N            6.40028318130921       -0.20549247651959        0.17725693649752
C            6.81605648002940       -0.87259851244226        1.31241594613797
C            5.95890410144664       -0.95326982936387        2.41889186277569
C            6.33625075357784       -1.62701548472042        3.55902549102732
C            7.58197513784402       -2.23159020848902        3.62246726932852
C            8.43931175168620       -2.13626724891638        2.54147540543158
C            8.08795108874849       -1.46116786611599        1.38028811529279
C            9.07977643755052       -1.36739359131010        0.23932318410942
C           10.34796582228594       -0.65537299651705        0.74931625451449
C            9.42617779264996       -2.79160964111945       -0.23763512161242
C            8.51880222309846       -0.59076309289173       -0.93397704729225
C            9.29867834169615       -0.40097445159023       -2.06679395657631
C            8.82792016973802        0.27700381388826       -3.17642411087239
C            7.53421164928762        0.77469772343366       -3.17213283975776
C            6.73773252850286        0.60301179749124       -2.06200426817483
C            7.21806528660055       -0.06441330236032       -0.92646688761578
C            3.98349478273213       -0.46899642319194       -0.06498896518559
C            2.71583759809081        0.06339407765576       -0.09920807709650
N            1.16608685860840        3.43477743440924        0.03552345562349
C            0.00017252138578        4.02148776165024       -0.03543896760786
N           -1.16581308082142        3.43361037306207       -0.09408211897217
C           -2.71622934269335        0.06534298566720        0.10336298805131
C           -3.98385166030998       -0.46763492307291        0.07612486351083
C           -6.81845238555781       -0.87951790864025       -1.30760011841651
C           -5.96257894827410       -0.96626456836944       -2.41458638852477
C           -6.34272965166640       -1.64339928199182       -3.55177683790118
C           -7.58978917957957       -2.24563129928191       -3.61140986865266
C           -8.44539557765011       -2.14521184730880       -2.52948485708722
C           -8.09124186061213       -1.46661153912021       -1.37119801109819
H          -10.10014737510289        0.34510942591353       -1.08390840036364
H          -10.79320556946856       -1.20437927782569       -1.56431958720815
H          -11.08953622989855       -0.57336013860989        0.05203588129940
H           -8.52948707782871       -3.28933080138162        0.61432732385955
H           -9.84747049165579       -3.38050000091675       -0.55515767902685
H          -10.15013064673351       -2.75732081006270        1.06388006744928
H          -10.29877215492087       -0.78508401489932        2.10315334070234
H           -9.45247943873631        0.42533431472863        4.04483399623441
H           -7.13521040828801        1.31204801099529        4.02962322148951
H           -5.72437863926277        0.99352537167606        2.05671116402377
H           -5.76053304340052        2.35414680186582       -0.51263696341639
H           -3.47967214026181        3.31147237427886       -0.44723981512436
H           -0.00008220753889        0.27936600070746        0.00295429487343
H            3.47992618868026        3.31822393834616        0.39651851170800
H            5.76068306217389        2.36206251317261        0.47589686192464
H            4.99245921510572       -0.47628939511372        2.37404416077141
H            5.65875333730319       -1.67845788930314        4.39821630618141
H            7.88600202086671       -2.76640442583107        4.50938538149984
H            9.40997349745714       -2.60227187035076        2.61151972655180
H           10.09883719031551        0.34760516715037        1.09134368587303
H           10.78978106085117       -1.20090394370666        1.57794064835001
H           11.08977369370695       -0.57515263939918       -0.03977159321069
H            8.52863871004079       -3.29115185441660       -0.59808177160022
H            9.84431091938749       -3.37945314626920        0.57421757376389
H           10.15055645741311       -2.76196004243147       -1.04632001722152
H           10.30344245878381       -0.79350102321437       -2.09128588456926
H            9.46201881975949        0.40923321567810       -4.03987939922367
H            7.14423246163458        1.29479239886444       -4.03427236778972
H            5.72883775574862        0.98454746966878       -2.06378284627328
H            4.13312617990208       -1.53061930065943       -0.20306063275593
H            1.88133946680856       -0.59754318018654       -0.27550287494502
H            0.00025660527740        5.10661532460933       -0.04650343229617
H           -1.88194858052345       -0.59259289616495        0.29148676955628
H           -4.13368791712847       -1.52685266481898        0.23134311945570
H           -4.99504463565580       -0.49119872135000       -2.37233983795917
H           -5.66639822628856       -1.69939316534107       -4.39161900949188
H           -7.89608506343631       -2.78288072464671       -4.49607680714884
H           -9.41687011739361       -2.60997595707301       -2.59647529183862

          :  Hamiltonian                  GFN2-xTB          :
         :: gradient norm              0.000059907359 Eh/a0 ::
         :: HOMO-LUMO gap              0.681203795693 eV    ::
         :: SCC energy              -131.941796227506 Eh    ::
         :: -> dispersion             -0.120182553668 Eh    ::
         :: -> Gsolv                  -0.057344395064 Eh    ::
         :: repulsion energy           2.318165394493 Eh    ::

    * Orbital Energies and Occupations

         #    Occupation            Energy/Eh            Energy/eV
      -------------------------------------------------------------
         1        2.0000           -0.6758749             -18.3915
       ...           ...                  ...                  ...
       110        2.0000           -0.4072684             -11.0823
       111        2.0000           -0.4072570             -11.0820
       112        2.0000           -0.4051233             -11.0240
       113        2.0000           -0.4050516             -11.0220
       114        2.0000           -0.4009643             -10.9108
       115        2.0000           -0.4009430             -10.9102
       116        2.0000           -0.3892794             -10.5928
       117        2.0000           -0.3854627             -10.4890
       118        2.0000           -0.3845851             -10.4651
       119        1.8543           -0.3561371              -9.6910
       120        1.7088           -0.3553019              -9.6683
       121        1.4369           -0.3542156              -9.6387
       122        1.0000           -0.2757983              -7.5049 (HOMO)
       123        0.0000           -0.2507645              -6.8236 (LUMO)
       124                         -0.2345229              -6.3817
       125                         -0.2345036              -6.3812
       126                         -0.2273360              -6.1861
       127                         -0.2273198              -6.1857
       128                         -0.2269165              -6.1747
       129                         -0.2268942              -6.1741
       130                         -0.2205913              -6.0026
       131                         -0.2205089              -6.0004
       132                         -0.2079711              -5.6592
       133                         -0.2004189              -5.4537
       ...                                ...                  ...
       238                          0.6922416              18.8369
      -------------------------------------------------------------
                  HL-Gap            0.0250338 Eh            0.6812 eV

     #   Z          covCN         q      C6AA      α(0)
     1   6 C        3.761    -0.106    22.571     6.773
     2   6 C        3.909     0.023    20.130     6.377
     3   6 C        3.761    -0.106    22.568     6.772
     4   6 C        2.978    -0.006    28.171     8.706
     5   6 C        2.926    -0.035    28.870     8.811
     6   6 C        2.917    -0.037    28.918     8.818
     7   6 C        2.918    -0.030    28.759     8.794
     8   6 C        2.923    -0.051    29.266     8.872
     9   6 C        2.929     0.061    26.629     8.463
    10   7 N        2.754    -0.036    21.944     6.957
    11   6 C        2.928     0.043    27.031     8.526
    12   6 C        2.915    -0.041    29.028     8.835
    13   6 C        2.926    -0.037    28.924     8.820
    14   6 C        2.973    -0.009    28.233     8.716
    15   6 C        2.948     0.075    26.320     8.414
    16   6 C        2.910    -0.058    29.450     8.899
    17   6 C        2.948     0.075    26.319     8.414
    18   6 C        2.973    -0.009    28.232     8.716
    19   6 C        2.926    -0.037    28.924     8.820
    20   6 C        2.915    -0.041    29.028     8.835
    21   6 C        2.928     0.043    27.031     8.526
    22   7 N        2.754    -0.036    21.942     6.957
    23   6 C        2.929     0.061    26.630     8.463
    24   6 C        2.923    -0.051    29.269     8.872
    25   6 C        2.918    -0.031    28.762     8.795
    26   6 C        2.917    -0.037    28.921     8.819
    27   6 C        2.926    -0.035    28.869     8.811
    28   6 C        2.978    -0.006    28.170     8.706
    29   6 C        3.909     0.023    20.130     6.377
    30   6 C        3.761    -0.106    22.571     6.773
    31   6 C        3.761    -0.106    22.568     6.772
    32   6 C        2.978    -0.006    28.171     8.706
    33   6 C        2.926    -0.035    28.870     8.811
    34   6 C        2.917    -0.037    28.917     8.818
    35   6 C        2.918    -0.030    28.759     8.794
    36   6 C        2.923    -0.051    29.266     8.872
    37   6 C        2.929     0.061    26.630     8.463
    38   6 C        2.916    -0.042    29.044     8.837
    39   6 C        2.920    -0.044    29.105     8.847
    40   7 N        1.841    -0.295    28.495     7.911
    41   6 C        2.851     0.162    24.496     8.112
    42   7 N        1.841    -0.295    28.494     7.911
    43   6 C        2.920    -0.044    29.105     8.847
    44   6 C        2.916    -0.042    29.045     8.838
    45   6 C        2.929     0.061    26.630     8.463
    46   6 C        2.923    -0.051    29.269     8.872
    47   6 C        2.918    -0.031    28.762     8.795
    48   6 C        2.917    -0.037    28.921     8.819
    49   6 C        2.926    -0.035    28.869     8.811
    50   6 C        2.978    -0.006    28.171     8.706
    51   1 H        0.925     0.034     2.530     2.487
    52   1 H        0.925     0.048     2.345     2.395
    53   1 H        0.925     0.048     2.344     2.394
    54   1 H        0.925     0.034     2.532     2.488
    55   1 H        0.925     0.048     2.344     2.394
    56   1 H        0.925     0.048     2.345     2.395
    57   1 H        0.926     0.044     2.401     2.423
    58   1 H        0.926     0.037     2.487     2.466
    59   1 H        0.926     0.036     2.509     2.477
    60   1 H        0.926     0.036     2.506     2.475
    61   1 H        0.926     0.034     2.531     2.488
    62   1 H        0.926     0.044     2.394     2.419
    63   1 H        0.926     0.022     2.710     2.574
    64   1 H        0.926     0.044     2.394     2.420
    65   1 H        0.926     0.034     2.530     2.487
    66   1 H        0.926     0.036     2.509     2.477
    67   1 H        0.926     0.035     2.510     2.478
    68   1 H        0.926     0.037     2.488     2.467
    69   1 H        0.926     0.044     2.401     2.423
    70   1 H        0.925     0.034     2.530     2.487
    71   1 H        0.925     0.048     2.345     2.395
    72   1 H        0.925     0.048     2.344     2.394
    73   1 H        0.925     0.034     2.532     2.488
    74   1 H        0.925     0.048     2.343     2.394
    75   1 H        0.925     0.048     2.345     2.395
    76   1 H        0.926     0.044     2.401     2.423
    77   1 H        0.926     0.037     2.487     2.466
    78   1 H        0.926     0.036     2.509     2.477
    79   1 H        0.926     0.036     2.505     2.475
    80   1 H        0.926     0.033     2.545     2.494
    81   1 H        0.926     0.027     2.633     2.537
    82   1 H        0.925     0.016     2.796     2.615
    83   1 H        0.926     0.027     2.633     2.537
    84   1 H        0.926     0.033     2.545     2.495
    85   1 H        0.926     0.035     2.510     2.477
    86   1 H        0.926     0.035     2.511     2.478
    87   1 H        0.926     0.037     2.488     2.467
    88   1 H        0.926     0.044     2.402     2.423

molecular dipole:
                 x           y           z       tot (Debye)
 q only:        0.005      -2.696       0.019
   full:        0.005      -2.807       0.021       7.136

 projected vibrational frequencies (cm⁻¹)
eigval :       -0.00    -0.00    -0.00    -0.00     0.00     0.00
eigval :       -3.49     4.87    15.02    16.34    22.28    24.40
eigval :       31.06    35.73    41.01    53.41    67.74    81.24
eigval :       95.01    99.40    99.67   101.62   103.27   111.34
eigval :      139.73   140.52   141.98   165.62   171.72   175.37
eigval :      201.22   204.02   205.48   219.85   220.19   225.94
eigval :      232.26   235.26   289.80   298.98   300.81   319.43
eigval :      324.91   326.19   327.29   327.48   338.99   342.25
eigval :      355.28   373.02   374.31   378.00   378.50   384.33
eigval :      389.35   406.35   408.33   412.12   424.79   429.84
eigval :      451.90   452.11   458.75   463.03   485.30   508.31
eigval :      508.35   510.64   511.45   543.59   544.88   544.92
eigval :      549.03   557.53   576.07   582.08   588.67   592.43
eigval :      602.11   607.58   608.64   618.71   649.18   658.31
eigval :      660.03   678.55   680.40   688.45   688.49   701.21
eigval :      701.22   705.43   724.17   751.40   773.86   774.03
eigval :      775.54   775.77   793.31   793.80   808.95   814.63
eigval :      824.37   824.41   845.48   846.43   871.38   871.50
eigval :      873.46   873.94   895.81   895.96   901.28   905.20
eigval :      911.63   911.74   912.63   913.51   913.91   914.72
eigval :      914.77   914.98   915.30   922.26   922.45   922.61
eigval :      922.68   936.80   936.89   957.03   957.27   957.83
eigval :      996.36  1001.05  1010.58  1010.69  1042.23  1050.26
eigval :     1073.88  1073.93  1083.88  1084.37  1105.10  1106.99
eigval :     1112.07  1112.13  1121.06  1130.86  1137.04  1137.07
eigval :     1150.51  1150.55  1157.50  1167.19  1168.17  1181.40
eigval :     1181.47  1183.02  1183.10  1185.16  1197.38  1202.24
eigval :     1205.59  1237.04  1238.10  1241.72  1241.76  1252.23
eigval :     1255.88  1258.79  1259.59  1265.95  1285.76  1292.12
eigval :     1292.23  1304.23  1305.87  1312.73  1314.21  1314.87
eigval :     1324.02  1327.50  1327.65  1333.16  1333.29  1333.89
eigval :     1341.70  1392.84  1396.76  1396.80  1408.30  1411.90
eigval :     1415.39  1415.42  1422.03  1422.33  1428.90  1429.99
eigval :     1436.44  1437.25  1457.05  1457.13  1466.93  1477.95
eigval :     1478.24  1483.50  1483.67  1484.76  1484.80  1485.27
eigval :     1494.86  1495.19  1498.61  1498.74  1500.37  1504.55
eigval :     1556.08  1556.08  1567.80  1570.24  1570.60  1579.34
eigval :     1579.38  1587.73  1589.81  1591.14  3008.64  3025.26
eigval :     3025.27  3027.33  3027.35  3044.87  3044.90  3046.64
eigval :     3046.71  3052.04  3052.08  3055.52  3055.70  3070.22
eigval :     3070.49  3074.01  3074.24  3079.66  3079.72  3080.67
eigval :     3080.71  3085.11  3086.32  3086.52  3087.41  3087.46
eigval :     3089.42  3096.13  3096.27  3096.54  3096.90  3097.26
eigval :     3097.44  3098.53  3106.07  3106.38  3106.68  3107.14

   temp. (K)  partition function   enthalpy   heat capacity  entropy
                                   cal/mol     cal/K/mol   cal/K/mol   J/K/mol
 298.15  VIB  0.372E+21            25087.325    157.379    157.247
         ROT  0.726E+08              888.752      2.981     38.953
         INT  0.271E+29            25976.077    160.360    196.199
         TR   0.159E+29             1481.254      4.968     45.262
         TOT                       27457.3314   165.3281   241.4615  1010.2750

       T/K    H(0)-H(T)+PV         H(T)/Eh          T*S/Eh         G(T)/Eh
   ------------------------------------------------------------------------
    298.15    0.437560E-01    0.739755E+00    0.114726E+00    0.625029E+00
   ------------------------------------------------------------------------

         :::::::::::::::::::::::::::::::::::::::::::::::::::::
         ::                  THERMODYNAMIC                  ::
         :::::::::::::::::::::::::::::::::::::::::::::::::::::
         :: total free energy        -128.998601680545 Eh   ::
         ::.................................................::
         :: total energy             -129.623630833912 Eh   ::
         :: zero point energy           0.695999267180 Eh   ::
         :: G(RRHO) w/o ZPVE           -0.070970113813 Eh   ::
         :: G(RRHO) contrib.            0.625029153367 Eh   ::
         :::::::::::::::::::::::::::::::::::::::::::::::::::::

           -------------------------------------------------
          | TOTAL ENERGY             -129.623630833912 Eh   |
          | TOTAL ENTHALPY           -128.883875523997 Eh   |
          | TOTAL FREE ENERGY        -128.998601680545 Eh   |
          | GRADIENT NORM               0.000059914916 Eh/α |
          | HOMO-LUMO GAP               0.681204360195 eV   |
           -------------------------------------------------

 * finished run on 2025/08/29 at 12:12:44.895
