   * xtb version 6.7.1 (edcfbbe) compiled by 'albert@albert-system' on 2024-07-22

   ID    Z sym.   atoms
    1    6 C      1-6, 8-22, 24-35, 39-42, 44-57
    2    7 N      7, 23, 43
    3   16 S      36
    4    8 O      37, 38
    5    1 H      58-92

          program call               : xtb data2507/toluene/2Cz-DMAC-BTB/2Cz-DMAC-BTB_toluene_S0_crest.xyz --gfn 2 --gbsa toluene --ohess vtight --parallel 40 --molden --ceasefiles --namespace data2507/toluene/2Cz-DMAC-BTB/2Cz-DMAC-BTB_toluene_S0_finalOpt
      * Solvation model:               GBSA
        Solvent                        toluene
        Solvent mass                       9.2140E+01 g/mol
          :  Hamiltonian                  GFN2-xTB          :
 * total energy  :  -147.3743990 Eh     change       -0.1409319E-08 Eh
 * total energy  :  -147.3745155 Eh     change       -0.1165141E-03 Eh
 * total energy  :  -147.3745803 Eh     change       -0.6477086E-04 Eh
 * total energy  :  -147.3745893 Eh     change       -0.9014156E-05 Eh
 * total energy  :  -147.3746012 Eh     change       -0.1191074E-04 Eh
 * total energy  :  -147.3746052 Eh     change       -0.3967754E-05 Eh
 * total energy  :  -147.3746140 Eh     change       -0.8837527E-05 Eh
 * total energy  :  -147.3746194 Eh     change       -0.5361557E-05 Eh
 * total energy  :  -147.3746357 Eh     change       -0.1630265E-04 Eh
 * total energy  :  -147.3746467 Eh     change       -0.1106534E-04 Eh
 * total energy  :  -147.3746780 Eh     change       -0.1530945E-06 Eh
 * total energy  :  -147.3746782 Eh     change       -0.1176444E-06 Eh
 * total energy  :  -147.3746783 Eh     change       -0.1512934E-06 Eh
 * total energy  :  -147.3746785 Eh     change       -0.2091305E-06 Eh
 * total energy  :  -147.3746788 Eh     change       -0.2411348E-06 Eh
 * total energy  :  -147.3746790 Eh     change       -0.2312094E-06 Eh
 * total energy  :  -147.3746792 Eh     change       -0.1842509E-06 Eh
 * total energy  :  -147.3746793 Eh     change       -0.1362377E-06 Eh
 * total energy  :  -147.3746793 Eh     change       -0.8087397E-09 Eh
   *** GEOMETRY OPTIMIZATION CONVERGED AFTER 44 ITERATIONS ***

 final structure:
================
92
 xtb: 6.7.1 (edcfbbe)
C            0.45359247959634        2.97159047237370        1.40522693124153
C            0.40628588016710        2.27882637038863        0.03054259908971
C            0.57540175914423        3.31704858870967       -1.09427581896901
C            1.54486771060913        1.27921410932795       -0.04326962388798
C            2.84775926152580        1.73119243813905        0.09895626174329
C            3.93430030006456        0.86627508026473        0.08535798048941
N            5.23770060380930        1.36832220341434        0.23884544400634
C            5.66420875872451        2.21157410669676        1.24366395800369
C            4.96649000124060        2.70950068865994        2.33589590089460
C            5.64379917719078        3.53208025426794        3.21519512042208
C            6.98742851129571        3.85092032959841        3.02522065161434
C            7.69375478364619        3.33928727636729        1.95484075870205
C            7.03450927638918        2.50964627761017        1.05623256397364
C            7.44586344627815        1.80433361533439       -0.12508873082393
C            8.64894010539126        1.70914052625314       -0.81337580758371
C            8.69923981296302        0.93489069216023       -1.95547178417766
C            7.56560267446907        0.27107779254353       -2.42174421271995
C            6.35780953510136        0.35083180422410       -1.75569857432735
C            6.30563884895508        1.11064060555421       -0.59497512852500
C            3.70953408402354       -0.49636558280003       -0.06824341118772
C            2.42285548995926       -0.96217549339574       -0.22820638439421
C            1.32942141345912       -0.09027797755223       -0.23440382289796
N            0.04611731071991       -0.59454504062080       -0.39576438665257
C           -0.12591606098101       -1.98251538070990       -0.63125167952449
C            0.21965322139441       -2.52242553445660       -1.86868138927609
C            0.05467275689031       -3.87963587006440       -2.10794768801088
C           -0.46056852114806       -4.66512600512111       -1.10340371055062
C           -0.81697849401397       -4.14779503455745        0.14120281379837
C           -0.64265069658743       -2.79088987596434        0.37873049074559
C           -1.34890619874532       -5.14150554889871        1.07500567484343
C           -1.78690049019908       -4.92014465880660        2.37602857017233
C           -2.26384217705242       -5.98814281146818        3.12064269532836
C           -2.31002825840631       -7.26784552852584        2.58834948272118
C           -1.87637671495034       -7.50078960480879        1.28787475512849
C           -1.40573996078702       -6.43480619475929        0.55893562276394
S           -0.78654783972813       -6.42919673560842       -1.12368498195026
O            0.44097152671774       -7.18516562649348       -1.23839637336208
O           -1.82742492343780       -6.75692471414157       -2.07265171727922
C           -1.07157523546114        0.22812339607124       -0.35539405449589
C           -2.34390442025507       -0.31482375556728       -0.56207343713442
C           -3.47354991801009        0.47303645043393       -0.52635532620602
C           -3.35526614276826        1.83507101003533       -0.27864691258651
N           -4.49267637098558        2.65898999749924       -0.22930826604542
C           -4.68036765538333        3.81746113020818       -0.95340440987281
C           -3.85816954593229        4.40861625896166       -1.90309828244027
C           -4.29800458671999        5.57245876363565       -2.50359185852753
C           -5.53009324575093        6.13798405396177       -2.17887923234070
C           -6.36247887056823        5.54276171835678       -1.25183610517141
C           -5.94212519036434        4.37184318053514       -0.63324803413886
C           -6.53722889794498        3.49441981690077        0.33543474228443
C           -7.74199304834666        3.50732920942057        1.02729336537544
C           -8.00164250313187        2.49020048798557        1.92423027985457
C           -7.07302467134113        1.47423090822423        2.14456407106342
C           -5.86828956841587        1.43917666619492        1.46922691605008
C           -5.60914288357846        2.44862281270018        0.55214637386224
C           -2.09122784556365        2.37910231893501       -0.09225114823504
C           -0.94216770238621        1.60463962830532       -0.13732918262741
H            1.39239084927400        3.50158467676172        1.53808230232389
H            0.35757285552333        2.23209190705612        2.19822449068425
H           -0.35542835737437        3.68917040177555        1.50627829493083
H            0.51390075147882        2.82788843020134       -2.06488811304898
H           -0.20074535524652        4.07509772616243       -1.03946724060890
H            1.53829836907391        3.81440992126683       -1.02193114501950
H            3.04123708610995        2.78549811691038        0.21891834230793
H            3.93149794764030        2.45193987547384        2.50160099194717
H            5.12211247090278        3.93486041227077        4.07143562792578
H            7.48147434275431        4.50037441967217        3.73319680339346
H            8.73895047652865        3.57404895165667        1.81735441500986
H            9.52469800832396        2.23344358995500       -0.46032859039760
H            9.62617100986324        0.84548681347714       -2.50320134699496
H            7.63305763616767       -0.31715059441142       -3.32567153979480
H            5.48175438393277       -0.15574314411637       -2.13176437483271
H            4.53777431750906       -1.18794574541594       -0.04919864611055
H            2.26304036395109       -2.02334587389550       -0.33569730808819
H            0.61745141243234       -1.87700624044466       -2.63672210818781
H            0.31551347520492       -4.31709883072913       -3.05859049961092
H           -0.90252098837883       -2.35108569783673        1.32859083725908
H           -1.75745452623916       -3.93106914561899        2.80417626089683
H           -2.60438909315990       -5.82034599131185        4.13113067972350
H           -2.68368432982062       -8.08765146993055        3.18189432755139
H           -1.90273615042256       -8.48631859470359        0.84987132631132
H           -2.45073919762794       -1.36743448055668       -0.77078870206320
H           -4.44454321238989        0.03696507866633       -0.70416097214590
H           -2.91171654185074        3.96654826061509       -2.17503979864889
H           -3.67540564475834        6.05360427191695       -3.24418801248050
H           -5.83789233956140        7.05027726056974       -2.66891733620356
H           -7.32370384303214        5.97344926535769       -1.01287610437814
H           -8.45686565076436        4.30086145967993        0.86655140769052
H           -8.93372669590175        2.48124731339416        2.47041675636082
H           -7.30058091021988        0.69845211882963        2.86141460362375
H           -5.14961526143782        0.65524101117370        1.65445847857027
H           -2.01909815106214        3.43869510399425        0.09617793084310

          :  Hamiltonian                  GFN2-xTB          :
         :: gradient norm              0.000021681253 Eh/a0 ::
         :: HOMO-LUMO gap              1.555853928842 eV    ::
         :: SCC energy              -149.962709844730 Eh    ::
         :: -> dispersion             -0.136907732772 Eh    ::
         :: -> Gsolv                  -0.067492653737 Eh    ::
         :: repulsion energy           2.588030533285 Eh    ::

    * Orbital Energies and Occupations

         #    Occupation            Energy/Eh            Energy/eV
      -------------------------------------------------------------
         1        2.0000           -0.7829019             -21.3038
       ...           ...                  ...                  ...
       124        2.0000           -0.4161239             -11.3233
       125        2.0000           -0.4153230             -11.3015
       126        2.0000           -0.4139772             -11.2649
       127        2.0000           -0.4123410             -11.2204
       128        2.0000           -0.4094122             -11.1407
       129        2.0000           -0.4043544             -11.0030
       130        2.0000           -0.4033553             -10.9759
       131        2.0000           -0.4029940             -10.9660
       132        2.0000           -0.3767277             -10.2513
       133        2.0000           -0.3766511             -10.2492
       134        2.0000           -0.3713786             -10.1057
       135        2.0000           -0.3611384              -9.8271
       136        2.0000           -0.3485326              -9.4841 (HOMO)
       137                         -0.2913560              -7.9282 (LUMO)
       138                         -0.2675819              -7.2813
       139                         -0.2563054              -6.9744
       140                         -0.2451601              -6.6711
       141                         -0.2433081              -6.6208
       142                         -0.2366786              -6.4404
       143                         -0.2309347              -6.2841
       144                         -0.2302531              -6.2655
       145                         -0.2243342              -6.1044
       146                         -0.2202091              -5.9922
       147                         -0.2201181              -5.9897
       ...                                ...                  ...
       268                          1.1771055              32.0307
      -------------------------------------------------------------
                  HL-Gap            0.0571766 Eh            1.5559 eV

     #   Z          covCN         q      C6AA      α(0)
     1   6 C        3.761    -0.106    22.574     6.773
     2   6 C        3.909     0.024    20.118     6.375
     3   6 C        3.761    -0.106    22.565     6.772
     4   6 C        2.979    -0.008    28.221     8.714
     5   6 C        2.930    -0.049    29.209     8.863
     6   6 C        2.910     0.051    26.858     8.498
     7   7 N        2.802    -0.045    22.112     6.984
     8   6 C        3.078     0.047    26.866     8.498
     9   6 C        2.910    -0.053    29.318     8.879
    10   6 C        2.923    -0.036    28.894     8.815
    11   6 C        2.919    -0.044    29.086     8.844
    12   6 C        2.912    -0.035    28.882     8.812
    13   6 C        3.067    -0.020    28.431     8.743
    14   6 C        3.068    -0.020    28.432     8.743
    15   6 C        2.912    -0.036    28.885     8.813
    16   6 C        2.919    -0.044    29.086     8.844
    17   6 C        2.924    -0.036    28.892     8.815
    18   6 C        2.909    -0.053    29.308     8.877
    19   6 C        3.078     0.047    26.864     8.498
    20   6 C        2.921    -0.045    29.113     8.848
    21   6 C        2.924    -0.058    29.451     8.900
    22   6 C        2.926     0.053    26.820     8.493
    23   7 N        2.754    -0.054    22.285     7.011
    24   6 C        2.926     0.074    26.338     8.416
    25   6 C        2.925    -0.033    28.830     8.805
    26   6 C        2.925    -0.015    28.397     8.739
    27   6 C        2.989    -0.080    29.994     8.984
    28   6 C        3.114     0.008    27.674     8.617
    29   6 C        2.922    -0.037    28.909     8.817
    30   6 C        3.115     0.006    27.733     8.626
    31   6 C        2.919    -0.022    28.560     8.764
    32   6 C        2.919    -0.020    28.514     8.757
    33   6 C        2.924    -0.020    28.495     8.754
    34   6 C        2.926    -0.016    28.411     8.741
    35   6 C        2.991    -0.076    29.881     8.967
    36  16 S        3.943     0.962   107.762    17.472
    37   8 O        0.860    -0.573    25.454     6.764
    38   8 O        0.860    -0.572    25.451     6.764
    39   6 C        2.926     0.053    26.818     8.493
    40   6 C        2.923    -0.059    29.460     8.901
    41   6 C        2.921    -0.045    29.110     8.848
    42   6 C        2.910     0.051    26.859     8.498
    43   7 N        2.802    -0.045    22.115     6.984
    44   6 C        3.078     0.047    26.866     8.498
    45   6 C        2.909    -0.053    29.319     8.879
    46   6 C        2.923    -0.036    28.895     8.815
    47   6 C        2.919    -0.044    29.088     8.844
    48   6 C        2.912    -0.036    28.883     8.813
    49   6 C        3.067    -0.020    28.434     8.744
    50   6 C        3.068    -0.020    28.433     8.744
    51   6 C        2.912    -0.036    28.884     8.813
    52   6 C        2.919    -0.044    29.088     8.844
    53   6 C        2.924    -0.036    28.893     8.815
    54   6 C        2.909    -0.053    29.310     8.877
    55   6 C        3.078     0.047    26.864     8.498
    56   6 C        2.930    -0.048    29.201     8.862
    57   6 C        2.979    -0.008    28.220     8.714
    58   1 H        0.925     0.045     2.378     2.412
    59   1 H        0.925     0.035     2.517     2.481
    60   1 H        0.925     0.045     2.377     2.411
    61   1 H        0.925     0.034     2.536     2.490
    62   1 H        0.925     0.045     2.378     2.412
    63   1 H        0.925     0.045     2.382     2.413
    64   1 H        0.926     0.048     2.346     2.395
    65   1 H        0.926     0.032     2.555     2.500
    66   1 H        0.926     0.029     2.597     2.520
    67   1 H        0.926     0.026     2.651     2.546
    68   1 H        0.926     0.027     2.624     2.533
    69   1 H        0.926     0.028     2.617     2.530
    70   1 H        0.926     0.025     2.654     2.547
    71   1 H        0.926     0.028     2.618     2.530
    72   1 H        0.926     0.029     2.596     2.520
    73   1 H        0.926     0.041     2.437     2.441
    74   1 H        0.926     0.035     2.515     2.480
    75   1 H        0.926     0.072     2.059     2.244
    76   1 H        0.926     0.061     2.192     2.315
    77   1 H        0.926     0.078     2.003     2.213
    78   1 H        0.926     0.073     2.055     2.242
    79   1 H        0.926     0.071     2.075     2.253
    80   1 H        0.926     0.068     2.104     2.269
    81   1 H        0.926     0.054     2.274     2.358
    82   1 H        0.926     0.036     2.503     2.474
    83   1 H        0.926     0.041     2.430     2.438
    84   1 H        0.926     0.031     2.569     2.507
    85   1 H        0.926     0.028     2.608     2.525
    86   1 H        0.926     0.025     2.656     2.549
    87   1 H        0.926     0.027     2.625     2.533
    88   1 H        0.926     0.027     2.624     2.533
    89   1 H        0.926     0.025     2.653     2.547
    90   1 H        0.926     0.029     2.602     2.522
    91   1 H        0.926     0.031     2.578     2.511
    92   1 H        0.926     0.048     2.348     2.396

molecular dipole:
                 x           y           z       tot (Debye)
 q only:       -0.574       1.356       2.280
   full:       -0.542       1.044       2.032       5.967

 projected vibrational frequencies (cm⁻¹)
eigval :       -0.00    -0.00    -0.00     0.00     0.00     0.00
eigval :       10.31    12.53    14.35    19.08    19.98    21.93
eigval :       33.67    35.96    41.64    52.12    72.20    79.63
eigval :       90.57    98.07   103.37   105.38   109.96   115.71
eigval :      124.13   124.45   128.10   144.43   146.61   163.92
eigval :      173.06   175.70   186.64   189.79   197.66   205.04
eigval :      235.58   240.76   242.16   271.99   272.34   278.01
eigval :      286.38   291.76   310.29   314.66   328.03   334.73
eigval :      344.59   354.80   359.79   366.72   385.08   392.63
eigval :      395.05   396.48   402.31   411.64   421.39   424.44
eigval :      428.71   433.16   434.96   442.37   452.82   467.47
eigval :      470.59   486.88   501.76   507.90   514.71   517.49
eigval :      518.25   524.49   527.81   531.18   541.32   541.42
eigval :      545.83   558.68   568.81   586.07   587.98   588.40
eigval :      595.06   604.41   626.10   631.02   636.19   639.67
eigval :      672.62   673.36   679.09   681.74   682.56   685.38
eigval :      691.41   701.30   701.73   708.11   709.16   710.09
eigval :      751.75   755.36   761.92   766.37   767.69   772.68
eigval :      777.99   779.43   805.35   821.02   825.55   827.71
eigval :      843.69   865.98   868.08   869.32   869.80   871.37
eigval :      878.27   892.33   892.84   898.29   898.65   899.04
eigval :      899.51   904.18   905.71   909.30   910.73   913.72
eigval :      914.94   915.61   920.66   920.72   921.01   923.64
eigval :      924.36   929.55   942.41   957.29   992.33   996.42
eigval :     1008.66  1011.29  1011.59  1014.75  1020.34  1068.17
eigval :     1068.49  1070.07  1071.76  1072.60  1081.05  1093.46
eigval :     1094.70  1100.95  1120.21  1124.18  1146.14  1149.63
eigval :     1149.80  1150.24  1157.56  1158.86  1166.43  1173.84
eigval :     1175.48  1176.01  1180.62  1180.70  1183.53  1187.90
eigval :     1192.69  1192.72  1217.02  1222.57  1228.11  1234.95
eigval :     1235.47  1237.14  1243.90  1250.08  1261.65  1265.55
eigval :     1271.25  1297.41  1299.06  1302.37  1304.55  1306.11
eigval :     1309.02  1319.33  1322.53  1329.23  1344.31  1355.89
eigval :     1356.01  1361.15  1361.55  1369.55  1384.13  1396.26
eigval :     1399.21  1412.07  1415.86  1418.08  1421.38  1427.49
eigval :     1428.00  1437.51  1441.23  1448.89  1453.75  1473.75
eigval :     1474.91  1476.95  1484.77  1487.39  1487.48  1488.61
eigval :     1496.26  1498.56  1499.82  1557.51  1560.49  1566.23
eigval :     1569.96  1572.23  1575.66  1576.53  1586.88  1587.18
eigval :     1592.88  1594.27  1596.74  1596.82  1598.76  1613.02
eigval :     1613.25  3022.39  3025.11  3041.98  3044.15  3051.40
eigval :     3055.74  3068.93  3069.15  3070.02  3070.04  3074.32
eigval :     3074.70  3075.52  3075.96  3082.66  3083.31  3084.48
eigval :     3085.03  3089.83  3090.42  3090.48  3092.48  3092.96
eigval :     3093.09  3093.43  3096.10  3098.00  3101.08  3101.64
eigval :     3103.32  3106.44  3106.85  3107.43  3108.08  3109.95

   temp. (K)  partition function   enthalpy   heat capacity  entropy
                                   cal/mol     cal/K/mol   cal/K/mol   J/K/mol
 298.15  VIB  0.419E+21            26855.815    170.963    165.464
         ROT  0.181E+09              888.752      2.981     40.764
         INT  0.757E+29            27744.567    173.944    206.229
         TR   0.200E+29             1481.254      4.968     45.719
         TOT                       29225.8214   178.9123   251.9477  1054.1490

       T/K    H(0)-H(T)+PV         H(T)/Eh          T*S/Eh         G(T)/Eh
   ------------------------------------------------------------------------
    298.15    0.465743E-01    0.748103E+00    0.119708E+00    0.628395E+00
   ------------------------------------------------------------------------

         :::::::::::::::::::::::::::::::::::::::::::::::::::::
         ::                  THERMODYNAMIC                  ::
         :::::::::::::::::::::::::::::::::::::::::::::::::::::
         :: total free energy        -146.746284519150 Eh   ::
         ::.................................................::
         :: total energy             -147.374679309727 Eh   ::
         :: zero point energy           0.701528940117 Eh   ::
         :: G(RRHO) w/o ZPVE           -0.073134149540 Eh   ::
         :: G(RRHO) contrib.            0.628394790577 Eh   ::
         :::::::::::::::::::::::::::::::::::::::::::::::::::::

           -------------------------------------------------
          | TOTAL ENERGY             -147.374679309727 Eh   |
          | TOTAL ENTHALPY           -146.626576058684 Eh   |
          | TOTAL FREE ENERGY        -146.746284519150 Eh   |
          | GRADIENT NORM               0.000021687430 Eh/α |
          | HOMO-LUMO GAP               1.555854236936 eV   |
           -------------------------------------------------

 * finished run on 2025/07/17 at 23:18:11.234
