   * xtb version 6.7.1 (edcfbbe) compiled by 'albert@albert-system' on 2024-07-22

   ID    Z sym.   atoms
    1    6 C      1-6, 8-22, 24-35, 39-42, 44-57
    2    7 N      7, 23, 43
    3   16 S      36
    4    8 O      37, 38
    5    1 H      58-92

          program call               : xtb data2507/toluene/2Cz-DMAC-BTB/2Cz-DMAC-BTB_toluene_T1_crest.xyz --gfn 2 --uhf 2 --gbsa toluene --ohess vtight --parallel 40 --molden --ceasefiles --namespace data2507/toluene/2Cz-DMAC-BTB/2Cz-DMAC-BTB_toluene_T1_finalOpt
      * Solvation model:               GBSA
        Solvent                        toluene
        Solvent mass                       9.2140E+01 g/mol
          :  Hamiltonian                  GFN2-xTB          :
 * total energy  :  -147.2934536 Eh     change       -0.3144012E-07 Eh
 * total energy  :  -147.2938742 Eh     change       -0.4206094E-03 Eh
 * total energy  :  -147.2941395 Eh     change       -0.2653081E-03 Eh
 * total energy  :  -147.2941631 Eh     change       -0.2354908E-04 Eh
 * total energy  :  -147.2941830 Eh     change       -0.1991482E-04 Eh
 * total energy  :  -147.2941886 Eh     change       -0.5610380E-05 Eh
 * total energy  :  -147.2941917 Eh     change       -0.3049656E-05 Eh
 * total energy  :  -147.2941945 Eh     change       -0.2821053E-05 Eh
 * total energy  :  -147.2941986 Eh     change       -0.4169453E-05 Eh
 * total energy  :  -147.2942032 Eh     change       -0.4581964E-05 Eh
 * total energy  :  -147.2942198 Eh     change       -0.1489639E-06 Eh
 * total energy  :  -147.2942199 Eh     change       -0.1341236E-06 Eh
 * total energy  :  -147.2942201 Eh     change       -0.1599518E-06 Eh
 * total energy  :  -147.2942203 Eh     change       -0.1918466E-06 Eh
 * total energy  :  -147.2942205 Eh     change       -0.2015426E-06 Eh
 * total energy  :  -147.2942207 Eh     change       -0.2230401E-06 Eh
 * total energy  :  -147.2942209 Eh     change       -0.2370635E-06 Eh
 * total energy  :  -147.2942211 Eh     change       -0.1699150E-06 Eh
 * total energy  :  -147.2942212 Eh     change       -0.5527517E-07 Eh
   *** GEOMETRY OPTIMIZATION CONVERGED AFTER 43 ITERATIONS ***

 final structure:
================
92
 xtb: 6.7.1 (edcfbbe)
C            0.31126669126706        2.99404699673353        1.43924879018733
C            0.28902768328544        2.32412365281062        0.05108982420976
C            0.43009142300715        3.39014575506059       -1.05322680091123
C            1.45667269447561        1.36449125191343       -0.03537039571874
C            2.74245381980550        1.84071301263817        0.11824904990945
C            3.85977151115874        1.00398413462872        0.04292073500112
N            5.13643564300462        1.52562976472702        0.19381056795067
C            5.53367186118749        2.43121087368679        1.16497528910382
C            4.81803050696842        2.95600852025673        2.23190357146814
C            5.47392310154161        3.82370040600752        3.08758534466826
C            6.81332957418820        4.15483827959141        2.89897489699361
C            7.54275681548476        3.60491517229102        1.86023914859545
C            6.90485256576064        2.73226666828896        0.99006349599877
C            7.35094885468342        1.96929140824596       -0.14500750995605
C            8.56864171778065        1.86547673822744       -0.80196756234421
C            8.65444244201237        1.04191911021723       -1.91006221556561
C            7.54061164189495        0.34652998488606       -2.37387182159166
C            6.31615843591643        0.43599648849176       -1.73496664864781
C            6.23223630551660        1.23361627794114       -0.60250115949194
C            3.66509359541019       -0.36771172734069       -0.17661087286892
C            2.39641142315011       -0.86363487496998       -0.31354751780981
C            1.27115757607537       -0.01700067970462       -0.26224710596426
N            0.01739394369505       -0.54733267598790       -0.40899304424890
C           -0.11061007871820       -1.95280675559267       -0.63891047279106
C            0.11399498589555       -2.44149690927054       -1.94520485129002
C           -0.01057673842016       -3.80558013756348       -2.17797681498830
C           -0.34150183231151       -4.63812289284478       -1.14223816094921
C           -0.57387742275295       -4.16523778715562        0.18443088190876
C           -0.44720050260618       -2.78215951414095        0.40523534653416
C           -0.90706783142669       -5.18196624754331        1.11903760324612
C           -1.19539906783708       -5.05184904522791        2.49191712077760
C           -1.50140518632037       -6.16368181120908        3.23799322265976
C           -1.53529957864952       -7.44201479861362        2.66631074715335
C           -1.25599690773559       -7.59685191263302        1.31462961353136
C           -0.94984122060897       -6.48735428124721        0.56820519503877
S           -0.56040329960439       -6.39873876092504       -1.16124036576563
O            0.68334100245625       -7.09209585766321       -1.48254063887801
O           -1.68962404806802       -6.79088739837128       -1.99913029067022
C           -1.11352247802246        0.22248328646048       -0.35240375186048
C           -2.37614584566986       -0.37644698676904       -0.53313440587163
C           -3.52767561333419        0.36095059602516       -0.47212255754542
C           -3.46131555350584        1.74408567017024       -0.24655330042682
N           -4.61660816142951        2.50985193010080       -0.18619045068970
C           -4.81897949832239        3.72691085723954       -0.81745246691643
C           -3.99217418066365        4.41990167153900       -1.69042242420106
C           -4.45875787378025        5.61237927541186       -2.21539827601919
C           -5.72209080010734        6.10199704250639       -1.89354663795248
C           -6.56622180101221        5.39661632666199       -1.05485290062462
C           -6.11858415027581        4.19840701768241       -0.51690489625985
C           -6.72449407851247        3.21399436300724        0.33944784024130
C           -7.95933186470678        3.12906490393550        0.96636561531507
C           -8.21960222514235        2.03300118157516        1.76915664135320
C           -7.25926035487114        1.04367447069826        1.96492175104555
C           -6.02131470358671        1.10769801590385        1.34947428073912
C           -5.76758940670751        2.18652492787179        0.51430158840943
C           -2.20784120514247        2.34301181975435       -0.09191835355129
C           -1.03612116638991        1.61589493309248       -0.13356765016397
H            1.22622673118593        3.56207145253868        1.57542631847156
H            0.24984571043637        2.23790743442850        2.21935713752692
H           -0.52818484954452        3.67298258620389        1.55239520252273
H            0.36639200192890        2.92213542590494       -2.03349337390997
H           -0.35654682388710        4.13360706583558       -0.97036344080301
H            1.38581513978549        3.89925233871188       -0.97726195002804
H            2.91081635913416        2.89540517518354        0.26362568371082
H            3.79018222768829        2.68212007598152        2.40962122908629
H            4.93672574715464        4.24761991877550        3.92282329199181
H            7.29081749643001        4.83859769549496        3.58495592232160
H            8.58791922151371        3.84102783983871        1.73096935438903
H            9.42727384203724        2.42102757795600       -0.45696639985248
H            9.59416837244479        0.94362623772625       -2.43297286162968
H            7.63155767136548       -0.27299300537245       -3.25367455761189
H            5.45708807937037       -0.09093683774087       -2.11992426183499
H            4.51102783884057       -1.03630035955019       -0.18972366605344
H            2.24947236866842       -1.92305902493280       -0.44813456037623
H            0.36874516193723       -1.75925509386422       -2.73911639368133
H            0.15106546474478       -4.21685921337238       -3.16369713438759
H           -0.60978625850089       -2.37232017930708        1.39041954117535
H           -1.17506187815867       -4.07614549617346        2.95359277677941
H           -1.72213921766164       -6.05689962316437        4.29065535632315
H           -1.77765406684382       -8.30112727582828        3.27212819920965
H           -1.27531781193459       -8.56980789141118        0.84399319073440
H           -2.42935834038089       -1.43346226469752       -0.73837977872975
H           -4.48207405389613       -0.11142649463543       -0.64197846117217
H           -3.02518878900803        4.03605964125552       -1.97445213586591
H           -3.83199735067196        6.17114223388931       -2.89433001596404
H           -6.05096043750304        7.03825066698043       -2.31940086990461
H           -7.55555838620835        5.76347567073333       -0.82781736171258
H           -8.69662118984021        3.90609396028689        0.83368121228346
H           -9.17613311793851        1.94561107511879        2.26265193914600
H           -7.48226529990093        0.21062212901569        2.61475597809516
H           -5.27932396098685        0.34525194984754        1.52851365159158
H           -2.17552749766975        3.40257110923147        0.10334165035910

          :  Hamiltonian                  GFN2-xTB          :
         :: gradient norm              0.000022598996 Eh/a0 ::
         :: HOMO-LUMO gap              0.075268632217 eV    ::
         :: SCC energy              -149.864521050963 Eh    ::
         :: -> dispersion             -0.136786609058 Eh    ::
         :: -> Gsolv                  -0.083965460714 Eh    ::
         :: repulsion energy           2.570299882651 Eh    ::

    * Orbital Energies and Occupations

         #    Occupation            Energy/Eh            Energy/eV
      -------------------------------------------------------------
         1        2.0000           -0.7497906             -20.4028
       ...           ...                  ...                  ...
       125        2.0000           -0.4172477             -11.3539
       126        2.0000           -0.4151116             -11.2958
       127        2.0000           -0.4149930             -11.2925
       128        2.0000           -0.4109488             -11.1825
       129        2.0000           -0.4013920             -10.9224
       130        2.0000           -0.3885606             -10.5733
       131        2.0000           -0.3884733             -10.5709
       132        2.0000           -0.3881029             -10.5608
       133        2.0000           -0.3832970             -10.4300
       134        1.9998           -0.3753749             -10.2145
       135        1.9995           -0.3744392             -10.1890
       136        1.0006           -0.3601836              -9.8011
       137        0.8108           -0.2639199              -7.1816 (HOMO)
       138        0.1889           -0.2611532              -7.1063 (LUMO)
       139        0.0003           -0.2548625              -6.9352
       140        0.0000           -0.2514453              -6.8422
       141                         -0.2443092              -6.6480
       142                         -0.2437886              -6.6338
       143                         -0.2361325              -6.4255
       144                         -0.2325168              -6.3271
       145                         -0.2324381              -6.3250
       146                         -0.2281740              -6.2089
       147                         -0.2209095              -6.0113
       148                         -0.2029010              -5.5212
       ...                                ...                  ...
       268                          1.1533786              31.3850
      -------------------------------------------------------------
                  HL-Gap            0.0027668 Eh            0.0753 eV

     #   Z          covCN         q      C6AA      α(0)
     1   6 C        3.761    -0.111    22.669     6.787
     2   6 C        3.910     0.026    20.077     6.369
     3   6 C        3.761    -0.111    22.667     6.787
     4   6 C        2.976     0.002    27.968     8.675
     5   6 C        2.926    -0.048    29.189     8.860
     6   6 C        2.910     0.059    26.679     8.470
     7   7 N        2.799    -0.010    21.448     6.878
     8   6 C        3.067     0.043    26.963     8.515
     9   6 C        2.910    -0.046    29.149     8.853
    10   6 C        2.923    -0.033    28.821     8.804
    11   6 C        2.920    -0.035    28.863     8.810
    12   6 C        2.912    -0.031    28.766     8.795
    13   6 C        3.063    -0.012    28.249     8.716
    14   6 C        3.064    -0.012    28.254     8.716
    15   6 C        2.912    -0.031    28.772     8.796
    16   6 C        2.920    -0.035    28.861     8.810
    17   6 C        2.923    -0.033    28.814     8.803
    18   6 C        2.909    -0.045    29.121     8.849
    19   6 C        3.066     0.044    26.954     8.513
    20   6 C        2.917    -0.040    28.988     8.829
    21   6 C        2.920    -0.043    29.061     8.840
    22   6 C        2.932     0.054    26.791     8.489
    23   7 N        2.756     0.012    21.049     6.814
    24   6 C        2.928     0.041    27.090     8.536
    25   6 C        2.920    -0.071    29.771     8.948
    26   6 C        2.924    -0.023    28.583     8.768
    27   6 C        2.985    -0.100    30.513     9.061
    28   6 C        3.115    -0.028    28.538     8.751
    29   6 C        2.915    -0.048    29.202     8.861
    30   6 C        3.113    -0.024    28.436     8.736
    31   6 C        2.915    -0.042    29.052     8.839
    32   6 C        2.915    -0.037    28.932     8.820
    33   6 C        2.921    -0.054    29.332     8.881
    34   6 C        2.925    -0.026    28.650     8.778
    35   6 C        2.990    -0.096    30.401     9.044
    36  16 S        3.954     0.890   109.876    17.642
    37   8 O        0.860    -0.604    26.225     6.866
    38   8 O        0.860    -0.604    26.228     6.866
    39   6 C        2.931     0.054    26.800     8.490
    40   6 C        2.919    -0.043    29.063     8.840
    41   6 C        2.917    -0.040    28.984     8.828
    42   6 C        2.910     0.059    26.685     8.471
    43   7 N        2.800    -0.010    21.447     6.878
    44   6 C        3.067     0.043    26.964     8.515
    45   6 C        2.910    -0.046    29.149     8.853
    46   6 C        2.923    -0.033    28.822     8.804
    47   6 C        2.920    -0.035    28.864     8.810
    48   6 C        2.912    -0.031    28.766     8.795
    49   6 C        3.063    -0.012    28.249     8.716
    50   6 C        3.064    -0.012    28.255     8.717
    51   6 C        2.912    -0.031    28.771     8.796
    52   6 C        2.920    -0.035    28.860     8.810
    53   6 C        2.923    -0.033    28.812     8.802
    54   6 C        2.909    -0.045    29.118     8.848
    55   6 C        3.067     0.044    26.954     8.513
    56   6 C        2.926    -0.048    29.184     8.859
    57   6 C        2.976     0.002    27.969     8.675
    58   1 H        0.925     0.057     2.236     2.339
    59   1 H        0.925     0.041     2.431     2.438
    60   1 H        0.925     0.056     2.244     2.343
    61   1 H        0.925     0.041     2.437     2.441
    62   1 H        0.925     0.057     2.236     2.339
    63   1 H        0.925     0.056     2.246     2.343
    64   1 H        0.926     0.066     2.125     2.280
    65   1 H        0.926     0.045     2.380     2.412
    66   1 H        0.926     0.040     2.448     2.447
    67   1 H        0.926     0.037     2.494     2.469
    68   1 H        0.926     0.038     2.470     2.458
    69   1 H        0.926     0.039     2.457     2.451
    70   1 H        0.926     0.036     2.501     2.473
    71   1 H        0.926     0.037     2.492     2.468
    72   1 H        0.926     0.040     2.443     2.444
    73   1 H        0.926     0.056     2.252     2.347
    74   1 H        0.926     0.053     2.277     2.360
    75   1 H        0.926     0.039     2.458     2.451
    76   1 H        0.926     0.027     2.636     2.539
    77   1 H        0.926     0.046     2.367     2.406
    78   1 H        0.926     0.037     2.486     2.466
    79   1 H        0.926     0.035     2.519     2.482
    80   1 H        0.926     0.028     2.611     2.527
    81   1 H        0.926     0.016     2.802     2.618
    82   1 H        0.926     0.053     2.283     2.363
    83   1 H        0.926     0.056     2.250     2.346
    84   1 H        0.926     0.045     2.383     2.414
    85   1 H        0.926     0.040     2.452     2.449
    86   1 H        0.926     0.037     2.495     2.470
    87   1 H        0.926     0.038     2.471     2.458
    88   1 H        0.926     0.039     2.458     2.452
    89   1 H        0.926     0.036     2.500     2.472
    90   1 H        0.926     0.037     2.486     2.465
    91   1 H        0.926     0.041     2.436     2.441
    92   1 H        0.926     0.066     2.125     2.280

molecular dipole:
                 x           y           z       tot (Debye)
 q only:        0.872      10.284       2.008
   full:        0.843       9.642       1.759      25.004

 projected vibrational frequencies (cm⁻¹)
eigval :       -0.00    -0.00     0.00     0.00     0.00     0.00
eigval :        8.71    13.43    14.97    16.58    20.99    24.16
eigval :       36.71    39.37    44.55    57.60    66.43    82.93
eigval :       89.97   103.06   104.99   109.41   112.82   117.60
eigval :      126.56   127.90   129.95   146.44   149.38   154.58
eigval :      173.86   176.11   192.71   194.00   204.95   208.80
eigval :      237.42   241.08   245.70   270.84   272.00   279.07
eigval :      289.61   292.73   307.41   313.09   323.41   335.12
eigval :      341.63   350.49   357.55   362.65   365.76   386.44
eigval :      391.12   394.00   400.02   413.44   415.38   417.61
eigval :      420.44   425.72   435.41   437.12   449.01   463.94
eigval :      465.28   482.69   492.91   506.83   514.67   514.81
eigval :      522.31   530.09   535.22   535.82   537.20   537.60
eigval :      547.88   550.38   568.79   583.59   585.24   586.44
eigval :      588.35   591.55   610.08   623.00   633.19   635.34
eigval :      645.84   655.87   671.70   673.34   675.75   680.57
eigval :      683.22   694.91   695.78   707.25   708.54   709.08
eigval :      740.64   747.03   749.43   754.25   759.05   768.20
eigval :      768.66   777.28   778.04   801.32   826.23   829.70
eigval :      830.64   838.78   841.16   865.85   867.88   869.79
eigval :      872.11   885.07   890.26   892.24   893.92   896.35
eigval :      896.43   901.66   902.32   902.42   902.74   910.30
eigval :      910.66   918.17   919.25   922.15   923.33   925.45
eigval :      927.54   929.16   933.96   958.73   983.98   986.53
eigval :      992.97  1001.33  1010.43  1010.81  1012.39  1040.26
eigval :     1057.74  1062.99  1068.65  1068.86  1070.15  1070.95
eigval :     1075.42  1085.79  1113.11  1117.94  1138.64  1141.90
eigval :     1144.10  1144.55  1146.35  1147.28  1152.00  1155.53
eigval :     1168.89  1170.54  1173.44  1177.14  1177.82  1178.13
eigval :     1184.14  1189.47  1200.97  1220.41  1225.33  1226.79
eigval :     1228.06  1229.59  1233.75  1243.02  1244.38  1261.01
eigval :     1278.90  1280.06  1283.09  1286.69  1292.40  1297.14
eigval :     1319.54  1334.88  1336.70  1340.86  1344.53  1345.15
eigval :     1346.28  1349.38  1353.88  1358.78  1363.51  1368.41
eigval :     1382.51  1395.60  1406.85  1408.07  1411.75  1412.83
eigval :     1413.45  1415.26  1435.66  1436.43  1440.21  1452.02
eigval :     1455.57  1459.93  1463.93  1464.25  1467.45  1473.66
eigval :     1478.71  1479.50  1480.08  1481.45  1487.93  1492.17
eigval :     1493.96  1532.27  1534.32  1560.62  1562.24  1562.35
eigval :     1566.59  1569.38  1579.58  1579.65  1579.80  1585.32
eigval :     1588.76  3030.47  3033.05  3051.47  3053.48  3059.06
eigval :     3063.10  3066.10  3066.14  3075.78  3079.04  3079.18
eigval :     3079.53  3079.65  3079.81  3085.40  3085.40  3086.61
eigval :     3086.74  3088.70  3093.10  3093.31  3093.45  3094.94
eigval :     3095.39  3099.48  3100.02  3102.04  3102.83  3103.42
eigval :     3105.08  3108.45  3111.59  3111.92  3117.16  3118.45

   temp. (K)  partition function   enthalpy   heat capacity  entropy
                                   cal/mol     cal/K/mol   cal/K/mol   J/K/mol
 298.15  VIB  0.317E+21            26977.134    172.726    165.873
         ROT  0.180E+09              888.752      2.981     40.756
         INT  0.570E+29            27865.886    175.706    206.629
         TR   0.200E+29             1481.254      4.968     45.719
         TOT                       29347.1400   180.6745   252.3479  1055.8235

       T/K    H(0)-H(T)+PV         H(T)/Eh          T*S/Eh         G(T)/Eh
   ------------------------------------------------------------------------
    298.15    0.467676E-01    0.744291E+00    0.119899E+00    0.624392E+00
   ------------------------------------------------------------------------

         :::::::::::::::::::::::::::::::::::::::::::::::::::::
         ::                  THERMODYNAMIC                  ::
         :::::::::::::::::::::::::::::::::::::::::::::::::::::
         :: total free energy        -146.669829162539 Eh   ::
         ::.................................................::
         :: total energy             -147.294221163722 Eh   ::
         :: zero point energy           0.697522970335 Eh   ::
         :: G(RRHO) w/o ZPVE           -0.073130969152 Eh   ::
         :: G(RRHO) contrib.            0.624392001183 Eh   ::
         :::::::::::::::::::::::::::::::::::::::::::::::::::::

           -------------------------------------------------
          | TOTAL ENERGY             -147.294221163722 Eh   |
          | TOTAL ENTHALPY           -146.549930548939 Eh   |
          | TOTAL FREE ENERGY        -146.669829162539 Eh   |
          | GRADIENT NORM               0.000025712437 Eh/α |
          | HOMO-LUMO GAP               0.075287419174 eV   |
           -------------------------------------------------

 * finished run on 2025/07/17 at 23:26:49.185
