   * xtb version 6.7.1 (edcfbbe) compiled by 'albert@albert-system' on 2024-07-22

   ID    Z sym.   atoms
    1    6 C      1-6, 8-22, 24-35, 39-42, 44-57
    2    7 N      7, 23, 43
    3   16 S      36
    4    8 O      37, 38
    5    1 H      58-92

          program call               : xtb data2507/toluene/2Cz-DMAC-BTB/2Cz-DMAC-BTB_toluene_S0_finalOpt.xtbopt.xyz --gfn 2 --uhf 2 --gbsa toluene --ohess vtight --parallel 40 --molden --ceasefiles --namespace data2507/toluene/2Cz-DMAC-BTB/2Cz-DMAC-BTB_toluene_T1_preOpt
      * Solvation model:               GBSA
        Solvent                        toluene
        Solvent mass                       9.2140E+01 g/mol
          :  Hamiltonian                  GFN2-xTB          :
 * total energy  :  -147.2876144 Eh     change       -0.5523924E-07 Eh
 * total energy  :  -147.2917874 Eh     change       -0.4172969E-02 Eh
 * total energy  :  -147.2934056 Eh     change       -0.1618276E-02 Eh
 * total energy  :  -147.2936009 Eh     change       -0.1952964E-03 Eh
 * total energy  :  -147.2937589 Eh     change       -0.1579491E-03 Eh
 * total energy  :  -147.2938050 Eh     change       -0.4612396E-04 Eh
 * total energy  :  -147.2938387 Eh     change       -0.3373160E-04 Eh
 * total energy  :  -147.2938580 Eh     change       -0.1924625E-04 Eh
 * total energy  :  -147.2938772 Eh     change       -0.1925087E-04 Eh
 * total energy  :  -147.2938985 Eh     change       -0.2127371E-04 Eh
 * total energy  :  -147.2941990 Eh     change       -0.1555968E-06 Eh
 * total energy  :  -147.2941992 Eh     change       -0.2328741E-06 Eh
 * total energy  :  -147.2941994 Eh     change       -0.1993712E-06 Eh
 * total energy  :  -147.2941996 Eh     change       -0.2428887E-06 Eh
 * total energy  :  -147.2941999 Eh     change       -0.2647216E-06 Eh
 * total energy  :  -147.2942001 Eh     change       -0.2186086E-06 Eh
 * total energy  :  -147.2942003 Eh     change       -0.1555570E-06 Eh
 * total energy  :  -147.2942004 Eh     change       -0.1203623E-06 Eh
 * total energy  :  -147.2942005 Eh     change       -0.9673232E-07 Eh
   *** GEOMETRY OPTIMIZATION CONVERGED AFTER 58 ITERATIONS ***

 final structure:
================
92
 xtb: 6.7.1 (edcfbbe)
C            0.41593500247004        2.98020400779034        1.43027152856406
C            0.38244845403572        2.31096710707362        0.04200370476919
C            0.57802153648096        3.37009492730310       -1.06068787953138
C            1.51167370417682        1.30541125075753       -0.03121071894748
C            2.81384151807756        1.73121700907405        0.13203797619746
C            3.89781469574773        0.85084174848332        0.06972698257417
N            5.19301872150721        1.32292584707610        0.22591880304441
C            5.61984402814376        2.21879807593001        1.19349505725261
C            4.91937886861021        2.77788715537984        2.25304608526111
C            5.60376685735693        3.62539760478485        3.10661962322827
C            6.95596088682168        3.90321317492063        2.92335298991930
C            7.66906258523151        3.31876621909271        1.89215044798023
C            7.00259795139627        2.46533782751150        1.02434574308287
C            7.42479893284628        1.67826958759072       -0.10339195486606
C            8.64099404839684        1.52290130515565       -0.75285296225196
C            8.70040288312847        0.68999257761093       -1.85568493779756
C            7.56282737271754        0.03565669506758       -2.32158578977066
C            6.33947184595301        0.17656357756238       -1.68992030328346
C            6.28081581532424        0.98367288055942       -0.56259586103854
C            3.65077652662929       -0.51346019331726       -0.14290455561225
C            2.36464330709480       -0.95962946113446       -0.28828108247521
C            1.27353384877255       -0.06863873041866       -0.25385898325669
N            0.00116978649980       -0.54910799658848       -0.41254209808728
C           -0.18300077786424       -1.94981823150660       -0.63176207878549
C            0.05068290173609       -2.46320702719820       -1.92712427470595
C           -0.13473144860966       -3.82199777582532       -2.14965477564292
C           -0.53241126183423       -4.62599890048605       -1.11486900065335
C           -0.77481140028267       -4.12806680204047        0.20093571361032
C           -0.58520239853018       -2.75073389027302        0.41149465863413
C           -1.18233034287919       -5.11706005810986        1.13583464786903
C           -1.50158843538551       -4.95844015372176        2.49886013239616
C           -1.88098239813970       -6.04631154566060        3.24657223281162
C           -1.96077909121103       -7.32779483774838        2.68643791362610
C           -1.65319159668714       -7.51030058062370        1.34439281851167
C           -1.27410078627389       -6.42469735840808        0.59640964446298
S           -0.83663829199498       -6.37384537407752       -1.12272398812227
O            0.37934168795457       -7.13068363606001       -1.40453364725898
O           -1.96176806625757       -6.71969067593960       -1.98610997305412
C           -1.09826622863782        0.26652225939262       -0.37581039267792
C           -2.38122846095420       -0.28027709471636       -0.57767753111113
C           -3.50270171835734        0.50311583443838       -0.53251914862623
C           -3.38388473605422        1.88194495926856       -0.30255909804285
N           -4.50795603537815        2.69371484726176       -0.25491355613954
C           -4.65195434900751        3.91995387191278       -0.88424656480826
C           -3.78805954189349        4.57866809097211       -1.74782802591326
C           -4.19802847934956        5.79130244010289       -2.27384237986014
C           -5.44202989228527        6.33406755136254       -1.96207749088086
C           -6.32335916475947        5.66382528869628       -1.13290089526734
C           -5.93287333082314        4.44602578131391       -0.59442082737349
C           -6.58859349332852        3.48614058507028        0.25305604217060
C           -7.83164618558221        3.45283413374912        0.86850112298485
C           -8.14685599075888        2.36614808571465        1.66431330962634
C           -7.23258865787897        1.33491456295041        1.86428496402523
C           -5.98716295529993        1.34749061252163        1.26083951451710
C           -5.67858137676428        2.41774758894931        0.43315628499546
C           -2.10953390525682        2.42975482326646       -0.13077071780048
C           -0.96762133603906        1.65601503900604       -0.15759023012935
H            1.35301304414411        3.50783304713282        1.57814714801227
H            0.31155780330602        2.22806980229071        2.20965701561193
H           -0.39451013114677        3.69518512413743        1.53237963119872
H            0.50883242718585        2.90431498882762       -2.04165906716523
H           -0.18061449432423        4.14310312871450       -0.98788343585062
H            1.55132459790338        3.84268720612828       -0.97274618768701
H            3.02218361278143        2.77913298342547        0.27437362993914
H            3.88067175705981        2.54546588562743        2.42667844695664
H            5.07892087742796        4.07539902554118        3.93603089981987
H            7.45572475275459        4.57295244273255        3.60728358653007
H            8.72324934465713        3.51353636322700        1.76720999000461
H            9.51892648427061        2.04637302918579       -0.40628432664283
H            9.63833708967073        0.55203582991247       -2.37281260466535
H            7.63427510667624       -0.59223411763665       -3.19727377540630
H            5.46246334700755       -0.31861403775589       -2.07655860159515
H            4.46978991024127       -1.21493361758978       -0.14451945034554
H            2.17690468877987       -2.01328631534031       -0.41722672764465
H            0.35715531978492       -1.80280933499152       -2.72122103313005
H            0.03131626434223       -4.25164019518338       -3.12678012106355
H           -0.75262461566396       -2.32264889796624        1.38807419910224
H           -1.44685266443466       -3.97991188566991        2.95169965235011
H           -2.12480973135959       -5.91769084639699        4.29167754773600
H           -2.25994616507512       -8.16768321190793        3.29380414640835
H           -1.70643972403083       -8.48596381517792        0.88190996976616
H           -2.47445120161023       -1.33382646876834       -0.78651215214185
H           -4.47267802302498        0.07021643882154       -0.71825377369947
H           -2.83594398012351        4.15401899033263       -2.02396236400570
H           -3.54186577157786        6.32406805459293       -2.94582588907610
H           -5.72629178765522        7.28466365548957       -2.38823777672033
H           -7.29808101089737        6.07233785706176       -0.91406205084180
H           -8.53309032169938        4.26180944093664        0.73239860785039
H           -9.11074203449549        2.31875843289189        2.14889504666273
H           -7.49792273781059        0.50953788179877        2.50794413918653
H           -5.28108444280720        0.55248871110753        1.44336669528710
H           -2.03711495611442        3.48710967615811        0.06561927726663

          :  Hamiltonian                  GFN2-xTB          :
         :: gradient norm              0.000055332041 Eh/a0 ::
         :: HOMO-LUMO gap              0.075877987016 eV    ::
         :: SCC energy              -149.864579222486 Eh    ::
         :: -> dispersion             -0.136797862947 Eh    ::
         :: -> Gsolv                  -0.083959056083 Eh    ::
         :: repulsion energy           2.570378719150 Eh    ::

    * Orbital Energies and Occupations

         #    Occupation            Energy/Eh            Energy/eV
      -------------------------------------------------------------
         1        2.0000           -0.7497713             -20.4023
       ...           ...                  ...                  ...
       125        2.0000           -0.4172401             -11.3537
       126        2.0000           -0.4151179             -11.2959
       127        2.0000           -0.4149903             -11.2925
       128        2.0000           -0.4109618             -11.1828
       129        2.0000           -0.4013871             -10.9223
       130        2.0000           -0.3885736             -10.5736
       131        2.0000           -0.3884767             -10.5710
       132        2.0000           -0.3880795             -10.5602
       133        2.0000           -0.3832859             -10.4297
       134        1.9998           -0.3753809             -10.2146
       135        1.9995           -0.3744312             -10.1888
       136        1.0006           -0.3601814              -9.8010
       137        0.8124           -0.2639430              -7.1823 (HOMO)
       138        0.1872           -0.2611555              -7.1064 (LUMO)
       139        0.0003           -0.2548659              -6.9353
       140        0.0000           -0.2514544              -6.8424
       141                         -0.2443230              -6.6484
       142                         -0.2437866              -6.6338
       143                         -0.2362139              -6.4277
       144                         -0.2325275              -6.3274
       145                         -0.2324335              -6.3248
       146                         -0.2281170              -6.2074
       147                         -0.2208849              -6.0106
       148                         -0.2029090              -5.5214
       ...                                ...                  ...
       268                          1.1534936              31.3882
      -------------------------------------------------------------
                  HL-Gap            0.0027875 Eh            0.0759 eV

     #   Z          covCN         q      C6AA      α(0)
     1   6 C        3.761    -0.111    22.668     6.787
     2   6 C        3.910     0.026    20.077     6.369
     3   6 C        3.761    -0.111    22.668     6.787
     4   6 C        2.976     0.002    27.967     8.675
     5   6 C        2.926    -0.048    29.189     8.860
     6   6 C        2.910     0.059    26.678     8.470
     7   7 N        2.799    -0.010    21.450     6.879
     8   6 C        3.067     0.043    26.963     8.515
     9   6 C        2.910    -0.046    29.149     8.853
    10   6 C        2.923    -0.033    28.821     8.804
    11   6 C        2.920    -0.035    28.863     8.810
    12   6 C        2.912    -0.031    28.765     8.795
    13   6 C        3.063    -0.012    28.249     8.716
    14   6 C        3.064    -0.012    28.254     8.716
    15   6 C        2.912    -0.031    28.772     8.796
    16   6 C        2.920    -0.035    28.861     8.810
    17   6 C        2.923    -0.033    28.813     8.803
    18   6 C        2.909    -0.045    29.121     8.849
    19   6 C        3.067     0.044    26.953     8.513
    20   6 C        2.917    -0.040    28.988     8.829
    21   6 C        2.920    -0.043    29.061     8.840
    22   6 C        2.932     0.054    26.790     8.489
    23   7 N        2.756     0.012    21.048     6.814
    24   6 C        2.928     0.041    27.091     8.536
    25   6 C        2.920    -0.071    29.771     8.947
    26   6 C        2.924    -0.023    28.584     8.768
    27   6 C        2.985    -0.100    30.513     9.061
    28   6 C        3.115    -0.028    28.538     8.751
    29   6 C        2.915    -0.048    29.201     8.861
    30   6 C        3.113    -0.024    28.436     8.736
    31   6 C        2.914    -0.042    29.052     8.839
    32   6 C        2.915    -0.037    28.932     8.820
    33   6 C        2.921    -0.054    29.332     8.881
    34   6 C        2.925    -0.026    28.650     8.778
    35   6 C        2.990    -0.096    30.401     9.044
    36  16 S        3.954     0.890   109.877    17.642
    37   8 O        0.860    -0.604    26.226     6.866
    38   8 O        0.860    -0.605    26.229     6.866
    39   6 C        2.931     0.053    26.800     8.490
    40   6 C        2.919    -0.043    29.063     8.840
    41   6 C        2.917    -0.040    28.985     8.828
    42   6 C        2.910     0.059    26.684     8.470
    43   7 N        2.800    -0.010    21.448     6.878
    44   6 C        3.067     0.043    26.963     8.515
    45   6 C        2.910    -0.046    29.149     8.853
    46   6 C        2.923    -0.033    28.821     8.804
    47   6 C        2.920    -0.035    28.864     8.810
    48   6 C        2.912    -0.031    28.766     8.795
    49   6 C        3.063    -0.012    28.249     8.716
    50   6 C        3.064    -0.012    28.255     8.716
    51   6 C        2.912    -0.031    28.771     8.796
    52   6 C        2.920    -0.035    28.860     8.810
    53   6 C        2.923    -0.033    28.811     8.802
    54   6 C        2.909    -0.045    29.118     8.848
    55   6 C        3.067     0.044    26.954     8.513
    56   6 C        2.926    -0.048    29.184     8.859
    57   6 C        2.976     0.002    27.969     8.675
    58   1 H        0.925     0.057     2.237     2.339
    59   1 H        0.925     0.041     2.432     2.439
    60   1 H        0.925     0.056     2.244     2.343
    61   1 H        0.925     0.041     2.436     2.441
    62   1 H        0.925     0.057     2.237     2.339
    63   1 H        0.925     0.056     2.245     2.343
    64   1 H        0.926     0.066     2.125     2.280
    65   1 H        0.926     0.045     2.380     2.413
    66   1 H        0.926     0.040     2.449     2.447
    67   1 H        0.926     0.037     2.494     2.470
    68   1 H        0.926     0.038     2.470     2.458
    69   1 H        0.926     0.039     2.457     2.451
    70   1 H        0.926     0.036     2.501     2.473
    71   1 H        0.926     0.037     2.491     2.468
    72   1 H        0.926     0.040     2.442     2.444
    73   1 H        0.926     0.056     2.252     2.347
    74   1 H        0.926     0.054     2.275     2.359
    75   1 H        0.926     0.039     2.456     2.451
    76   1 H        0.926     0.026     2.637     2.539
    77   1 H        0.926     0.046     2.368     2.406
    78   1 H        0.926     0.037     2.486     2.466
    79   1 H        0.926     0.035     2.519     2.482
    80   1 H        0.926     0.028     2.611     2.527
    81   1 H        0.926     0.016     2.802     2.618
    82   1 H        0.926     0.053     2.282     2.363
    83   1 H        0.926     0.056     2.250     2.346
    84   1 H        0.926     0.045     2.383     2.414
    85   1 H        0.926     0.040     2.451     2.448
    86   1 H        0.926     0.037     2.495     2.470
    87   1 H        0.926     0.038     2.470     2.458
    88   1 H        0.926     0.039     2.458     2.452
    89   1 H        0.926     0.036     2.500     2.472
    90   1 H        0.926     0.037     2.486     2.465
    91   1 H        0.926     0.041     2.436     2.441
    92   1 H        0.926     0.066     2.125     2.280

molecular dipole:
                 x           y           z       tot (Debye)
 q only:        1.298      10.256       1.937
   full:        1.247       9.614       1.692      25.013

 projected vibrational frequencies (cm⁻¹)
eigval :       -0.00    -0.00    -0.00     0.00     0.00     0.00
eigval :        8.39    13.86    14.81    19.69    21.41    23.37
eigval :       36.05    39.67    43.83    57.38    68.69    84.62
eigval :       90.35   102.96   105.80   109.26   113.18   117.43
eigval :      126.34   127.55   132.33   146.04   149.34   154.86
eigval :      173.87   175.70   192.61   194.20   204.67   209.71
eigval :      237.65   240.93   245.68   271.09   272.16   278.97
eigval :      289.37   292.49   307.76   313.12   323.41   334.83
eigval :      341.60   350.52   357.62   361.76   366.03   386.87
eigval :      391.31   394.04   399.98   413.12   415.57   417.67
eigval :      420.38   425.54   435.25   437.07   448.41   464.24
eigval :      465.39   483.17   493.13   506.44   514.61   514.85
eigval :      522.55   530.29   535.49   535.79   536.60   537.30
eigval :      548.13   550.50   568.72   583.42   585.13   586.30
eigval :      588.43   591.45   610.04   623.03   633.24   635.36
eigval :      646.03   655.57   671.50   673.02   675.69   680.65
eigval :      682.83   694.57   695.86   707.23   708.53   709.06
eigval :      742.45   746.66   749.39   754.07   759.04   768.33
eigval :      770.22   777.37   779.70   801.51   827.06   830.70
eigval :      831.26   838.07   841.58   866.19   868.53   870.11
eigval :      874.19   885.98   890.34   891.78   892.39   896.37
eigval :      896.60   901.49   902.19   903.07   905.57   910.00
eigval :      910.43   919.41   919.98   922.16   923.21   925.65
eigval :      929.06   929.53   934.13   958.87   984.21   986.70
eigval :      993.06  1001.28  1010.48  1010.86  1012.88  1040.28
eigval :     1057.03  1062.91  1069.08  1069.26  1070.61  1071.01
eigval :     1075.38  1085.93  1112.99  1117.92  1138.76  1142.00
eigval :     1144.31  1145.11  1146.41  1147.19  1153.11  1155.45
eigval :     1168.32  1170.58  1173.32  1177.59  1177.87  1178.40
eigval :     1185.00  1190.18  1200.50  1220.70  1226.01  1227.36
eigval :     1228.32  1229.45  1234.53  1243.52  1244.31  1261.14
eigval :     1279.09  1280.54  1283.73  1286.58  1292.08  1296.94
eigval :     1319.35  1334.91  1336.69  1341.06  1344.57  1345.21
eigval :     1346.30  1349.33  1353.87  1358.69  1363.33  1368.43
eigval :     1382.53  1396.01  1406.96  1407.88  1411.89  1413.30
eigval :     1413.84  1415.63  1435.69  1436.47  1439.40  1452.28
eigval :     1455.72  1460.02  1463.82  1464.34  1467.55  1473.73
eigval :     1478.70  1479.55  1480.19  1481.79  1487.52  1492.50
eigval :     1494.03  1532.05  1534.12  1560.67  1562.27  1562.47
eigval :     1566.81  1569.32  1579.72  1579.81  1579.82  1585.41
eigval :     1588.83  3030.80  3032.77  3051.81  3053.60  3059.47
eigval :     3063.30  3065.45  3065.76  3075.55  3078.84  3079.64
eigval :     3079.80  3079.93  3080.00  3085.47  3085.94  3086.77
eigval :     3086.97  3088.73  3092.62  3093.50  3093.58  3095.25
eigval :     3095.66  3099.59  3100.29  3101.94  3102.79  3105.16
eigval :     3105.30  3109.13  3111.83  3112.15  3117.69  3118.31

   temp. (K)  partition function   enthalpy   heat capacity  entropy
                                   cal/mol     cal/K/mol   cal/K/mol   J/K/mol
 298.15  VIB  0.266E+21            26964.259    172.711    165.632
         ROT  0.180E+09              888.752      2.981     40.755
         INT  0.479E+29            27853.011    175.692    206.387
         TR   0.200E+29             1481.254      4.968     45.719
         TOT                       29334.2654   180.6602   252.1053  1054.8088

       T/K    H(0)-H(T)+PV         H(T)/Eh          T*S/Eh         G(T)/Eh
   ------------------------------------------------------------------------
    298.15    0.467471E-01    0.744361E+00    0.119783E+00    0.624578E+00
   ------------------------------------------------------------------------

         :::::::::::::::::::::::::::::::::::::::::::::::::::::
         ::                  THERMODYNAMIC                  ::
         :::::::::::::::::::::::::::::::::::::::::::::::::::::
         :: total free energy        -146.669622967298 Eh   ::
         ::.................................................::
         :: total energy             -147.294200499222 Eh   ::
         :: zero point energy           0.697613789395 Eh   ::
         :: G(RRHO) w/o ZPVE           -0.073036257471 Eh   ::
         :: G(RRHO) contrib.            0.624577531924 Eh   ::
         :::::::::::::::::::::::::::::::::::::::::::::::::::::

           -------------------------------------------------
          | TOTAL ENERGY             -147.294200499222 Eh   |
          | TOTAL ENTHALPY           -146.549839582408 Eh   |
          | TOTAL FREE ENERGY        -146.669622967298 Eh   |
          | GRADIENT NORM               0.000052208714 Eh/α |
          | HOMO-LUMO GAP               0.075851603327 eV   |
           -------------------------------------------------

 * finished run on 2025/07/17 at 23:18:23.214
