   * xtb version 6.7.1 (edcfbbe) compiled by 'albert@albert-system' on 2024-07-22

   ID    Z sym.   atoms
    1    6 C      1-6, 8-22, 24-35, 39-42, 44-57
    2    7 N      7, 23, 43
    3   16 S      36
    4    8 O      37, 38
    5    1 H      58-92

          program call               : xtb data2507/toluene/2Cz-DMAC-BTB/2Cz-DMAC-BTB.xyz --gfn 2 --gbsa toluene --ohess vtight --parallel 40 --molden --ceasefiles --namespace data2507/toluene/2Cz-DMAC-BTB/2Cz-DMAC-BTB_toluene_S0_preOpt
      * Solvation model:               GBSA
        Solvent                        toluene
        Solvent mass                       9.2140E+01 g/mol
          :  Hamiltonian                  GFN2-xTB          :
 * total energy  :  -147.3425494 Eh     change       -0.2244207E-08 Eh
 * total energy  :  -147.3623982 Eh     change       -0.1984881E-01 Eh
 * total energy  :  -147.3690839 Eh     change       -0.6685644E-02 Eh
 * total energy  :  -147.3712562 Eh     change       -0.2172346E-02 Eh
 * total energy  :  -147.3728828 Eh     change       -0.1626607E-02 Eh
 * total energy  :  -147.3734939 Eh     change       -0.6110363E-03 Eh
 * total energy  :  -147.3736830 Eh     change       -0.1891253E-03 Eh
 * total energy  :  -147.3737811 Eh     change       -0.9807982E-04 Eh
 * total energy  :  -147.3738448 Eh     change       -0.6377957E-04 Eh
 * total energy  :  -147.3738958 Eh     change       -0.5098345E-04 Eh
 * total energy  :  -147.3745882 Eh     change       -0.7737549E-06 Eh
 * total energy  :  -147.3745887 Eh     change       -0.4976242E-06 Eh
 * total energy  :  -147.3745891 Eh     change       -0.4322460E-06 Eh
 * total energy  :  -147.3745897 Eh     change       -0.5419087E-06 Eh
 * total energy  :  -147.3745905 Eh     change       -0.8221437E-06 Eh
 * total energy  :  -147.3745914 Eh     change       -0.9294916E-06 Eh
 * total energy  :  -147.3745921 Eh     change       -0.7210354E-06 Eh
 * total energy  :  -147.3745926 Eh     change       -0.4858237E-06 Eh
 * total energy  :  -147.3745926 Eh     change       -0.4500578E-08 Eh
   *** GEOMETRY OPTIMIZATION CONVERGED AFTER 68 ITERATIONS ***

 final structure:
================
92
 xtb: 6.7.1 (edcfbbe)
C           -0.01331064500689        2.38032187095464        1.49613944378345
C            0.02881381869386        1.80578094833250        0.06780307426594
C            0.06685411863719        2.94852240380000       -0.96387167872596
C            1.28573908991292        0.96841043025089       -0.07912629166304
C            2.52253325972952        1.56788496058068        0.09930280596910
C            3.70976354404463        0.85373204536361       -0.00286806331251
N            4.94051399909268        1.50297994197655        0.19558966956980
C            5.27582595334171        2.27722702241575        1.28637574552727
C            4.54176979362019        2.55590007976979        2.43141626352051
C            5.12497571432110        3.35821387141457        3.39306419833193
C            6.41209462930666        3.86880354200557        3.23195507740552
C            7.15627962029506        3.57624861966148        2.10624842843075
C            6.59168172655643        2.77133976624790        1.12457886750136
C            7.06456888976752        2.26323194790482       -0.13249658039731
C            8.25403743376825        2.40436386645643       -0.83635266672045
C            8.37661101200025        1.78030443571693       -2.06190626779170
C            7.32662672565765        1.03365512108184       -2.59431034431253
C            6.13470193816900        0.87747158775368       -1.91351141931620
C            6.01295495621163        1.48445410172949       -0.67091667447906
C            3.65992507465864       -0.50284265034518       -0.29910932945208
C            2.44029465249307       -1.11364421584068       -0.49477877923208
C            1.24496047472194       -0.39588205938388       -0.38905054853992
N            0.03582369957069       -1.04548578766356       -0.58028408693109
C            0.04158843479877       -2.42091190274577       -0.94260927566610
C            0.15553940670822       -2.77776101857495       -2.28378654083225
C            0.15829628900916       -4.11717003663502       -2.64968491921910
C            0.04853877071700       -5.06627817068372       -1.66070489559145
C           -0.06230081956981       -4.73292028144487       -0.31165796093674
C           -0.06672638454664       -3.39135821666914        0.04925600872452
C           -0.16174770092564       -5.88496127107450        0.58586785938680
C           -0.27626970237992       -5.86125421059376        1.97149580391997
C           -0.35477453382168       -7.05948797244878        2.66479607006015
C           -0.32062482920665       -8.27530510240593        1.99873959836147
C           -0.20713205332832       -8.31134443936620        0.61324805289011
C           -0.12983605741622       -7.11762236368232       -0.06361456538148
S            0.02065606207233       -6.85296857303954       -1.83051275650322
O            1.28116544912840       -7.34866927733437       -2.33641716295738
O           -1.16525233260385       -7.28960597104057       -2.53314442436668
C           -1.17653620064629       -0.38144505525059       -0.47936954728141
C           -2.36870788840009       -1.07971009232194       -0.69446724878636
C           -3.59104950801856       -0.44864968959107       -0.61357819144137
C           -3.64712784520700        0.90355203007225       -0.29912206749398
N           -4.88012479856520        1.57256301664417       -0.21140471838389
C           -5.21093063536515        2.73730257901167       -0.87140986316894
C           -4.46758137628099        3.48034999808057       -1.77852548369892
C           -5.04771569133003        4.61398693640536       -2.31405608799706
C           -6.34043364779239        5.00319751383018       -1.96652525914023
C           -7.09381313750147        4.25550220123484       -1.08337097811809
C           -6.53260869924962        3.11057370625339       -0.53135818940675
C           -7.01457744743324        2.11158653362992        0.38079169276508
C           -8.21380976763404        1.93234857520074        1.05899555529335
C           -8.34446043245707        0.84268222621223        1.89681701526040
C           -7.29403645705636       -0.05678757013027        2.07225002752666
C           -6.09243023950596        0.09892345952355        1.40851613508692
C           -5.96200186040989        1.18081715785795        0.54839061980050
C           -2.46337054145615        1.59556451970851       -0.07603846073504
C           -1.22383613604912        0.98234606131076       -0.16801364599157
H            0.85648361135643        3.00244760187441        1.68727591165879
H           -0.02642087393019        1.57006548852660        2.22296554572375
H           -0.90146865426815        2.98787671025460        1.64402909052867
H            0.08112744628936        2.53969794922207       -1.97276047924841
H           -0.80468624144624        3.58909587218733       -0.86294694240362
H            0.95309441266626        3.56229350508086       -0.83098024166443
H            2.58384898230907        2.62238879816457        0.31807511999862
H            3.55166621759333        2.14959955337047        2.57202253169349
H            4.57329918654119        3.59267475027056        4.29209329072004
H            6.83225459738205        4.49530451632406        4.00542862437264
H            8.15883712333049        3.96043741350380        1.98876752044560
H            9.06318411290686        2.99392928153753       -0.43111497866866
H            9.29450937146525        1.87573794775557       -2.62365673819252
H            7.44746764585494        0.56875385824631       -3.56226455568256
H            5.32196840825355        0.30832145868714       -2.33908072702017
H            4.57136070770184       -1.07692697604519       -0.36561177967164
H            2.41241060714517       -2.16711577093026       -0.72530493137682
H            0.24061538942401       -2.00599636555175       -3.03319503035346
H            0.24263031751635       -4.41675802570461       -3.68228785668287
H           -0.15313678131669       -3.08874229672285        1.08079541255127
H           -0.30334873872152       -4.92420662562617        2.50395137816375
H           -0.44333472318731       -7.04498326789191        3.74053637651357
H           -0.38196274760773       -9.19850499006771        2.55362422288691
H           -0.17848411990294       -9.24374268723426        0.07138242410474
H           -2.33651255028466       -2.12909107827510       -0.94215648939475
H           -4.49950000777905       -0.99892213712839       -0.80494522022476
H           -3.47310401092529        3.17557952915723       -2.06719454571333
H           -4.48880908179016        5.21108715014710       -3.02021817015293
H           -6.75778560410470        5.89845442927579       -2.40418718214103
H           -8.10068653530437        4.54998313760376       -0.82632988943486
H           -9.02408062760060        2.63538482330780        0.93359267439741
H           -9.27001925268856        0.68449416654244        2.43117534860209
H           -7.42247274788849       -0.89245744412381        2.74508418418156
H           -5.27972963586956       -0.59549617274718        1.55936470623951
H           -2.52922037099074        2.64125974688877        0.18038835583575

          :  Hamiltonian                  GFN2-xTB          :
         :: gradient norm              0.000045346147 Eh/a0 ::
         :: HOMO-LUMO gap              1.512713228993 eV    ::
         :: SCC energy              -149.962770396030 Eh    ::
         :: -> dispersion             -0.136710372053 Eh    ::
         :: -> Gsolv                  -0.067556258070 Eh    ::
         :: repulsion energy           2.588177776398 Eh    ::

    * Orbital Energies and Occupations

         #    Occupation            Energy/Eh            Energy/eV
      -------------------------------------------------------------
         1        2.0000           -0.7836630             -21.3246
       ...           ...                  ...                  ...
       124        2.0000           -0.4162891             -11.3278
       125        2.0000           -0.4153116             -11.3012
       126        2.0000           -0.4143635             -11.2754
       127        2.0000           -0.4119003             -11.2084
       128        2.0000           -0.4092525             -11.1363
       129        2.0000           -0.4041140             -10.9965
       130        2.0000           -0.4031824             -10.9712
       131        2.0000           -0.4027280             -10.9588
       132        2.0000           -0.3765220             -10.2457
       133        2.0000           -0.3765037             -10.2452
       134        2.0000           -0.3709087             -10.0929
       135        2.0000           -0.3609163              -9.8210
       136        2.0000           -0.3479240              -9.4675 (HOMO)
       137                         -0.2923328              -7.9548 (LUMO)
       138                         -0.2685575              -7.3078
       139                         -0.2568134              -6.9882
       140                         -0.2449023              -6.6641
       141                         -0.2431491              -6.6164
       142                         -0.2362328              -6.4282
       143                         -0.2304259              -6.2702
       144                         -0.2298151              -6.2536
       145                         -0.2249772              -6.1219
       146                         -0.2200094              -5.9868
       147                         -0.2199844              -5.9861
       ...                                ...                  ...
       268                          1.1773372              32.0370
      -------------------------------------------------------------
                  HL-Gap            0.0555912 Eh            1.5127 eV

     #   Z          covCN         q      C6AA      α(0)
     1   6 C        3.761    -0.106    22.571     6.773
     2   6 C        3.909     0.024    20.119     6.375
     3   6 C        3.761    -0.106    22.564     6.772
     4   6 C        2.978    -0.009    28.234     8.716
     5   6 C        2.930    -0.048    29.201     8.862
     6   6 C        2.910     0.050    26.871     8.500
     7   7 N        2.802    -0.046    22.119     6.985
     8   6 C        3.078     0.047    26.864     8.497
     9   6 C        2.909    -0.053    29.318     8.879
    10   6 C        2.923    -0.036    28.895     8.815
    11   6 C        2.919    -0.044    29.088     8.844
    12   6 C        2.912    -0.035    28.883     8.813
    13   6 C        3.067    -0.020    28.434     8.744
    14   6 C        3.068    -0.020    28.435     8.744
    15   6 C        2.912    -0.036    28.886     8.813
    16   6 C        2.919    -0.044    29.088     8.844
    17   6 C        2.924    -0.036    28.893     8.815
    18   6 C        2.909    -0.053    29.307     8.877
    19   6 C        3.078     0.047    26.862     8.497
    20   6 C        2.921    -0.045    29.111     8.848
    21   6 C        2.923    -0.059    29.460     8.901
    22   6 C        2.927     0.053    26.809     8.491
    23   7 N        2.755    -0.057    22.339     7.020
    24   6 C        2.926     0.076    26.314     8.412
    25   6 C        2.925    -0.032    28.800     8.801
    26   6 C        2.925    -0.015    28.383     8.737
    27   6 C        2.989    -0.079    29.964     8.979
    28   6 C        3.114     0.009    27.658     8.615
    29   6 C        2.921    -0.035    28.882     8.813
    30   6 C        3.115     0.006    27.731     8.626
    31   6 C        2.919    -0.022    28.553     8.763
    32   6 C        2.919    -0.020    28.509     8.756
    33   6 C        2.924    -0.019    28.488     8.753
    34   6 C        2.926    -0.016    28.407     8.741
    35   6 C        2.991    -0.076    29.880     8.967
    36  16 S        3.942     0.963   107.721    17.468
    37   8 O        0.860    -0.572    25.432     6.761
    38   8 O        0.860    -0.572    25.437     6.762
    39   6 C        2.927     0.053    26.809     8.491
    40   6 C        2.923    -0.059    29.461     8.901
    41   6 C        2.921    -0.045    29.112     8.848
    42   6 C        2.910     0.050    26.871     8.500
    43   7 N        2.802    -0.046    22.118     6.985
    44   6 C        3.078     0.047    26.864     8.498
    45   6 C        2.909    -0.053    29.319     8.879
    46   6 C        2.923    -0.036    28.896     8.815
    47   6 C        2.919    -0.044    29.089     8.844
    48   6 C        2.912    -0.036    28.884     8.813
    49   6 C        3.067    -0.020    28.436     8.744
    50   6 C        3.068    -0.020    28.435     8.744
    51   6 C        2.912    -0.036    28.886     8.813
    52   6 C        2.919    -0.044    29.089     8.844
    53   6 C        2.924    -0.036    28.894     8.815
    54   6 C        2.909    -0.053    29.309     8.877
    55   6 C        3.078     0.047    26.863     8.497
    56   6 C        2.930    -0.048    29.200     8.862
    57   6 C        2.978    -0.009    28.234     8.716
    58   1 H        0.925     0.045     2.380     2.412
    59   1 H        0.925     0.035     2.518     2.482
    60   1 H        0.925     0.045     2.383     2.414
    61   1 H        0.925     0.033     2.539     2.492
    62   1 H        0.925     0.045     2.381     2.413
    63   1 H        0.925     0.045     2.385     2.415
    64   1 H        0.926     0.047     2.355     2.400
    65   1 H        0.926     0.032     2.559     2.501
    66   1 H        0.926     0.029     2.599     2.521
    67   1 H        0.926     0.025     2.653     2.547
    68   1 H        0.926     0.027     2.626     2.534
    69   1 H        0.926     0.028     2.619     2.531
    70   1 H        0.926     0.025     2.656     2.548
    71   1 H        0.926     0.028     2.621     2.532
    72   1 H        0.926     0.029     2.601     2.522
    73   1 H        0.926     0.041     2.442     2.444
    74   1 H        0.926     0.034     2.533     2.489
    75   1 H        0.926     0.073     2.053     2.240
    76   1 H        0.926     0.062     2.178     2.308
    77   1 H        0.926     0.079     1.992     2.207
    78   1 H        0.926     0.073     2.050     2.239
    79   1 H        0.926     0.071     2.070     2.250
    80   1 H        0.926     0.069     2.099     2.266
    81   1 H        0.926     0.054     2.268     2.355
    82   1 H        0.926     0.034     2.531     2.488
    83   1 H        0.926     0.041     2.440     2.443
    84   1 H        0.926     0.031     2.569     2.506
    85   1 H        0.926     0.029     2.607     2.525
    86   1 H        0.926     0.025     2.656     2.548
    87   1 H        0.926     0.027     2.625     2.534
    88   1 H        0.926     0.027     2.623     2.533
    89   1 H        0.926     0.025     2.653     2.547
    90   1 H        0.926     0.029     2.608     2.525
    91   1 H        0.926     0.030     2.584     2.514
    92   1 H        0.926     0.047     2.354     2.399

molecular dipole:
                 x           y           z       tot (Debye)
 q only:       -0.183       0.875       2.509
   full:       -0.163       0.598       2.220       5.859

 projected vibrational frequencies (cm⁻¹)
eigval :       -0.00    -0.00    -0.00    -0.00     0.00     0.00
eigval :       11.30    12.19    13.48    17.57    20.86    22.13
eigval :       32.90    38.72    41.43    50.60    70.14    77.77
eigval :       91.83    99.92   104.57   106.60   109.47   114.58
eigval :      124.43   124.78   128.20   142.95   144.18   162.29
eigval :      172.65   174.20   183.79   190.04   195.33   198.40
eigval :      233.34   240.47   241.13   271.01   271.50   277.44
eigval :      289.97   291.62   310.12   314.40   326.90   334.00
eigval :      345.43   356.88   359.73   368.07   388.64   392.23
eigval :      396.04   396.79   402.28   410.99   420.84   423.86
eigval :      428.66   433.44   435.06   444.37   453.11   466.57
eigval :      470.66   485.97   500.29   508.60   514.17   517.52
eigval :      518.20   523.82   527.86   531.27   539.72   542.31
eigval :      546.06   558.72   568.79   585.66   588.18   588.59
eigval :      595.93   603.90   626.61   632.77   637.29   639.99
eigval :      672.99   673.94   679.23   682.56   683.30   686.41
eigval :      692.48   701.09   704.88   707.96   709.25   710.06
eigval :      751.86   755.32   762.02   767.97   768.91   779.32
eigval :      779.57   779.78   805.40   822.72   824.21   826.03
eigval :      843.03   867.90   868.60   871.58   872.03   873.27
eigval :      882.22   891.05   893.83   897.98   899.44   899.91
eigval :      900.28   904.28   906.07   911.38   914.45   915.91
eigval :      916.26   916.98   921.15   922.02   923.91   925.37
eigval :      927.90   930.17   942.42   956.62   991.52   995.80
eigval :     1008.10  1011.13  1011.41  1011.79  1020.47  1067.82
eigval :     1068.60  1070.81  1071.92  1072.00  1080.80  1094.25
eigval :     1094.38  1099.84  1119.85  1123.71  1145.69  1148.93
eigval :     1149.69  1150.29  1155.69  1158.94  1164.88  1173.88
eigval :     1174.79  1175.66  1180.44  1180.59  1183.47  1187.54
eigval :     1191.87  1193.82  1215.04  1223.08  1228.18  1235.60
eigval :     1236.24  1236.81  1242.03  1250.16  1259.71  1266.04
eigval :     1270.92  1297.94  1299.06  1302.71  1304.22  1304.82
eigval :     1310.33  1321.42  1322.86  1329.91  1342.97  1355.87
eigval :     1356.01  1361.28  1361.68  1369.65  1386.37  1395.68
eigval :     1399.69  1412.15  1416.03  1418.70  1422.11  1427.92
eigval :     1428.65  1438.00  1442.06  1448.79  1453.54  1474.08
eigval :     1475.00  1477.39  1485.01  1487.34  1487.46  1487.55
eigval :     1496.64  1498.07  1499.99  1557.84  1561.57  1566.67
eigval :     1570.02  1572.19  1576.18  1577.43  1586.87  1587.13
eigval :     1593.21  1594.54  1596.79  1596.95  1599.20  1613.15
eigval :     1613.37  3023.68  3026.15  3041.08  3043.26  3050.42
eigval :     3054.56  3068.10  3068.17  3069.15  3069.32  3074.19
eigval :     3074.48  3075.19  3075.43  3082.79  3083.10  3084.06
eigval :     3084.36  3089.61  3089.91  3090.68  3091.66  3091.70
eigval :     3092.42  3092.55  3096.69  3098.04  3100.35  3100.77
eigval :     3104.29  3104.39  3104.96  3107.15  3107.42  3110.91

   temp. (K)  partition function   enthalpy   heat capacity  entropy
                                   cal/mol     cal/K/mol   cal/K/mol   J/K/mol
 298.15  VIB  0.455E+21            26866.145    170.889    165.646
         ROT  0.181E+09              888.752      2.981     40.770
         INT  0.826E+29            27754.897    173.870    206.416
         TR   0.200E+29             1481.254      4.968     45.719
         TOT                       29236.1510   178.8383   252.1352  1054.9335

       T/K    H(0)-H(T)+PV         H(T)/Eh          T*S/Eh         G(T)/Eh
   ------------------------------------------------------------------------
    298.15    0.465908E-01    0.748165E+00    0.119798E+00    0.628368E+00
   ------------------------------------------------------------------------

         :::::::::::::::::::::::::::::::::::::::::::::::::::::
         ::                  THERMODYNAMIC                  ::
         :::::::::::::::::::::::::::::::::::::::::::::::::::::
         :: total free energy        -146.746225019718 Eh   ::
         ::.................................................::
         :: total energy             -147.374592621162 Eh   ::
         :: zero point energy           0.701574376392 Eh   ::
         :: G(RRHO) w/o ZPVE           -0.073206774948 Eh   ::
         :: G(RRHO) contrib.            0.628367601443 Eh   ::
         :::::::::::::::::::::::::::::::::::::::::::::::::::::

           -------------------------------------------------
          | TOTAL ENERGY             -147.374592621162 Eh   |
          | TOTAL ENTHALPY           -146.626427472553 Eh   |
          | TOTAL FREE ENERGY        -146.746225019718 Eh   |
          | GRADIENT NORM               0.000045366915 Eh/α |
          | HOMO-LUMO GAP               1.512712858180 eV   |
           -------------------------------------------------

 * finished run on 2025/07/17 at 23:11:21.319
