   * xtb version 6.7.1 (edcfbbe) compiled by 'albert@albert-system' on 2024-07-22

   ID    Z sym.   atoms
    1    6 C      1-18, 20-41, 43-45
    2   16 S      19
    3    8 O      42
    4    1 H      46-77

          program call               : xtb data2507/toluene/DMBFTX/DMBFTX_toluene_T1_crest.xyz --gfn 2 --uhf 2 --gbsa toluene --ohess vtight --parallel 40 --molden --ceasefiles --namespace data2507/toluene/DMBFTX/DMBFTX_toluene_T1_finalOpt
      * Solvation model:               GBSA
        Solvent                        toluene
        Solvent mass                       9.2140E+01 g/mol
          :  Hamiltonian                  GFN2-xTB          :
 * total energy  :  -115.7240151 Eh     change       -0.9135846E-08 Eh
 * total energy  :  -115.7241435 Eh     change       -0.1283935E-03 Eh
 * total energy  :  -115.7241837 Eh     change       -0.4018463E-04 Eh
 * total energy  :  -115.7241966 Eh     change       -0.1286282E-04 Eh
 * total energy  :  -115.7242085 Eh     change       -0.1196487E-04 Eh
 * total energy  :  -115.7242242 Eh     change       -0.1562289E-04 Eh
 * total energy  :  -115.7242431 Eh     change       -0.1895140E-04 Eh
 * total energy  :  -115.7242625 Eh     change       -0.1938379E-04 Eh
 * total energy  :  -115.7242819 Eh     change       -0.1941097E-04 Eh
 * total energy  :  -115.7243031 Eh     change       -0.2117765E-04 Eh
 * total energy  :  -115.7244557 Eh     change       -0.4099190E-06 Eh
 * total energy  :  -115.7244559 Eh     change       -0.2843546E-06 Eh
 * total energy  :  -115.7244562 Eh     change       -0.2750746E-06 Eh
 * total energy  :  -115.7244565 Eh     change       -0.2829305E-06 Eh
 * total energy  :  -115.7244568 Eh     change       -0.3177693E-06 Eh
 * total energy  :  -115.7244572 Eh     change       -0.3457006E-06 Eh
 * total energy  :  -115.7244575 Eh     change       -0.3799344E-06 Eh
 * total energy  :  -115.7244575 Eh     change        0.3336424E-09 Eh
 * total energy  :  -115.7244575 Eh     change       -0.3514060E-09 Eh
   *** GEOMETRY OPTIMIZATION CONVERGED AFTER 69 ITERATIONS ***

 final structure:
================
77
 xtb: 6.7.1 (edcfbbe)
C           -4.43694305296348        0.87651274933135        1.63089141517385
C           -5.65741427646851        0.25285018910142        0.94431210796763
C           -5.81036217682109       -1.21395442875500        1.36053982091142
C           -6.90298954745498        1.04250124193991        1.28272757383531
C           -7.47776809753182        1.26675152042788        2.51567247189126
C           -8.62695330646466        2.04357370750647        2.58798867217793
C           -9.19284452987139        2.58699077018201        1.44268475301918
C           -8.62474117875589        2.36431464771104        0.19993330755277
C           -7.47666281369411        1.58915906384847        0.12512022416257
C           -6.67527624601537        1.18990216276549       -1.01737723653561
C           -6.85213537744108        1.46455062923767       -2.36498489126479
C           -5.94732722708741        0.93637118380380       -3.26926408032586
C           -4.89297175197039        0.15325689672085       -2.83076133887686
C           -4.69985105848722       -0.12310529777422       -1.47413929924008
C           -3.54125853813074       -0.96478028509938       -1.10311387753385
C           -3.62791184567836       -2.35820709249685       -1.18247589404790
C           -2.51802536171775       -3.12840595076603       -0.87758725221845
C           -1.32243458183193       -2.53299554566741       -0.49887086131566
S            0.00987247757272       -3.62487834941991       -0.16452998890723
C            1.33120103833939       -2.55543794869244        0.27132617578908
C            2.53053422395870       -3.17178371030065        0.60133556626130
C            3.63399027535742       -2.42185743567249        0.97330398416222
C            3.53650047459162       -1.02767512417914        1.01226795701149
C            4.68782539470241       -0.20943245454663        1.45216856143899
C            4.86296404130884       -0.01989606792854        2.82584547257147
C            5.90931560978478        0.73619768756784        3.32670808392576
C            6.82094919770267        1.32721066647169        2.46938244177517
C            6.66038419348438        1.14090672090730        1.10475721188336
C            5.59741768766088        0.37845446950742        0.58852880398205
C            5.66953120079954        0.32888745332922       -0.92537385866091
C            4.44391197703095        0.97296903185030       -1.58269330813389
C            5.85536261642666       -1.10480821377436       -1.43432396955496
C            6.90468678664824        1.15906130211639       -1.19828179257091
C            7.48121711498240        1.48103716344518       -2.40851315614818
C            8.61943311330067        2.27710354846094       -2.41777723792099
C            9.17324620082285        2.74202090781776       -1.23264701769934
C            8.60285636684161        2.42157650345739       -0.01250149548536
C            7.46514092937999        1.62786115243548       -0.00071645777562
C            2.33461023485967       -0.41752781557022        0.69741604596489
C            1.19803396085992       -1.15096496549433        0.30711863538155
C           -0.00413097608704       -0.42205815704695       -0.02265229678352
O           -0.00927923853839        0.85240086147251        0.03185043349356
C           -1.20094185412006       -1.12960146255224       -0.41275554374949
C           -2.34364739953316       -0.37439684541480       -0.73846048973782
C           -5.60149432426404        0.40325996718489       -0.56365210148269
H           -4.30520966071867        1.90768223236769        1.30807359252054
H           -3.53517579828709        0.31981269745320        1.38942777623764
H           -4.57161851121664        0.86695176553705        2.71003103600600
H           -6.67335633507573       -1.65812201362354        0.86827918474572
H           -4.92095476470348       -1.77646259574395        1.08815163265792
H           -5.95032402109094       -1.28314605540720        2.43659758530290
H           -7.04742896057892        0.85141903377677        3.41521839753929
H           -9.08644972322362        2.22802814042416        3.54832038425053
H          -10.08588991873715        3.18974284295887        1.52390639040852
H           -9.06595121181059        2.78672056568916       -0.69049973587761
H           -7.67744735473307        2.07371912402599       -2.70076631893797
H           -6.06118709557520        1.13144737975095       -4.32561354811192
H           -4.19193408558317       -0.25308053765921       -3.54584582307540
H           -4.55284933648142       -2.82718297050220       -1.47827658120048
H           -2.56797469481226       -4.20551507472594       -0.93511253098769
H            2.58901443456844       -4.24941258463441        0.56654164809932
H            4.56166128334012       -2.90733071551245        1.23168744709973
H            4.15519272386932       -0.47434049109924        3.50451365020161
H            6.00993587056734        0.86282160357300        4.39479751427449
H            7.63849759807340        1.91793780534918        2.85376039553214
H            4.29108730120955        1.97929313846071       -1.19699042490818
H            3.55031644651357        0.38673010134800       -1.38445713582132
H            4.58715891827716        1.03344124153236       -2.65904642155016
H            6.01047467122762       -1.10055827426350       -2.51052825828574
H            6.72055322273510       -1.56424188260670       -0.96021409889784
H            4.97353341702412       -1.70001871982768       -1.21152463343929
H            7.06039586393246        1.12678542165198       -3.33819202349343
H            9.07979446578166        2.53873175239885       -3.35960405412077
H           10.05843097374575        3.36079314405879       -1.26482227866537
H            9.03402502581913        2.78408554324814        0.90871337959877
H            2.23123847905443        0.65674271045641        0.74835557118543
H           -2.24731300761525        0.70104661816254       -0.70033175924443

          :  Hamiltonian                  GFN2-xTB          :
         :: gradient norm              0.000048511536 Eh/a0 ::
         :: HOMO-LUMO gap              0.929541240589 eV    ::
         :: SCC energy              -117.779631825984 Eh    ::
         :: -> dispersion             -0.109559399143 Eh    ::
         :: -> Gsolv                  -0.053542403101 Eh    ::
         :: repulsion energy           2.055174281070 Eh    ::

    * Orbital Energies and Occupations

         #    Occupation            Energy/Eh            Energy/eV
      -------------------------------------------------------------
         1        2.0000           -0.7447949             -20.2669
       ...           ...                  ...                  ...
        97        2.0000           -0.4141305             -11.2691
        98        2.0000           -0.4136283             -11.2554
        99        2.0000           -0.4121013             -11.2138
       100        2.0000           -0.4075245             -11.0893
       101        2.0000           -0.4044756             -11.0063
       102        2.0000           -0.4042668             -11.0007
       103        2.0000           -0.3991109             -10.8604
       104        2.0000           -0.3989870             -10.8570
       105        1.9445           -0.3830322             -10.4228
       106        1.9290           -0.3827834             -10.4161
       107        1.7048           -0.3811666             -10.3721
       108        1.4217           -0.3800399             -10.3414
       109        1.0000           -0.2896422              -7.8816 (HOMO)
       110                         -0.2554826              -6.9520 (LUMO)
       111                         -0.2553685              -6.9489
       112                         -0.2499603              -6.8018
       113                         -0.2361709              -6.4265
       114                         -0.2340492              -6.3688
       115                         -0.2273986              -6.1878
       116                         -0.2273261              -6.1859
       117                         -0.2225851              -6.0568
       118                         -0.2225250              -6.0552
       119                         -0.2106633              -5.7324
       120                         -0.1932142              -5.2576
       ...                                ...                  ...
       217                          0.7230269              19.6746
      -------------------------------------------------------------
                  HL-Gap            0.0341597 Eh            0.9295 eV

     #   Z          covCN         q      C6AA      α(0)
     1   6 C        3.758    -0.096    22.390     6.746
     2   6 C        3.934     0.021    20.158     6.380
     3   6 C        3.758    -0.100    22.458     6.756
     4   6 C        3.055     0.002    27.919     8.665
     5   6 C        2.914    -0.033    28.816     8.803
     6   6 C        2.922    -0.030    28.746     8.792
     7   6 C        2.920    -0.032    28.806     8.801
     8   6 C        2.914    -0.033    28.825     8.804
     9   6 C        3.034     0.002    27.938     8.670
    10   6 C        3.038     0.004    27.908     8.665
    11   6 C        2.914    -0.035    28.860     8.809
    12   6 C        2.919    -0.032    28.791     8.799
    13   6 C        2.928    -0.033    28.813     8.803
    14   6 C        2.973     0.010    27.800     8.649
    15   6 C        2.973     0.024    27.466     8.597
    16   6 C        2.920    -0.045    29.119     8.849
    17   6 C        2.990    -0.037    28.901     8.819
    18   6 C        2.967     0.027    27.396     8.585
    19  16 S        2.157     0.004   140.901    19.978
    20   6 C        2.967     0.027    27.396     8.585
    21   6 C        2.990    -0.037    28.901     8.819
    22   6 C        2.920    -0.045    29.119     8.849
    23   6 C        2.973     0.024    27.466     8.597
    24   6 C        2.973     0.010    27.801     8.649
    25   6 C        2.928    -0.033    28.813     8.803
    26   6 C        2.919    -0.032    28.791     8.799
    27   6 C        2.914    -0.035    28.862     8.810
    28   6 C        3.038     0.004    27.909     8.665
    29   6 C        3.048    -0.003    28.047     8.686
    30   6 C        3.934     0.021    20.158     6.380
    31   6 C        3.758    -0.096    22.390     6.746
    32   6 C        3.758    -0.100    22.459     6.757
    33   6 C        3.055     0.002    27.919     8.665
    34   6 C        2.914    -0.033    28.816     8.803
    35   6 C        2.922    -0.030    28.746     8.792
    36   6 C        2.921    -0.032    28.806     8.801
    37   6 C        2.914    -0.033    28.825     8.804
    38   6 C        3.034     0.002    27.937     8.670
    39   6 C        2.932    -0.034    28.848     8.808
    40   6 C        2.990    -0.017    28.426     8.746
    41   6 C        2.836     0.162    24.497     8.111
    42   8 O        0.858    -0.511    24.021     6.571
    43   6 C        2.990    -0.017    28.426     8.746
    44   6 C        2.932    -0.034    28.849     8.809
    45   6 C        3.048    -0.003    28.047     8.686
    46   1 H        0.925     0.033     2.539     2.492
    47   1 H        0.925     0.041     2.432     2.439
    48   1 H        0.925     0.045     2.390     2.417
    49   1 H        0.925     0.038     2.472     2.458
    50   1 H        0.925     0.043     2.404     2.425
    51   1 H        0.925     0.046     2.369     2.407
    52   1 H        0.926     0.034     2.526     2.485
    53   1 H        0.926     0.036     2.509     2.477
    54   1 H        0.926     0.035     2.522     2.483
    55   1 H        0.926     0.036     2.508     2.476
    56   1 H        0.926     0.039     2.461     2.453
    57   1 H        0.926     0.039     2.468     2.457
    58   1 H        0.926     0.034     2.532     2.488
    59   1 H        0.926     0.046     2.372     2.409
    60   1 H        0.926     0.052     2.299     2.371
    61   1 H        0.926     0.052     2.299     2.371
    62   1 H        0.926     0.046     2.371     2.408
    63   1 H        0.926     0.034     2.534     2.489
    64   1 H        0.926     0.038     2.469     2.457
    65   1 H        0.926     0.039     2.462     2.454
    66   1 H        0.925     0.033     2.540     2.492
    67   1 H        0.925     0.041     2.437     2.441
    68   1 H        0.925     0.045     2.388     2.417
    69   1 H        0.925     0.046     2.369     2.407
    70   1 H        0.925     0.038     2.471     2.458
    71   1 H        0.925     0.044     2.399     2.422
    72   1 H        0.926     0.034     2.525     2.485
    73   1 H        0.926     0.036     2.509     2.477
    74   1 H        0.926     0.035     2.522     2.483
    75   1 H        0.926     0.036     2.508     2.476
    76   1 H        0.926     0.045     2.382     2.413
    77   1 H        0.926     0.045     2.379     2.412

molecular dipole:
                 x           y           z       tot (Debye)
 q only:        0.005      -1.366      -0.061
   full:        0.003      -1.146      -0.051       2.915

 projected vibrational frequencies (cm⁻¹)
eigval :       -0.00    -0.00    -0.00     0.00     0.00     0.00
eigval :        7.65    11.30    21.88    23.29    25.19    29.80
eigval :       38.54    51.71    67.65    69.77    97.34   100.61
eigval :      108.08   108.78   114.43   147.08   149.28   154.77
eigval :      164.30   166.18   183.95   195.21   212.58   214.88
eigval :      218.92   226.47   231.13   236.30   240.89   259.15
eigval :      261.49   275.87   289.33   299.49   309.97   311.61
eigval :      313.26   314.79   325.13   340.94   349.34   359.03
eigval :      361.29   391.64   412.19   422.37   427.47   436.21
eigval :      443.75   464.87   471.46   498.52   502.78   505.61
eigval :      518.01   525.73   541.27   542.27   545.29   556.95
eigval :      560.42   567.65   570.15   579.93   580.59   599.02
eigval :      599.81   626.82   636.31   640.23   656.23   663.81
eigval :      664.11   707.33   709.29   709.56   720.41   722.87
eigval :      724.34   737.60   761.86   773.61   774.69   795.15
eigval :      798.03   798.74   800.54   801.42   807.29   824.33
eigval :      862.34   869.43   875.84   878.68   882.85   885.21
eigval :      885.29   887.25   891.10   910.92   911.38   916.25
eigval :      919.53   925.64   925.86   946.28   956.78   957.20
eigval :      966.48   967.25  1010.58  1010.96  1011.90  1012.79
eigval :     1024.83  1041.32  1068.99  1069.75  1074.22  1074.85
eigval :     1095.04  1095.83  1122.04  1122.54  1139.94  1140.28
eigval :     1143.38  1145.13  1154.17  1154.71  1167.27  1171.25
eigval :     1171.45  1178.35  1179.31  1186.11  1195.44  1196.06
eigval :     1220.46  1221.06  1225.27  1228.02  1252.17  1252.57
eigval :     1262.21  1265.79  1268.15  1271.01  1290.01  1293.74
eigval :     1320.94  1326.70  1326.84  1340.23  1347.75  1354.53
eigval :     1357.40  1360.66  1390.18  1390.80  1392.59  1392.82
eigval :     1395.72  1405.26  1411.23  1412.24  1426.82  1429.39
eigval :     1439.54  1459.71  1460.15  1465.87  1473.68  1479.89
eigval :     1482.28  1482.54  1486.51  1486.68  1493.07  1493.54
eigval :     1493.94  1499.78  1501.03  1515.23  1548.17  1563.52
eigval :     1569.87  1570.88  1572.24  1586.99  1587.12  1593.77
eigval :     1595.40  3024.70  3025.22  3028.37  3028.48  3032.28
eigval :     3032.34  3034.95  3035.12  3039.07  3040.51  3043.60
eigval :     3044.61  3068.60  3069.29  3070.96  3072.51  3074.13
eigval :     3074.51  3079.73  3081.01  3081.22  3081.92  3085.00
eigval :     3085.81  3087.49  3087.88  3088.24  3088.61  3090.58
eigval :     3092.36  3103.09  3104.33

   temp. (K)  partition function   enthalpy   heat capacity  entropy
                                   cal/mol     cal/K/mol   cal/K/mol   J/K/mol
 298.15  VIB  0.135E+18            22436.170    141.312    138.126
         ROT  0.893E+08              888.752      2.981     39.363
         INT  0.121E+26            23324.922    144.293    177.489
         TR   0.141E+29             1481.254      4.968     45.022
         TOT                       24806.1759   149.2613   222.5113   930.9871

       T/K    H(0)-H(T)+PV         H(T)/Eh          T*S/Eh         G(T)/Eh
   ------------------------------------------------------------------------
    298.15    0.395312E-01    0.637089E+00    0.105722E+00    0.531367E+00
   ------------------------------------------------------------------------

         :::::::::::::::::::::::::::::::::::::::::::::::::::::
         ::                  THERMODYNAMIC                  ::
         :::::::::::::::::::::::::::::::::::::::::::::::::::::
         :: total free energy        -115.193090578148 Eh   ::
         ::.................................................::
         :: total energy             -115.724457540958 Eh   ::
         :: zero point energy           0.597558088228 Eh   ::
         :: G(RRHO) w/o ZPVE           -0.066191125419 Eh   ::
         :: G(RRHO) contrib.            0.531366962810 Eh   ::
         :::::::::::::::::::::::::::::::::::::::::::::::::::::

           -------------------------------------------------
          | TOTAL ENERGY             -115.724457540958 Eh   |
          | TOTAL ENTHALPY           -115.087368295117 Eh   |
          | TOTAL FREE ENERGY        -115.193090578148 Eh   |
          | GRADIENT NORM               0.000047987322 Eh/α |
          | HOMO-LUMO GAP               0.929532392067 eV   |
           -------------------------------------------------

 * finished run on 2025/09/12 at 05:05:00.698
