   * xtb version 6.7.1 (edcfbbe) compiled by 'albert@albert-system' on 2024-07-22

   ID    Z sym.   atoms
    1    6 C      1-18, 20-41, 43-45
    2   16 S      19
    3    8 O      42
    4    1 H      46-77

          program call               : xtb data2507/toluene/DMBFTX/DMBFTX_toluene_S0_finalOpt.xtbopt.xyz --gfn 2 --uhf 2 --gbsa toluene --ohess vtight --parallel 40 --molden --ceasefiles --namespace data2507/toluene/DMBFTX/DMBFTX_toluene_T1_preOpt
      * Solvation model:               GBSA
        Solvent                        toluene
        Solvent mass                       9.2140E+01 g/mol
          :  Hamiltonian                  GFN2-xTB          :
 * total energy  :  -115.7211443 Eh     change       -0.2160772E-07 Eh
 * total energy  :  -115.7237636 Eh     change       -0.2619307E-02 Eh
 * total energy  :  -115.7244179 Eh     change       -0.6543406E-03 Eh
 * total energy  :  -115.7244539 Eh     change       -0.3601488E-04 Eh
 * total energy  :  -115.7244604 Eh     change       -0.6491032E-05 Eh
 * total energy  :  -115.7244633 Eh     change       -0.2892927E-05 Eh
 * total energy  :  -115.7244676 Eh     change       -0.4265100E-05 Eh
 * total energy  :  -115.7244689 Eh     change       -0.1364782E-05 Eh
 * total energy  :  -115.7244699 Eh     change       -0.9541870E-06 Eh
 * total energy  :  -115.7244704 Eh     change       -0.5316253E-06 Eh
 * total energy  :  -115.7244725 Eh     change       -0.2863314E-06 Eh
 * total energy  :  -115.7244728 Eh     change       -0.2469619E-06 Eh
 * total energy  :  -115.7244731 Eh     change       -0.3178190E-06 Eh
 * total energy  :  -115.7244736 Eh     change       -0.4618592E-06 Eh
 * total energy  :  -115.7244742 Eh     change       -0.6225321E-06 Eh
 * total energy  :  -115.7244748 Eh     change       -0.6653606E-06 Eh
 * total energy  :  -115.7244754 Eh     change       -0.5529358E-06 Eh
 * total energy  :  -115.7244759 Eh     change       -0.4959430E-06 Eh
 * total energy  :  -115.7244759 Eh     change       -0.1156782E-07 Eh
   *** GEOMETRY OPTIMIZATION CONVERGED AFTER 22 ITERATIONS ***

 final structure:
================
77
 xtb: 6.7.1 (edcfbbe)
C           -4.55366310480874        0.46495545328092        1.75065876116281
C           -5.74852198328401       -0.00270838967528        0.91219035626649
C           -5.89876097463774       -1.52535478634068        1.00059560034509
C           -7.01552589059218        0.68406149510277        1.37273491053774
C           -7.62811024738125        0.63257847971910        2.60672809214198
C           -8.79895961622214        1.35331708694192        2.80421183003751
C           -9.34763798667448        2.11482915383604        1.78125033139648
C           -8.73932282409968        2.17289423064088        0.53892478403333
C           -7.56970146480230        1.45401848545149        0.33914137447674
C           -6.72496525226123        1.32402878994634       -0.83411755022308
C           -6.85822706357434        1.89196881787256       -2.09204394478434
C           -5.90414216403871        1.60012438765967       -3.05113004912787
C           -4.84392385401183        0.76017573004718       -2.75417193519925
C           -4.69892773122423        0.18299155240492       -1.48963634272804
C           -3.53519777154436       -0.70276397893027       -1.26451005686273
C           -3.61633839144198       -2.06725039334321       -1.55847010144333
C           -2.50432626270703       -2.87157243573870       -1.37130028501934
C           -1.31277213139597       -2.33763423239325       -0.90007171973792
S            0.01985280130038       -3.46561977999498       -0.72367967568675
C            1.33177291529442       -2.47459955289656       -0.11027532498749
C            2.52441741151883       -3.13564616876625        0.14998453952014
C            3.62218619058113       -2.44940904215575        0.64220169151694
C            3.52579059134579       -1.07414730456507        0.87464625834386
C            4.67469207635537       -0.32710941546189        1.43241444395296
C            4.80041237282570       -0.26689998483442        2.82299038504166
C            5.84741502170627        0.40772160079520        3.42831160000235
C            6.80650212221850        1.04717194667571        2.66246051619391
C            6.69170513586217        0.99398640566695        1.28161049020301
C            5.63049714914987        0.31191586327458        0.65994560003273
C            5.74837462448538        0.41385216858126       -0.84844359536483
C            4.55805567575019        1.15956487190844       -1.46264969561692
C            5.91022790269255       -0.96179891192408       -1.50401886567250
C            7.01221726231020        1.23182461024580       -0.99987655047678
C            7.63582314631737        1.65518454304780       -2.15423776248547
C            8.79431930281186        2.41435926445702       -2.05006930961806
C            9.32010169455790        2.74491288060176       -0.80845214659544
C            8.70158992712332        2.32312812849334        0.35617670634872
C            7.54466145768239        1.56425312689323        0.25483234921169
C            2.32909232605359       -0.42216915246803        0.63295495885365
C            1.19847384652207       -1.08938820577111        0.12419705431803
C           -0.00044913196899       -0.31914919940478       -0.10988291850839
O           -0.00568026870010        0.93454563561358        0.12528918921489
C           -1.19525990056924       -0.96306915763602       -0.60304588618763
C           -2.33974627195358       -0.17045618551532       -0.81361060832490
C           -5.64974953434598        0.47195591213635       -0.52463050381424
H           -4.43719472193629        1.54468352287490        1.67639595175666
H           -3.63665318537337       -0.00628434823667        1.40558375914391
H           -4.70626005042097        0.20458317900702        2.79544187982535
H           -4.99039926844563       -2.01411473720895        0.65843333867153
H           -6.08685353513582       -1.82109144503516        2.02988883437627
H           -6.73259028519638       -1.85802668964750        0.38552509666960
H           -7.21155744107455        0.04482516990075        3.41167281549532
H           -9.28934447536812        1.32138618225909        3.76643888504246
H          -10.25886006687684        2.66771382933883        1.95843080323918
H           -9.16690382119799        2.76617283103198       -0.25553154413849
H           -7.68512186170963        2.54817966401362       -2.31706266657011
H           -5.98175412209474        2.02880291601648       -4.03963711931651
H           -4.10347301362596        0.54176520375864       -3.51049110548385
H           -4.53708718525506       -2.48767249403878       -1.93032107849424
H           -2.54971017993064       -3.92705861366963       -1.59470000645092
H            2.58252225739904       -4.19797699157955       -0.03428555679072
H            4.54399475076322       -2.97006773998626        0.84706650912908
H            4.05595509282078       -0.76051032700762        3.43139052020865
H            5.91042046973639        0.43276928503276        4.50641312724056
H            7.62385383937619        1.57590740745688        3.12878688565144
H            4.43079632075024        2.12980934945462       -0.98582813315022
H            3.64183813808079        0.58846446536706       -1.33465600835032
H            4.72423465964698        1.31595241724827       -2.52592578840958
H            6.11557045968947       -0.84563544133823       -2.56545649059631
H            6.73686474357772       -1.50275144093112       -1.04764958475826
H            4.99988228121936       -1.54396475477030       -1.38719170926150
H            7.23626253503470        1.40741828038290       -3.12679653675124
H            9.29246322746722        2.75312309847297       -2.94698398613427
H           10.22142071138558        3.33813040521304       -0.75239169346106
H            9.11122110529674        2.58147821360567        1.32126802608270
H            2.22766801202709        0.63554772983702        0.82900307544931
H           -2.25022455664800        0.88559195991069       -0.60324601365940

          :  Hamiltonian                  GFN2-xTB          :
         :: gradient norm              0.000090517285 Eh/a0 ::
         :: HOMO-LUMO gap              0.931101977846 eV    ::
         :: SCC energy              -117.779618999625 Eh    ::
         :: -> dispersion             -0.109552318212 Eh    ::
         :: -> Gsolv                  -0.053636619240 Eh    ::
         :: repulsion energy           2.055143107628 Eh    ::

    * Orbital Energies and Occupations

         #    Occupation            Energy/Eh            Energy/eV
      -------------------------------------------------------------
         1        2.0000           -0.7447582             -20.2659
       ...           ...                  ...                  ...
        97        2.0000           -0.4142420             -11.2721
        98        2.0000           -0.4134685             -11.2511
        99        2.0000           -0.4122982             -11.2192
       100        2.0000           -0.4071085             -11.0780
       101        2.0000           -0.4045910             -11.0095
       102        2.0000           -0.4045386             -11.0081
       103        2.0000           -0.3991101             -10.8603
       104        2.0000           -0.3991000             -10.8601
       105        1.9415           -0.3830543             -10.4234
       106        1.9266           -0.3828227             -10.4171
       107        1.7149           -0.3812876             -10.3754
       108        1.4170           -0.3800957             -10.3429
       109        1.0000           -0.2896902              -7.8829 (HOMO)
       110                         -0.2554737              -6.9518 (LUMO)
       111                         -0.2553714              -6.9490
       112                         -0.2497704              -6.7966
       113                         -0.2362628              -6.4290
       114                         -0.2337890              -6.3617
       115                         -0.2275215              -6.1912
       116                         -0.2274995              -6.1906
       117                         -0.2226782              -6.0594
       118                         -0.2226534              -6.0587
       119                         -0.2106469              -5.7320
       120                         -0.1932690              -5.2591
       ...                                ...                  ...
       217                          0.7229044              19.6712
      -------------------------------------------------------------
                  HL-Gap            0.0342165 Eh            0.9311 eV

     #   Z          covCN         q      C6AA      α(0)
     1   6 C        3.758    -0.096    22.389     6.746
     2   6 C        3.934     0.021    20.158     6.380
     3   6 C        3.758    -0.100    22.469     6.758
     4   6 C        3.055     0.002    27.918     8.665
     5   6 C        2.914    -0.033    28.816     8.803
     6   6 C        2.922    -0.030    28.745     8.792
     7   6 C        2.920    -0.032    28.805     8.801
     8   6 C        2.914    -0.033    28.824     8.804
     9   6 C        3.034     0.003    27.936     8.669
    10   6 C        3.038     0.004    27.909     8.665
    11   6 C        2.914    -0.035    28.864     8.810
    12   6 C        2.919    -0.032    28.790     8.799
    13   6 C        2.928    -0.033    28.811     8.803
    14   6 C        2.973     0.010    27.801     8.649
    15   6 C        2.972     0.024    27.466     8.596
    16   6 C        2.920    -0.045    29.116     8.849
    17   6 C        2.990    -0.037    28.904     8.819
    18   6 C        2.967     0.027    27.396     8.585
    19  16 S        2.157     0.004   140.907    19.979
    20   6 C        2.967     0.027    27.396     8.585
    21   6 C        2.990    -0.037    28.904     8.819
    22   6 C        2.920    -0.045    29.115     8.848
    23   6 C        2.973     0.024    27.466     8.596
    24   6 C        2.973     0.010    27.801     8.649
    25   6 C        2.928    -0.033    28.811     8.803
    26   6 C        2.919    -0.032    28.790     8.799
    27   6 C        2.914    -0.035    28.864     8.810
    28   6 C        3.038     0.004    27.909     8.665
    29   6 C        3.048    -0.003    28.046     8.686
    30   6 C        3.934     0.021    20.158     6.380
    31   6 C        3.758    -0.096    22.388     6.746
    32   6 C        3.758    -0.100    22.468     6.758
    33   6 C        3.055     0.002    27.918     8.665
    34   6 C        2.914    -0.033    28.816     8.803
    35   6 C        2.922    -0.030    28.745     8.792
    36   6 C        2.921    -0.032    28.805     8.801
    37   6 C        2.914    -0.033    28.824     8.804
    38   6 C        3.034     0.003    27.935     8.669
    39   6 C        2.932    -0.034    28.849     8.809
    40   6 C        2.990    -0.017    28.423     8.745
    41   6 C        2.836     0.162    24.495     8.110
    42   8 O        0.858    -0.510    24.017     6.571
    43   6 C        2.990    -0.017    28.424     8.745
    44   6 C        2.932    -0.034    28.849     8.809
    45   6 C        3.048    -0.003    28.047     8.686
    46   1 H        0.925     0.033     2.538     2.492
    47   1 H        0.925     0.040     2.447     2.446
    48   1 H        0.925     0.045     2.384     2.414
    49   1 H        0.925     0.045     2.389     2.417
    50   1 H        0.925     0.046     2.368     2.407
    51   1 H        0.925     0.038     2.472     2.459
    52   1 H        0.926     0.035     2.523     2.484
    53   1 H        0.926     0.036     2.508     2.477
    54   1 H        0.926     0.035     2.521     2.483
    55   1 H        0.926     0.036     2.508     2.477
    56   1 H        0.926     0.039     2.462     2.454
    57   1 H        0.926     0.038     2.470     2.458
    58   1 H        0.926     0.033     2.538     2.491
    59   1 H        0.926     0.046     2.365     2.405
    60   1 H        0.926     0.052     2.298     2.370
    61   1 H        0.926     0.052     2.297     2.370
    62   1 H        0.926     0.046     2.365     2.405
    63   1 H        0.926     0.033     2.537     2.491
    64   1 H        0.926     0.038     2.470     2.458
    65   1 H        0.926     0.039     2.462     2.454
    66   1 H        0.925     0.033     2.539     2.492
    67   1 H        0.925     0.040     2.445     2.445
    68   1 H        0.925     0.045     2.384     2.415
    69   1 H        0.925     0.046     2.368     2.407
    70   1 H        0.925     0.038     2.472     2.459
    71   1 H        0.925     0.044     2.392     2.419
    72   1 H        0.926     0.034     2.523     2.484
    73   1 H        0.926     0.036     2.508     2.477
    74   1 H        0.926     0.035     2.521     2.483
    75   1 H        0.926     0.036     2.508     2.476
    76   1 H        0.926     0.044     2.390     2.418
    77   1 H        0.926     0.044     2.391     2.418

molecular dipole:
                 x           y           z       tot (Debye)
 q only:        0.006      -1.420      -0.244
   full:        0.003      -1.188      -0.199       3.061

 projected vibrational frequencies (cm⁻¹)
eigval :       -0.00    -0.00    -0.00     0.00     0.00     0.00
eigval :       -3.08     7.55    17.82    22.42    23.72    27.60
eigval :       41.24    53.03    66.95    71.84    92.92    99.40
eigval :      102.73   105.62   114.97   146.94   150.28   155.87
eigval :      164.27   165.83   184.48   194.95   213.02   218.27
eigval :      229.09   231.12   233.22   234.82   238.41   260.69
eigval :      262.25   273.61   289.40   299.17   309.02   311.24
eigval :      312.78   314.45   323.26   340.63   348.29   357.94
eigval :      360.18   390.27   411.29   422.43   426.93   433.40
eigval :      441.28   464.63   470.67   498.56   503.07   506.14
eigval :      518.16   525.66   540.81   541.91   545.91   556.01
eigval :      560.65   567.45   570.46   580.15   580.42   599.00
eigval :      599.47   626.99   636.24   640.12   655.97   663.44
eigval :      664.02   706.64   708.69   709.53   720.60   722.70
eigval :      723.82   737.57   761.66   770.84   774.09   794.77
eigval :      796.68   797.45   798.89   801.73   807.66   824.29
eigval :      859.78   866.81   873.10   875.49   881.60   883.85
eigval :      885.16   887.04   889.27   907.31   910.36   916.62
eigval :      918.11   923.18   925.17   946.23   956.41   956.78
eigval :      966.19   967.19  1011.92  1012.39  1012.87  1012.93
eigval :     1024.89  1041.46  1069.04  1069.71  1074.06  1074.42
eigval :     1094.98  1095.67  1122.15  1122.33  1138.71  1139.43
eigval :     1142.54  1144.33  1154.20  1154.61  1167.43  1171.14
eigval :     1171.29  1179.28  1179.59  1185.85  1194.97  1195.61
eigval :     1220.44  1220.82  1225.48  1227.82  1252.64  1252.71
eigval :     1261.85  1265.55  1268.42  1271.43  1289.84  1293.81
eigval :     1320.22  1326.37  1326.50  1340.09  1347.03  1354.78
eigval :     1356.92  1360.20  1389.94  1390.89  1392.55  1392.91
eigval :     1395.61  1406.52  1411.36  1411.94  1426.91  1428.34
eigval :     1439.36  1459.57  1460.22  1465.77  1473.69  1480.39
eigval :     1482.73  1483.09  1486.97  1488.25  1493.39  1493.72
eigval :     1494.14  1500.23  1501.19  1514.98  1548.36  1563.99
eigval :     1569.71  1571.08  1572.74  1586.99  1587.06  1593.68
eigval :     1595.29  3024.93  3025.15  3028.63  3028.69  3032.39
eigval :     3032.40  3036.03  3036.37  3040.46  3040.98  3044.85
eigval :     3045.75  3070.11  3070.35  3071.04  3071.78  3074.40
eigval :     3074.48  3080.08  3080.30  3081.76  3081.87  3085.13
eigval :     3085.87  3086.86  3087.31  3088.43  3088.93  3091.03
eigval :     3091.96  3103.58  3103.79

   temp. (K)  partition function   enthalpy   heat capacity  entropy
                                   cal/mol     cal/K/mol   cal/K/mol   J/K/mol
 298.15  VIB  0.689E+18            22467.288    141.379    139.823
         ROT  0.888E+08              888.752      2.981     39.350
         INT  0.611E+26            23356.040    144.360    179.173
         TR   0.141E+29             1481.254      4.968     45.022
         TOT                       24837.2938   149.3279   224.1958   938.0350

       T/K    H(0)-H(T)+PV         H(T)/Eh          T*S/Eh         G(T)/Eh
   ------------------------------------------------------------------------
    298.15    0.395807E-01    0.637028E+00    0.106523E+00    0.530505E+00
   ------------------------------------------------------------------------

         :::::::::::::::::::::::::::::::::::::::::::::::::::::
         ::                  THERMODYNAMIC                  ::
         :::::::::::::::::::::::::::::::::::::::::::::::::::::
         :: total free energy        -115.193970441372 Eh   ::
         ::.................................................::
         :: total energy             -115.724475895435 Eh   ::
         :: zero point energy           0.597447343105 Eh   ::
         :: G(RRHO) w/o ZPVE           -0.066941889042 Eh   ::
         :: G(RRHO) contrib.            0.530505454063 Eh   ::
         :::::::::::::::::::::::::::::::::::::::::::::::::::::

           -------------------------------------------------
          | TOTAL ENERGY             -115.724475895435 Eh   |
          | TOTAL ENTHALPY           -115.087447805190 Eh   |
          | TOTAL FREE ENERGY        -115.193970441372 Eh   |
          | GRADIENT NORM               0.000079129569 Eh/α |
          | HOMO-LUMO GAP               0.931078842160 eV   |
           -------------------------------------------------

 * finished run on 2025/09/12 at 04:58:48.995
