   * xtb version 6.7.1 (edcfbbe) compiled by 'albert@albert-system' on 2024-07-22

   ID    Z sym.   atoms
    1    6 C      1-18, 20-41, 43-45
    2   16 S      19
    3    8 O      42
    4    1 H      46-77

          program call               : xtb data2507/toluene/DMBFTX/DMBFTX_toluene_S0_crest.xyz --gfn 2 --gbsa toluene --ohess vtight --parallel 40 --molden --ceasefiles --namespace data2507/toluene/DMBFTX/DMBFTX_toluene_S0_finalOpt
      * Solvation model:               GBSA
        Solvent                        toluene
        Solvent mass                       9.2140E+01 g/mol
          :  Hamiltonian                  GFN2-xTB          :
 * total energy  :  -115.8117813 Eh     change       -0.5797119E-08 Eh
 * total energy  :  -115.8118788 Eh     change       -0.9749919E-04 Eh
 * total energy  :  -115.8119087 Eh     change       -0.2982293E-04 Eh
 * total energy  :  -115.8119156 Eh     change       -0.6909951E-05 Eh
 * total energy  :  -115.8119217 Eh     change       -0.6108430E-05 Eh
 * total energy  :  -115.8119294 Eh     change       -0.7680960E-05 Eh
 * total energy  :  -115.8119374 Eh     change       -0.8048530E-05 Eh
 * total energy  :  -115.8119448 Eh     change       -0.7383581E-05 Eh
 * total energy  :  -115.8119523 Eh     change       -0.7479834E-05 Eh
 * total energy  :  -115.8119613 Eh     change       -0.8985074E-05 Eh
 * total energy  :  -115.8120819 Eh     change       -0.7556833E-06 Eh
 * total energy  :  -115.8120826 Eh     change       -0.6881020E-06 Eh
 * total energy  :  -115.8120832 Eh     change       -0.6777059E-06 Eh
 * total energy  :  -115.8120840 Eh     change       -0.7830158E-06 Eh
 * total energy  :  -115.8120850 Eh     change       -0.9932564E-06 Eh
 * total energy  :  -115.8120862 Eh     change       -0.1183303E-05 Eh
 * total energy  :  -115.8120875 Eh     change       -0.1304274E-05 Eh
 * total energy  :  -115.8120890 Eh     change       -0.1508843E-05 Eh
 * total energy  :  -115.8120890 Eh     change       -0.5641496E-08 Eh
   *** GEOMETRY OPTIMIZATION CONVERGED AFTER 68 ITERATIONS ***

 final structure:
================
77
 xtb: 6.7.1 (edcfbbe)
C           -4.56461472435739        0.49099196288225        1.75303459721931
C           -5.75242490726342        0.00991854204711        0.91159237038637
C           -5.89019012077903       -1.51367933599743        1.00724961058607
C           -7.02621196059809        0.68798361669063        1.36800337456020
C           -7.63926249672359        0.63562799871627        2.60213816322124
C           -8.81546996253055        1.34749702727453        2.79729623269923
C           -9.36800094192186        2.10060177421417        1.77227680711286
C           -8.75811414064578        2.15897919277418        0.52953005940093
C           -7.58458590072551        1.44889416564164        0.33303055309171
C           -6.73686878072550        1.31971304987854       -0.84161318015444
C           -6.87490318970732        1.87818486568489       -2.10111455633546
C           -5.91917244665961        1.58889663668931       -3.06076773917586
C           -4.85374711018415        0.75852887052854       -2.76052942195669
C           -4.70390550474093        0.19268783536695       -1.49291064566678
C           -3.53353523103309       -0.68566524622427       -1.26084621611822
C           -3.59762104012208       -2.04824288622864       -1.56906239981936
C           -2.49818323043316       -2.85532028425928       -1.38948704754848
C           -1.30062741970094       -2.32744722878585       -0.90264218614071
S            0.02044375185411       -3.45671976336388       -0.72098744286212
C            1.32357366510013       -2.47132694599276       -0.10100492115595
C            2.52550549279138       -3.13304065033629        0.15866388895020
C            3.61283409558464       -2.44519119045115        0.64539920459655
C            3.53142081427133       -1.06981155319619        0.88449060124690
C            4.68968050035340       -0.33446106872728        1.44356028238474
C            4.82856703070642       -0.28967722735185        2.83208212182480
C            5.88342369769665        0.37498127746448        3.43237810583503
C            6.83837157264809        1.01633545915349        2.66115834671508
C            6.71061379099381        0.97621761280018        1.28294145657505
C            5.64115764325324        0.30580937304927        0.66596474711196
C            5.74660499528701        0.41940885890879       -0.84298420991792
C            4.55530029795644        1.17388365778511       -1.44498730929282
C            5.90003477221947       -0.95137470368719       -1.51146452544394
C            7.01261930863106        1.23403120363025       -0.99912846667988
C            7.62635806967463        1.66466197865019       -2.15651158792101
C            8.78923638009089        2.41721623281431       -2.05851139201458
C            9.32816570063710        2.73357508208113       -0.82056089022654
C            8.71817236407017        2.30423690002604        0.34709876359152
C            7.55795766371121        1.55281147529031        0.25105508068922
C            2.33565329319917       -0.42572558900964        0.64207397879129
C            1.21314499583901       -1.09987327975468        0.14148859889189
C            0.00055960686275       -0.30054016716801       -0.08992488827324
O           -0.00364864271386        0.90796435531066        0.14079931593418
C           -1.20715845549472       -0.96675571150439       -0.60017557529327
C           -2.34230154374329       -0.16774440841384       -0.79585403901425
C           -5.65582353586434        0.47906143583420       -0.52765017842082
H           -4.44470774262389        1.56857984294984        1.65724632819156
H           -3.64543925887851        0.00841797526303        1.43109157096267
H           -4.73176347729857        0.25441461575823        2.80137147525902
H           -4.97525493326325       -1.99882570417201        0.67761593038889
H           -6.08651108817295       -1.80480127429992        2.03644813468513
H           -6.71591987052450       -1.85661376126113        0.38688193653426
H           -7.21895991651828        0.05323016287245        3.40945875569044
H           -9.30630874818587        1.31458946869439        3.75948914855964
H          -10.28376260955750        2.64760749274759        1.94581924546632
H           -9.19022626603972        2.74688758198577       -0.26686796918921
H           -7.70838918986801        2.52497369673452       -2.33034300618998
H           -6.00303901054162        2.01164798549484       -4.05150882785460
H           -4.11347834150960        0.53992093366425       -3.51732538193138
H           -4.51765462988848       -2.46465147619472       -1.95106256809496
H           -2.54398018335145       -3.90830945636057       -1.62366555601477
H            2.58511855522811       -4.19459094152860       -0.02877802783562
H            4.53654479663585       -2.96649157552468        0.84732218633179
H            4.08863566153756       -0.78632913405365        3.44394623020702
H            5.95894486178395        0.39128032960974        4.51003020730630
H            7.66348093238383        1.53597491116698        3.12466561509625
H            4.42349761340960        2.13272490803774       -0.94697234317889
H            3.64077045271818        0.59663731073606       -1.33647123170293
H            4.72700281584679        1.35574604181100       -2.50343408635389
H            6.10897263438804       -0.82591080175957       -2.57127506490648
H            6.72305292107909       -1.50144217234762       -1.05941332027388
H            4.98652417205405       -1.53031819656059       -1.40367715564112
H            7.21579588771979        1.42709235114789       -3.12740742380621
H            9.27962294344780        2.76167865660403       -2.95778302446651
H           10.23335304606832        3.32161482085938       -0.76727117497967
H            9.13957568622054        2.55248168758440        1.31010300491081
H            2.23035985724008        0.63254435125401        0.83519980223677
H           -2.24970821080675        0.88485534151219       -0.56828807908353

          :  Hamiltonian                  GFN2-xTB          :
         :: gradient norm              0.000063782742 Eh/a0 ::
         :: HOMO-LUMO gap              2.224516514730 eV    ::
         :: SCC energy              -117.882210228342 Eh    ::
         :: -> dispersion             -0.109497273394 Eh    ::
         :: -> Gsolv                  -0.049505781662 Eh    ::
         :: repulsion energy           2.070121209704 Eh    ::

    * Orbital Energies and Occupations

         #    Occupation            Energy/Eh            Energy/eV
      -------------------------------------------------------------
         1        2.0000           -0.7417514             -20.1841
       ...           ...                  ...                  ...
        96        2.0000           -0.4187507             -11.3948
        97        2.0000           -0.4146403             -11.2829
        98        2.0000           -0.4138719             -11.2620
        99        2.0000           -0.4113616             -11.1937
       100        2.0000           -0.4079177             -11.1000
       101        2.0000           -0.4018770             -10.9356
       102        2.0000           -0.4010830             -10.9140
       103        2.0000           -0.3971134             -10.8060
       104        2.0000           -0.3957259             -10.7682
       105        2.0000           -0.3933293             -10.7030
       106        2.0000           -0.3803616             -10.3502
       107        2.0000           -0.3788674             -10.3095
       108        2.0000           -0.3788217             -10.3083 (HOMO)
       109                         -0.2970722              -8.0837 (LUMO)
       110                         -0.2552540              -6.9458
       111                         -0.2507419              -6.8230
       112                         -0.2505732              -6.8184
       113                         -0.2429969              -6.6123
       114                         -0.2389380              -6.5018
       115                         -0.2243455              -6.1048
       116                         -0.2243203              -6.1041
       117                         -0.2188637              -5.9556
       118                         -0.2188576              -5.9554
       119                         -0.2105837              -5.7303
       ...                                ...                  ...
       217                          0.7284812              19.8230
      -------------------------------------------------------------
                  HL-Gap            0.0817495 Eh            2.2245 eV

     #   Z          covCN         q      C6AA      α(0)
     1   6 C        3.758    -0.096    22.390     6.746
     2   6 C        3.935     0.020    20.179     6.384
     3   6 C        3.758    -0.099    22.447     6.755
     4   6 C        3.055    -0.001    28.004     8.679
     5   6 C        2.915    -0.034    28.857     8.809
     6   6 C        2.922    -0.034    28.846     8.808
     7   6 C        2.921    -0.035    28.861     8.810
     8   6 C        2.914    -0.035    28.879     8.812
     9   6 C        3.034    -0.002    28.035     8.685
    10   6 C        3.038     0.000    27.991     8.678
    11   6 C        2.914    -0.037    28.925     8.819
    12   6 C        2.919    -0.034    28.835     8.806
    13   6 C        2.928    -0.038    28.935     8.821
    14   6 C        2.973     0.006    27.895     8.663
    15   6 C        2.973     0.018    27.596     8.617
    16   6 C        2.924    -0.023    28.583     8.767
    17   6 C        2.991    -0.038    28.941     8.825
    18   6 C        2.968     0.045    26.995     8.522
    19  16 S        2.159    -0.061   143.597    20.169
    20   6 C        2.967     0.045    26.995     8.522
    21   6 C        2.991    -0.038    28.941     8.825
    22   6 C        2.924    -0.023    28.582     8.767
    23   6 C        2.973     0.018    27.596     8.617
    24   6 C        2.973     0.006    27.895     8.663
    25   6 C        2.928    -0.038    28.935     8.822
    26   6 C        2.919    -0.034    28.835     8.806
    27   6 C        2.914    -0.037    28.924     8.819
    28   6 C        3.038     0.000    27.991     8.678
    29   6 C        3.047    -0.006    28.121     8.697
    30   6 C        3.935     0.020    20.180     6.384
    31   6 C        3.758    -0.096    22.389     6.746
    32   6 C        3.758    -0.099    22.447     6.755
    33   6 C        3.055    -0.001    28.004     8.679
    34   6 C        2.915    -0.034    28.857     8.809
    35   6 C        2.922    -0.034    28.846     8.808
    36   6 C        2.921    -0.035    28.860     8.810
    37   6 C        2.914    -0.035    28.879     8.812
    38   6 C        3.034    -0.002    28.035     8.685
    39   6 C        2.935    -0.023    28.569     8.766
    40   6 C        2.995    -0.027    28.656     8.781
    41   6 C        2.833     0.219    23.382     7.924
    42   8 O        0.858    -0.456    22.829     6.406
    43   6 C        2.995    -0.027    28.656     8.781
    44   6 C        2.935    -0.023    28.570     8.766
    45   6 C        3.047    -0.006    28.121     8.697
    46   1 H        0.925     0.033     2.540     2.492
    47   1 H        0.925     0.038     2.471     2.458
    48   1 H        0.925     0.043     2.408     2.427
    49   1 H        0.925     0.042     2.427     2.436
    50   1 H        0.925     0.044     2.393     2.419
    51   1 H        0.925     0.037     2.490     2.468
    52   1 H        0.926     0.030     2.589     2.516
    53   1 H        0.926     0.030     2.585     2.514
    54   1 H        0.926     0.029     2.594     2.519
    55   1 H        0.926     0.030     2.581     2.512
    56   1 H        0.926     0.033     2.542     2.493
    57   1 H        0.926     0.033     2.542     2.493
    58   1 H        0.926     0.029     2.597     2.520
    59   1 H        0.926     0.056     2.245     2.343
    60   1 H        0.926     0.057     2.238     2.339
    61   1 H        0.926     0.057     2.238     2.339
    62   1 H        0.926     0.056     2.244     2.343
    63   1 H        0.926     0.029     2.597     2.520
    64   1 H        0.926     0.033     2.542     2.493
    65   1 H        0.926     0.033     2.542     2.493
    66   1 H        0.925     0.033     2.541     2.493
    67   1 H        0.925     0.038     2.471     2.458
    68   1 H        0.925     0.043     2.408     2.427
    69   1 H        0.925     0.044     2.393     2.419
    70   1 H        0.925     0.037     2.490     2.468
    71   1 H        0.925     0.042     2.428     2.436
    72   1 H        0.926     0.030     2.589     2.516
    73   1 H        0.926     0.030     2.585     2.514
    74   1 H        0.926     0.029     2.594     2.519
    75   1 H        0.926     0.030     2.581     2.512
    76   1 H        0.926     0.057     2.240     2.340
    77   1 H        0.926     0.057     2.239     2.340

molecular dipole:
                 x           y           z       tot (Debye)
 q only:        0.006      -1.691      -0.319
   full:        0.003      -1.490      -0.279       3.854

 projected vibrational frequencies (cm⁻¹)
eigval :       -0.00    -0.00    -0.00    -0.00     0.00     0.00
eigval :       -2.40     8.48    16.67    22.88    25.49    28.16
eigval :       41.97    53.79    73.45    85.18    94.11   102.63
eigval :      103.69   108.49   122.97   142.05   150.39   156.86
eigval :      165.97   167.45   187.58   196.29   216.54   219.48
eigval :      229.81   233.74   234.83   238.14   244.06   262.66
eigval :      264.11   278.42   305.90   308.51   313.73   313.90
eigval :      319.85   333.75   341.64   351.96   361.84   366.44
eigval :      372.62   416.47   420.40   428.67   429.37   436.46
eigval :      444.22   467.37   483.21   509.68   512.99   519.77
eigval :      520.81   532.28   546.54   547.46   550.03   561.23
eigval :      564.53   572.88   579.43   592.35   597.75   606.34
eigval :      611.77   632.77   642.56   668.93   670.26   677.56
eigval :      707.99   710.93   715.39   722.58   723.82   725.20
eigval :      734.58   742.91   766.30   775.04   776.78   799.62
eigval :      802.06   803.69   807.36   825.54   831.72   837.30
eigval :      875.72   877.58   885.12   886.72   890.53   902.42
eigval :      904.78   907.79   910.23   921.23   921.81   925.09
eigval :      925.21   925.98   928.45   951.29   956.98   958.62
eigval :      966.56   967.20  1013.49  1014.67  1016.52  1026.13
eigval :     1044.40  1069.86  1071.17  1074.46  1077.35  1079.70
eigval :     1100.88  1101.16  1123.49  1123.81  1144.00  1145.61
eigval :     1151.33  1155.13  1156.79  1157.92  1171.53  1171.88
eigval :     1172.34  1180.83  1180.97  1193.77  1196.58  1219.84
eigval :     1222.71  1225.41  1232.22  1233.32  1255.42  1255.50
eigval :     1267.04  1267.49  1273.74  1273.96  1292.77  1293.58
eigval :     1326.96  1327.10  1340.12  1340.74  1361.42  1361.82
eigval :     1375.84  1380.80  1392.89  1393.46  1401.19  1401.20
eigval :     1412.94  1412.99  1430.80  1434.38  1446.76  1449.81
eigval :     1463.98  1464.10  1484.15  1484.64  1484.94  1485.41
eigval :     1489.27  1489.77  1495.56  1496.10  1502.38  1502.74
eigval :     1533.64  1547.42  1578.05  1579.37  1587.26  1587.57
eigval :     1588.15  1589.16  1598.95  1599.02  1604.81  1605.07
eigval :     1609.09  3024.97  3025.03  3028.34  3028.95  3031.93
eigval :     3031.98  3034.75  3035.25  3042.15  3042.54  3045.02
eigval :     3046.25  3065.99  3066.07  3067.54  3068.42  3069.74
eigval :     3069.90  3076.25  3076.29  3077.76  3077.80  3085.41
eigval :     3085.46  3085.65  3085.94  3086.69  3087.12  3088.72
eigval :     3088.84  3097.32  3097.43

   temp. (K)  partition function   enthalpy   heat capacity  entropy
                                   cal/mol     cal/K/mol   cal/K/mol   J/K/mol
 298.15  VIB  0.362E+18            22103.703    139.730    137.521
         ROT  0.888E+08              888.752      2.981     39.352
         INT  0.322E+26            22992.455    142.711    176.873
         TR   0.141E+29             1481.254      4.968     45.022
         TOT                       24473.7093   147.6793   221.8953   928.4100

       T/K    H(0)-H(T)+PV         H(T)/Eh          T*S/Eh         G(T)/Eh
   ------------------------------------------------------------------------
    298.15    0.390013E-01    0.640445E+00    0.105430E+00    0.535015E+00
   ------------------------------------------------------------------------

         :::::::::::::::::::::::::::::::::::::::::::::::::::::
         ::                  THERMODYNAMIC                  ::
         :::::::::::::::::::::::::::::::::::::::::::::::::::::
         :: total free energy        -115.277073848836 Eh   ::
         ::.................................................::
         :: total energy             -115.812089015973 Eh   ::
         :: zero point energy           0.601443452620 Eh   ::
         :: G(RRHO) w/o ZPVE           -0.066428285483 Eh   ::
         :: G(RRHO) contrib.            0.535015167137 Eh   ::
         :::::::::::::::::::::::::::::::::::::::::::::::::::::

           -------------------------------------------------
          | TOTAL ENERGY             -115.812089015973 Eh   |
          | TOTAL ENTHALPY           -115.171644225045 Eh   |
          | TOTAL FREE ENERGY        -115.277073848836 Eh   |
          | GRADIENT NORM               0.000063721962 Eh/α |
          | HOMO-LUMO GAP               2.224516335581 eV   |
           -------------------------------------------------

 * finished run on 2025/09/12 at 04:58:42.614
