   * xtb version 6.7.1 (edcfbbe) compiled by 'albert@albert-system' on 2024-07-22

   ID    Z sym.   atoms
    1    6 C      1-18, 20-41, 43-45
    2   16 S      19
    3    8 O      42
    4    1 H      46-77

          program call               : xtb data2507/toluene/DMBFTX/DMBFTX.xyz --gfn 2 --gbsa toluene --ohess vtight --parallel 40 --molden --ceasefiles --namespace data2507/toluene/DMBFTX/DMBFTX_toluene_S0_preOpt
      * Solvation model:               GBSA
        Solvent                        toluene
        Solvent mass                       9.2140E+01 g/mol
          :  Hamiltonian                  GFN2-xTB          :
 * total energy  :  -115.7997939 Eh     change       -0.1051362E-08 Eh
 * total energy  :  -115.8089454 Eh     change       -0.9151454E-02 Eh
 * total energy  :  -115.8111665 Eh     change       -0.2221174E-02 Eh
 * total energy  :  -115.8116778 Eh     change       -0.5112703E-03 Eh
 * total energy  :  -115.8118943 Eh     change       -0.2164847E-03 Eh
 * total energy  :  -115.8119402 Eh     change       -0.4587230E-04 Eh
 * total energy  :  -115.8119706 Eh     change       -0.3047568E-04 Eh
 * total energy  :  -115.8119833 Eh     change       -0.1268856E-04 Eh
 * total energy  :  -115.8120045 Eh     change       -0.2114284E-04 Eh
 * total energy  :  -115.8120106 Eh     change       -0.6092814E-05 Eh
 * total energy  :  -115.8120660 Eh     change       -0.2870471E-05 Eh
 * total energy  :  -115.8120685 Eh     change       -0.2560950E-05 Eh
 * total energy  :  -115.8120713 Eh     change       -0.2783103E-05 Eh
 * total energy  :  -115.8120737 Eh     change       -0.2388349E-05 Eh
 * total energy  :  -115.8120753 Eh     change       -0.1565128E-05 Eh
 * total energy  :  -115.8120764 Eh     change       -0.1156550E-05 Eh
 * total energy  :  -115.8120771 Eh     change       -0.6683007E-06 Eh
 * total energy  :  -115.8120775 Eh     change       -0.4057307E-06 Eh
 * total energy  :  -115.8120776 Eh     change       -0.4551276E-07 Eh
   *** GEOMETRY OPTIMIZATION CONVERGED AFTER 43 ITERATIONS ***

 final structure:
================
77
 xtb: 6.7.1 (edcfbbe)
C           -4.64458651079796        1.43355556673108       -0.77212805481556
C           -5.78793728195423        0.69507874713079       -0.06567999482097
C           -5.87635234314493        1.13160001777121        1.40061565229544
C           -7.09660042550191        0.95480624142390       -0.78039748283052
C           -7.75538156126421        2.15119781116719       -0.97100626900993
C           -8.95722073610585        2.15144303475459       -1.66669425610458
C           -9.48945528842993        0.97187998975514       -2.16518241544531
C           -8.83359496243579       -0.23427952333680       -1.97863732174435
C           -7.63512482362332       -0.23649352810662       -1.28318423108638
C           -6.74275538171117       -1.32945503845588       -0.93073891949611
C           -6.84982915196193       -2.68385914270669       -1.19827347685314
C           -5.85553957109698       -3.52945162330944       -0.73518131083199
C           -4.78514117741999       -3.02560986083076       -0.01727331352791
C           -4.66823819682284       -1.66183283923320        0.25838383641322
C           -3.50381202191998       -1.21145834035763        1.05613476627745
C           -3.56787005710865       -1.21827444735440        2.45347119411705
C           -2.48110644272611       -0.83257895010218        3.20269100619303
C           -1.29609056194014       -0.43265151959109        2.58162138288582
S            0.00679544724480        0.03888264869171        3.64581631114607
C            1.29577553700360        0.47617191433567        2.55058361776465
C            2.47956017025630        0.92151843823756        3.14239533504763
C            3.55471172121759        1.28811975641915        2.36704985071908
C            3.48020321329906        1.21391676529252        0.97241136567786
C            4.62622393286385        1.64772020749828        0.13970405179637
C            4.68996104583712        2.99096575793639       -0.23575442655694
C            5.73388257333406        3.47894698598165       -1.00179849875215
C            6.75365949576204        2.63783418375419       -1.41493512914003
C            6.69973009460939        1.30383392634404       -1.04762460381126
C            5.64050390884232        0.79967658403627       -0.27458692082451
C            5.82596492971488       -0.68559729881454       -0.02908279505597
C            4.69905578162635       -1.50811961632051       -0.66552690454357
C            5.94842142791044       -1.01649500537548        1.46221614975550
C            7.13380875455809       -0.95101741896568       -0.74300270190433
C            7.83010895802795       -2.13554788917053       -0.86003799576164
C            9.02364857246833       -2.14442859155072       -1.56974371013808
C            9.51003754308250       -0.98538320327785       -2.15551656926519
C            8.81555128904262        0.20846601993018       -2.04442318035295
C            7.62550268190085        0.21947788974478       -1.33472400292284
C            2.30258707840642        0.78725654040691        0.39411264740512
C            1.19149645755285        0.40533022772526        1.15923217823214
C           -0.00485069508730       -0.03921451851053        0.42809919945825
O           -0.00543633137068       -0.07943833012712       -0.80164050872751
C           -1.20146216278568       -0.43179615300888        1.18781708382428
C           -2.32395328314981       -0.83343616186633        0.44957968932742
C           -5.65585650576909       -0.80926294699848       -0.20823909057830
H           -4.55861759734712        1.09896130536770       -1.80435891714323
H           -3.69993678087115        1.24992008589994       -0.26675796534282
H           -4.83650294462999        2.50412301302856       -0.77134164783338
H           -4.93288775171511        0.95031843521401        1.90858716756153
H           -6.10279261640800        2.19367683246926        1.45819389307872
H           -6.66447937872539        0.58147490878190        1.91091241500076
H           -7.35155902653558        3.07756438559626       -0.58839715476573
H           -9.48416064419721        3.08210723536224       -1.82160110245005
H          -10.42548807526493        0.99487025814745       -2.70489382748965
H           -9.24980522617544       -1.15171150814446       -2.36813582448434
H           -7.68931944220241       -3.07212119132485       -1.75521408213569
H           -5.91352370118256       -4.59027977375021       -0.93167436765026
H           -4.01699023642365       -3.69572217271914        0.34241491378587
H           -4.47932972133349       -1.52877996141006        2.94192707214440
H           -2.52740910164599       -0.83298449296487        4.28130130203883
H            2.53366670799216        0.97421145791364        4.21939180086967
H            4.46382125812474        1.63752421434025        2.83301227504102
H            3.90025711827564        3.65672061333154        0.08305526384775
H            5.75087088244222        4.52385464095289       -1.27600499512944
H            7.57210389825082        3.01419925512604       -2.01010050897939
H            4.59638396290354       -1.25661967818626       -1.71954779619521
H            3.75313088208597       -1.31187930038002       -0.16720560155874
H            4.92122593188864       -2.56963729681546       -0.58395734471821
H            6.22127863814066       -2.06159439014884        1.58844750252149
H            6.71753965851941       -0.40004312181260        1.92340920349183
H            5.00328786767829       -0.84150433546885        1.96913258482279
H            7.46148303263824       -3.04607378614489       -0.40989844023676
H            9.57987170005243       -3.06578388019266       -1.66740946234618
H           10.44069714164550       -1.01464671881560       -2.70419224244370
H            9.19624154209805        1.10985498916631       -2.50176985735606
H            2.20236201994952        0.73646820593874       -0.68098424576555
H           -2.23041813846613       -0.83846853605694       -0.62726024359760

          :  Hamiltonian                  GFN2-xTB          :
         :: gradient norm              0.000123722480 Eh/a0 ::
         :: HOMO-LUMO gap              2.225231787759 eV    ::
         :: SCC energy              -117.882184204626 Eh    ::
         :: -> dispersion             -0.109492731070 Eh    ::
         :: -> Gsolv                  -0.049525297573 Eh    ::
         :: repulsion energy           2.070106645911 Eh    ::

    * Orbital Energies and Occupations

         #    Occupation            Energy/Eh            Energy/eV
      -------------------------------------------------------------
         1        2.0000           -0.7418227             -20.1860
       ...           ...                  ...                  ...
        96        2.0000           -0.4187457             -11.3947
        97        2.0000           -0.4146570             -11.2834
        98        2.0000           -0.4138958             -11.2627
        99        2.0000           -0.4113575             -11.1936
       100        2.0000           -0.4079127             -11.0999
       101        2.0000           -0.4018987             -10.9362
       102        2.0000           -0.4011130             -10.9148
       103        2.0000           -0.3971164             -10.8061
       104        2.0000           -0.3957407             -10.7687
       105        2.0000           -0.3933481             -10.7035
       106        2.0000           -0.3803967             -10.3511
       107        2.0000           -0.3788785             -10.3098
       108        2.0000           -0.3788396             -10.3088 (HOMO)
       109                         -0.2970638              -8.0835 (LUMO)
       110                         -0.2552909              -6.9468
       111                         -0.2507531              -6.8233
       112                         -0.2505716              -6.8184
       113                         -0.2429916              -6.6121
       114                         -0.2389396              -6.5019
       115                         -0.2243729              -6.1055
       116                         -0.2243028              -6.1036
       117                         -0.2188880              -5.9562
       118                         -0.2188740              -5.9559
       119                         -0.2106366              -5.7317
       ...                                ...                  ...
       217                          0.7284604              19.8224
      -------------------------------------------------------------
                  HL-Gap            0.0817758 Eh            2.2252 eV

     #   Z          covCN         q      C6AA      α(0)
     1   6 C        3.758    -0.096    22.388     6.746
     2   6 C        3.935     0.020    20.180     6.384
     3   6 C        3.758    -0.099    22.449     6.755
     4   6 C        3.055    -0.001    28.004     8.679
     5   6 C        2.915    -0.034    28.857     8.809
     6   6 C        2.922    -0.034    28.846     8.808
     7   6 C        2.921    -0.035    28.860     8.810
     8   6 C        2.914    -0.035    28.879     8.812
     9   6 C        3.034    -0.002    28.035     8.685
    10   6 C        3.038     0.000    27.991     8.678
    11   6 C        2.914    -0.037    28.925     8.819
    12   6 C        2.919    -0.034    28.835     8.806
    13   6 C        2.928    -0.038    28.935     8.821
    14   6 C        2.973     0.006    27.895     8.663
    15   6 C        2.973     0.018    27.596     8.617
    16   6 C        2.925    -0.023    28.578     8.767
    17   6 C        2.992    -0.038    28.941     8.825
    18   6 C        2.968     0.045    26.996     8.523
    19  16 S        2.161    -0.061   143.583    20.168
    20   6 C        2.968     0.045    26.996     8.522
    21   6 C        2.992    -0.038    28.941     8.825
    22   6 C        2.924    -0.023    28.579     8.767
    23   6 C        2.973     0.018    27.596     8.617
    24   6 C        2.973     0.006    27.895     8.663
    25   6 C        2.928    -0.038    28.934     8.821
    26   6 C        2.919    -0.033    28.834     8.806
    27   6 C        2.914    -0.037    28.924     8.819
    28   6 C        3.038     0.000    27.991     8.678
    29   6 C        3.047    -0.006    28.121     8.697
    30   6 C        3.935     0.020    20.180     6.384
    31   6 C        3.758    -0.096    22.387     6.746
    32   6 C        3.758    -0.100    22.453     6.756
    33   6 C        3.055    -0.001    28.004     8.679
    34   6 C        2.915    -0.034    28.857     8.809
    35   6 C        2.922    -0.034    28.846     8.808
    36   6 C        2.921    -0.035    28.860     8.810
    37   6 C        2.914    -0.035    28.879     8.812
    38   6 C        3.034    -0.002    28.035     8.685
    39   6 C        2.934    -0.023    28.573     8.766
    40   6 C        2.995    -0.027    28.655     8.781
    41   6 C        2.833     0.219    23.383     7.924
    42   8 O        0.858    -0.456    22.834     6.407
    43   6 C        2.995    -0.027    28.656     8.781
    44   6 C        2.934    -0.023    28.573     8.766
    45   6 C        3.047    -0.006    28.121     8.697
    46   1 H        0.925     0.033     2.538     2.491
    47   1 H        0.925     0.039     2.469     2.457
    48   1 H        0.925     0.043     2.408     2.427
    49   1 H        0.925     0.041     2.431     2.438
    50   1 H        0.925     0.044     2.393     2.419
    51   1 H        0.925     0.037     2.491     2.468
    52   1 H        0.926     0.030     2.589     2.516
    53   1 H        0.926     0.030     2.584     2.514
    54   1 H        0.926     0.029     2.594     2.518
    55   1 H        0.926     0.030     2.581     2.512
    56   1 H        0.926     0.033     2.541     2.493
    57   1 H        0.926     0.033     2.542     2.493
    58   1 H        0.926     0.029     2.597     2.520
    59   1 H        0.926     0.056     2.245     2.343
    60   1 H        0.926     0.057     2.237     2.339
    61   1 H        0.926     0.057     2.237     2.339
    62   1 H        0.926     0.056     2.242     2.341
    63   1 H        0.926     0.029     2.599     2.521
    64   1 H        0.926     0.033     2.543     2.494
    65   1 H        0.926     0.033     2.542     2.493
    66   1 H        0.925     0.033     2.538     2.492
    67   1 H        0.925     0.038     2.472     2.459
    68   1 H        0.925     0.043     2.406     2.426
    69   1 H        0.925     0.044     2.393     2.419
    70   1 H        0.925     0.037     2.491     2.468
    71   1 H        0.925     0.042     2.425     2.435
    72   1 H        0.926     0.030     2.588     2.516
    73   1 H        0.926     0.030     2.584     2.514
    74   1 H        0.926     0.029     2.594     2.519
    75   1 H        0.926     0.030     2.581     2.512
    76   1 H        0.926     0.056     2.244     2.342
    77   1 H        0.926     0.056     2.241     2.341

molecular dipole:
                 x           y           z       tot (Debye)
 q only:        0.008       0.064       1.721
   full:        0.004       0.059       1.518       3.862

 projected vibrational frequencies (cm⁻¹)
eigval :       -0.00    -0.00     0.00     0.00     0.00     0.00
eigval :        6.48     9.82    20.55    22.82    24.12    32.39
eigval :       43.17    53.53    72.57    87.24    99.16   103.99
eigval :      109.15   112.48   123.37   141.33   149.09   156.17
eigval :      163.74   167.25   186.08   196.45   217.36   221.47
eigval :      226.03   230.39   233.62   238.11   242.01   264.24
eigval :      265.39   279.34   307.64   309.11   313.87   314.49
eigval :      319.90   334.51   342.45   352.25   363.35   367.16
eigval :      371.75   416.10   421.35   429.31   429.57   440.14
eigval :      446.60   467.71   483.50   509.70   512.75   519.82
eigval :      520.69   532.32   547.60   547.99   550.16   560.51
eigval :      564.38   573.46   579.49   592.42   597.79   606.51
eigval :      611.70   632.82   642.26   668.76   670.37   677.20
eigval :      709.39   711.86   715.40   723.01   723.96   726.46
eigval :      733.87   743.01   766.13   776.03   779.43   801.10
eigval :      802.79   803.30   806.90   825.59   832.15   838.66
eigval :      877.41   881.96   885.41   889.81   890.94   900.45
eigval :      902.34   909.56   912.15   919.59   922.03   923.70
eigval :      925.85   927.33   929.95   951.16   957.19   958.73
eigval :      965.98   967.22  1011.91  1012.26  1015.88  1025.60
eigval :     1044.66  1069.90  1071.20  1074.48  1077.97  1079.92
eigval :     1100.59  1100.83  1124.06  1124.99  1144.10  1145.85
eigval :     1150.86  1155.39  1157.09  1157.50  1170.60  1171.87
eigval :     1172.04  1180.21  1181.16  1194.91  1198.10  1220.08
eigval :     1223.33  1224.38  1231.97  1232.36  1255.01  1256.36
eigval :     1267.38  1267.76  1273.76  1273.89  1292.85  1293.62
eigval :     1327.00  1327.14  1340.89  1341.37  1361.73  1362.15
eigval :     1375.84  1380.69  1391.95  1392.50  1400.95  1401.09
eigval :     1412.11  1412.61  1430.88  1434.52  1446.88  1449.81
eigval :     1463.85  1464.11  1483.93  1484.41  1485.01  1485.35
eigval :     1488.06  1488.62  1495.39  1496.36  1501.17  1501.24
eigval :     1533.48  1547.35  1578.37  1579.76  1587.32  1587.60
eigval :     1588.18  1589.41  1598.99  1599.06  1604.96  1605.10
eigval :     1608.78  3025.15  3025.19  3028.89  3029.07  3031.87
eigval :     3031.94  3034.80  3035.61  3042.74  3043.22  3046.66
eigval :     3047.02  3065.08  3065.16  3068.37  3068.81  3069.61
eigval :     3069.76  3076.42  3076.67  3077.80  3078.05  3084.98
eigval :     3085.25  3085.40  3085.53  3085.85  3086.33  3089.11
eigval :     3089.15  3097.15  3097.58

   temp. (K)  partition function   enthalpy   heat capacity  entropy
                                   cal/mol     cal/K/mol   cal/K/mol   J/K/mol
 298.15  VIB  0.782E+17            22062.935    139.783    135.933
         ROT  0.885E+08              888.752      2.981     39.345
         INT  0.692E+25            22951.688    142.764    175.277
         TR   0.141E+29             1481.254      4.968     45.022
         TOT                       24432.9416   147.7324   220.2998   921.7343

       T/K    H(0)-H(T)+PV         H(T)/Eh          T*S/Eh         G(T)/Eh
   ------------------------------------------------------------------------
    298.15    0.389364E-01    0.640493E+00    0.104672E+00    0.535822E+00
   ------------------------------------------------------------------------

         :::::::::::::::::::::::::::::::::::::::::::::::::::::
         ::                  THERMODYNAMIC                  ::
         :::::::::::::::::::::::::::::::::::::::::::::::::::::
         :: total free energy        -115.276255697874 Eh   ::
         ::.................................................::
         :: total energy             -115.812077568335 Eh   ::
         :: zero point energy           0.601557033929 Eh   ::
         :: G(RRHO) w/o ZPVE           -0.065735163468 Eh   ::
         :: G(RRHO) contrib.            0.535821870462 Eh   ::
         :::::::::::::::::::::::::::::::::::::::::::::::::::::

           -------------------------------------------------
          | TOTAL ENERGY             -115.812077568335 Eh   |
          | TOTAL ENTHALPY           -115.171584163576 Eh   |
          | TOTAL FREE ENERGY        -115.276255697874 Eh   |
          | GRADIENT NORM               0.000123725982 Eh/α |
          | HOMO-LUMO GAP               2.225232160380 eV   |
           -------------------------------------------------

 * finished run on 2025/09/12 at 04:54:28.946
