   * xtb version 6.7.1 (edcfbbe) compiled by 'albert@albert-system' on 2024-07-22

   ID    Z sym.   atoms
    1    6 C      1-4, 6-9, 11-25, 27-30, 32
    2    7 N      5, 10, 26, 31
    3    1 H      33-50

          program call               : xtb data2507/gas/CzCbPy/CzCbPy_gas_S0_crest.xyz --gfn 2 --ohess vtight --parallel 40 --molden --ceasefiles --namespace data2507/gas/CzCbPy/CzCbPy_gas_S0_finalOpt
          :  Hamiltonian                  GFN2-xTB          :
 * total energy  :   -80.8949306 Eh     change       -0.2544908E-08 Eh
   *** GEOMETRY OPTIMIZATION CONVERGED AFTER 1 ITERATIONS ***

 final structure:
================
50
 xtb: 6.7.1 (edcfbbe)
C            6.08293390840000        2.64940001010000       -0.98615592850000
C            4.93512360170000        3.18093634240000       -0.41362229060000
C            3.89282287970000        2.33777814740000       -0.08093865830000
C            4.03474984190000        0.97364757780000       -0.35293862190000
N            3.02428437060000        0.06736761220000       -0.05047134610000
C            1.65514250170000        0.28214896160000       -0.12313585700000
C            0.94235597440000        1.35243342310000       -0.64701641430000
C           -0.43658748120000        1.29198676090000       -0.62791590360000
C           -1.11766532500000        0.18986324970000       -0.09614605680000
N           -2.52006796260000        0.18781269770000       -0.08841785640000
C           -3.33048263660000       -0.81727446790000       -0.57793070530000
C           -2.98440157160000       -2.00465759280000       -1.20686091960000
C           -4.00727417010000       -2.83162661220000       -1.62934134150000
C           -5.34499170350000       -2.49013852370000       -1.44134485480000
C           -5.69538496880000       -1.30074704200000       -0.83495804980000
C           -4.68499486530000       -0.45200945360000       -0.40187062250000
C           -4.68155181720000        0.83594757770000        0.23294555500000
C           -5.68597917220000        1.68960450850000        0.66957409400000
C           -5.32836227670000        2.87701409660000        1.27607513470000
C           -3.98869244510000        3.21134066290000        1.46185807340000
C           -2.97166874740000        2.37893695340000        1.03585644220000
C           -3.32454885750000        1.19419364160000        0.40546267990000
C           -0.41341735960000       -0.89954497190000        0.39497296190000
C            0.97164611950000       -0.85578142660000        0.36334983430000
C            1.98033457700000       -1.81061883840000        0.72937673700000
N            1.84618387920000       -3.02656859700000        1.23719189790000
C            2.96255749750000       -3.68872365410000        1.47298631760000
C            4.23961969960000       -3.18489572200000        1.22702844890000
C            4.39553758210000       -1.91488221400000        0.69672706140000
C            3.23077335260000       -1.21125964730000        0.43684432780000
N            5.14493148240000        0.46240041330000       -0.87197059500000
C            6.13706675170000        1.27887089440000       -1.17525714420000
H            6.91385944770000        3.27884830760000       -1.26058379130000
H            4.85958675210000        4.24041361790000       -0.21625678840000
H            3.00803716290000        2.71140277430000        0.40812429320000
H            1.43754620410000        2.20009435530000       -1.09399758050000
H           -1.01141868930000        2.10300827220000       -1.04913944430000
H           -1.95135122040000       -2.27167612480000       -1.37024952010000
H           -3.76400393520000       -3.76294852280000       -2.11925063920000
H           -6.11505143510000       -3.16564374010000       -1.78334503000000
H           -6.73169893380000       -1.02912035870000       -0.70153325460000
H           -6.72419671920000        1.42333846450000        0.53955934620000
H           -6.09406473480000        3.55581450470000        1.62126916940000
H           -3.73979636710000        4.14049401900000        1.95341928100000
H           -1.93628682060000        2.63816110230000        1.19972535160000
H           -0.91966029340000       -1.76305535380000        0.79491991680000
H            2.83352325190000       -4.68124222320000        1.88331011570000
H            5.10486005220000       -3.78985889890000        1.44937112330000
H            5.36668286140000       -1.49653570190000        0.48479636540000
H            7.01370242810000        0.80145818880000       -1.59295970230000

          :  Hamiltonian                  GFN2-xTB          :
         :: gradient norm              0.000187983547 Eh/a0 ::
         :: HOMO-LUMO gap              2.416923964396 eV    ::
         :: SCC energy               -82.362879740922 Eh    ::
         :: -> dispersion             -0.067665002558 Eh    ::
         :: repulsion energy           1.467949132397 Eh    ::

    * Orbital Energies and Occupations

         #    Occupation            Energy/Eh            Energy/eV
      -------------------------------------------------------------
         1        2.0000           -0.6901974             -18.7812
       ...           ...                  ...                  ...
        63        2.0000           -0.4302544             -11.7078
        64        2.0000           -0.4284911             -11.6598
        65        2.0000           -0.4225204             -11.4974
        66        2.0000           -0.4169938             -11.3470
        67        2.0000           -0.4138207             -11.2606
        68        2.0000           -0.4123625             -11.2210
        69        2.0000           -0.3999832             -10.8841
        70        2.0000           -0.3951510             -10.7526
        71        2.0000           -0.3887576             -10.5786
        72        2.0000           -0.3801829             -10.3453
        73        2.0000           -0.3732403             -10.1564
        74        2.0000           -0.3663373              -9.9685
        75        2.0000           -0.3560892              -9.6897 (HOMO)
        76                         -0.2672689              -7.2728 (LUMO)
        77                         -0.2605801              -7.0907
        78                         -0.2521929              -6.8625
        79                         -0.2420715              -6.5871
        80                         -0.2370193              -6.4496
        81                         -0.2165098              -5.8915
        82                         -0.2097654              -5.7080
        83                         -0.2007503              -5.4627
        84                         -0.1826367              -4.9698
        85                         -0.1805421              -4.9128
        86                         -0.1264518              -3.4409
       ...                                ...                  ...
       146                          0.7515328              20.4502
      -------------------------------------------------------------
                  HL-Gap            0.0888204 Eh            2.4169 eV

     #   Z          covCN         q      C6AA      α(0)
     1   6 C        2.913    -0.046    29.136     8.851
     2   6 C        2.929    -0.011    28.285     8.722
     3   6 C        2.916    -0.056    29.401     8.892
     4   6 C        2.901     0.150    24.740     8.156
     5   7 N        2.802    -0.040    22.006     6.967
     6   6 C        3.070     0.043    26.957     8.513
     7   6 C        2.910    -0.049    29.216     8.863
     8   6 C        2.926    -0.044    29.100     8.847
     9   6 C        2.913     0.058    26.705     8.474
    10   7 N        2.803    -0.043    22.061     6.976
    11   6 C        3.076     0.046    26.879     8.500
    12   6 C        2.910    -0.051    29.256     8.869
    13   6 C        2.924    -0.033    28.819     8.804
    14   6 C        2.920    -0.041    29.020     8.834
    15   6 C        2.912    -0.033    28.824     8.804
    16   6 C        3.069    -0.017    28.368     8.733
    17   6 C        3.068    -0.017    28.364     8.733
    18   6 C        2.913    -0.033    28.821     8.803
    19   6 C        2.920    -0.042    29.033     8.836
    20   6 C        2.924    -0.034    28.849     8.808
    21   6 C        2.910    -0.051    29.278     8.872
    22   6 C        3.077     0.046    26.888     8.501
    23   6 C        2.915    -0.041    29.008     8.832
    24   6 C        3.064    -0.017    28.359     8.732
    25   6 C        3.073     0.072    26.324     8.412
    26   7 N        1.832    -0.227    26.803     7.672
    27   6 C        2.925     0.052    26.842     8.496
    28   6 C        2.923    -0.043    29.065     8.841
    29   6 C        2.915    -0.029    28.723     8.788
    30   6 C        3.072     0.044    26.949     8.512
    31   7 N        1.845    -0.241    27.156     7.723
    32   6 C        2.908     0.062    26.607     8.458
    33   1 H        0.926     0.040     2.448     2.447
    34   1 H        0.926     0.040     2.445     2.445
    35   1 H        0.926     0.044     2.391     2.418
    36   1 H        0.926     0.037     2.484     2.465
    37   1 H        0.926     0.046     2.374     2.409
    38   1 H        0.926     0.030     2.590     2.517
    39   1 H        0.926     0.029     2.594     2.519
    40   1 H        0.926     0.027     2.625     2.534
    41   1 H        0.926     0.030     2.586     2.515
    42   1 H        0.926     0.030     2.582     2.513
    43   1 H        0.926     0.027     2.633     2.538
    44   1 H        0.926     0.027     2.629     2.536
    45   1 H        0.926     0.024     2.669     2.555
    46   1 H        0.926     0.061     2.188     2.313
    47   1 H        0.925     0.039     2.464     2.455
    48   1 H        0.926     0.038     2.482     2.464
    49   1 H        0.926     0.052     2.300     2.371
    50   1 H        0.925     0.043     2.405     2.425

molecular dipole:
                 x           y           z       tot (Debye)
 q only:        0.945       0.682      -0.088
   full:        1.472       1.293      -0.142       4.992

 projected vibrational frequencies (cm⁻¹)
eigval :       -0.00    -0.00    -0.00     0.00     0.00     0.00
eigval :       20.05    27.47    34.05    58.95    63.33    73.25
eigval :       99.48   102.30   136.46   145.32   149.48   165.91
eigval :      195.39   231.50   244.85   267.53   272.75   288.65
eigval :      333.51   345.84   373.04   380.94   393.20   400.06
eigval :      410.95   422.69   427.56   437.42   471.06   478.95
eigval :      518.04   529.02   541.05   542.44   547.71   561.95
eigval :      588.46   591.13   607.52   621.47   626.13   631.57
eigval :      673.64   686.42   688.06   707.97   709.78   728.55
eigval :      732.32   755.75   769.31   772.14   780.57   798.08
eigval :      803.55   828.22   868.03   871.86   885.37   894.46
eigval :      898.50   901.45   902.02   904.01   905.75   914.75
eigval :      915.35   917.73   923.21   924.41   938.45   941.18
eigval :      977.28  1010.20  1012.53  1032.25  1070.09  1073.62
eigval :     1085.28  1092.55  1109.37  1122.85  1133.51  1150.06
eigval :     1152.94  1162.47  1169.89  1181.23  1182.23  1186.20
eigval :     1215.99  1231.00  1237.33  1242.42  1247.14  1273.87
eigval :     1290.25  1292.63  1302.40  1306.19  1327.14  1339.98
eigval :     1342.75  1357.85  1363.93  1375.25  1387.47  1413.01
eigval :     1426.81  1428.25  1437.40  1446.20  1473.67  1476.80
eigval :     1488.78  1488.87  1555.46  1561.28  1567.57  1575.15
eigval :     1582.27  1585.72  1589.44  1599.41  1607.04  1615.53
eigval :     3059.71  3063.54  3074.10  3076.29  3077.63  3079.72
eigval :     3082.31  3086.62  3090.20  3090.61  3092.04  3094.36
eigval :     3096.51  3101.61  3103.97  3106.39  3109.07  3115.82

   temp. (K)  partition function   enthalpy   heat capacity  entropy
                                   cal/mol     cal/K/mol   cal/K/mol   J/K/mol
 298.15  VIB  0.763E+09            13015.477     88.046     78.199
         ROT  0.244E+08              888.752      2.981     36.784
         INT  0.186E+17            13904.229     91.027    114.984
         TR   0.805E+28             1481.254      4.968     43.907
         TOT                       15385.4832    95.9949   158.8909   664.7993

       T/K    H(0)-H(T)+PV         H(T)/Eh          T*S/Eh         G(T)/Eh
   ------------------------------------------------------------------------
    298.15    0.245183E-01    0.402367E+00    0.754942E-01    0.326873E+00
   ------------------------------------------------------------------------

         :::::::::::::::::::::::::::::::::::::::::::::::::::::
         ::                  THERMODYNAMIC                  ::
         :::::::::::::::::::::::::::::::::::::::::::::::::::::
         :: total free energy         -80.568057306526 Eh   ::
         ::.................................................::
         :: total energy              -80.894930608526 Eh   ::
         :: zero point energy           0.377849144885 Eh   ::
         :: G(RRHO) w/o ZPVE           -0.050975842885 Eh   ::
         :: G(RRHO) contrib.            0.326873302000 Eh   ::
         :::::::::::::::::::::::::::::::::::::::::::::::::::::

           -------------------------------------------------
          | TOTAL ENERGY              -80.894930608526 Eh   |
          | TOTAL ENTHALPY            -80.492563135567 Eh   |
          | TOTAL FREE ENERGY         -80.568057306526 Eh   |
          | GRADIENT NORM               0.000187986236 Eh/α |
          | HOMO-LUMO GAP               2.416925133566 eV   |
           -------------------------------------------------

 * finished run on 2025/09/13 at 01:45:41.264
