   * xtb version 6.7.1 (edcfbbe) compiled by 'albert@albert-system' on 2024-07-22

   ID    Z sym.   atoms
    1    6 C      1-4, 6-9, 11-25, 27-30, 32
    2    7 N      5, 10, 26, 31
    3    1 H      33-50

          program call               : xtb data2507/gas/CzCbPy/CzCbPy.xyz --gfn 2 --ohess vtight --parallel 40 --molden --ceasefiles --namespace data2507/gas/CzCbPy/CzCbPy_gas_S0_preOpt
          :  Hamiltonian                  GFN2-xTB          :
 * total energy  :   -80.8769299 Eh     change       -0.2565969E-08 Eh
 * total energy  :   -80.8904264 Eh     change       -0.1349650E-01 Eh
 * total energy  :   -80.8934057 Eh     change       -0.2979236E-02 Eh
 * total energy  :   -80.8938359 Eh     change       -0.4302716E-03 Eh
 * total energy  :   -80.8941274 Eh     change       -0.2914146E-03 Eh
 * total energy  :   -80.8942161 Eh     change       -0.8874900E-04 Eh
 * total energy  :   -80.8942899 Eh     change       -0.7382822E-04 Eh
 * total energy  :   -80.8943417 Eh     change       -0.5178393E-04 Eh
 * total energy  :   -80.8943984 Eh     change       -0.5665913E-04 Eh
 * total energy  :   -80.8944372 Eh     change       -0.3883083E-04 Eh
 * total energy  :   -80.8947455 Eh     change       -0.7112680E-06 Eh
 * total energy  :   -80.8947461 Eh     change       -0.5227784E-06 Eh
 * total energy  :   -80.8947464 Eh     change       -0.3752348E-06 Eh
 * total energy  :   -80.8947468 Eh     change       -0.3462127E-06 Eh
 * total energy  :   -80.8947471 Eh     change       -0.3579453E-06 Eh
 * total energy  :   -80.8947475 Eh     change       -0.3975578E-06 Eh
 * total energy  :   -80.8947480 Eh     change       -0.4455424E-06 Eh
 * total energy  :   -80.8947485 Eh     change       -0.4872102E-06 Eh
 * total energy  :   -80.8947485 Eh     change       -0.3048058E-08 Eh
   *** GEOMETRY OPTIMIZATION CONVERGED AFTER 44 ITERATIONS ***

 final structure:
================
50
 xtb: 6.7.1 (edcfbbe)
C            5.95904301660703        2.64201061327387       -1.10699077390842
C            6.19818317093025        1.83510214549563       -0.00277107133916
C            5.24268860537325        0.91422244495298        0.38072969655797
C            4.07073304264015        0.82344748711509       -0.37671116145651
N            3.07586863246322       -0.09238435735659       -0.05208043794871
C            1.70864423046422        0.13546554881265       -0.15562592349818
C            1.03005914919088        1.25149365889939       -0.62116216732581
C           -0.34925896647777        1.23123361039184       -0.58660586588790
C           -1.05722915519569        0.13264516814365       -0.08056145784970
N           -2.45946597890467        0.16666363767738       -0.06217579409051
C           -3.29707065264950       -0.81551843560555       -0.55208436632278
C           -2.98416299709357       -2.00639261048798       -1.19193099559602
C           -4.02934638982466       -2.80737610794863       -1.60976036084049
C           -5.35725070031879       -2.43717611358229       -1.40688390190992
C           -5.67481136426056       -1.24374719947145       -0.79048297620642
C           -4.64141470778768       -0.42091956699773       -0.36172406389198
C           -4.60289337890554        0.86184216921993        0.28211327169759
C           -5.58448560603999        1.73501987479423        0.73196085473064
C           -5.19551193263681        2.90935969395695        1.34441084795435
C           -3.84713836156313        3.21028328983590        1.52445524982412
C           -2.85238405390307        2.35788630557838        1.08555465396976
C           -3.23651596321723        1.18720429140504        0.44683816797182
C           -0.38229437655413       -0.98208530885111        0.39439756626495
C            1.00362282888555       -0.97951544084389        0.34577438757975
C            1.99224123871961       -1.94500302756697        0.73611850379796
N            1.82934935930806       -3.16324025079405        1.22640660003274
C            2.92679789037969       -3.86051666691233        1.44973929133879
C            4.21235666865720       -3.40144521424680        1.16932535427626
C            4.39872571280500       -2.12729016456608        0.65724758504361
C            3.25901742485094       -1.36125075322304        0.46396455255768
N            3.83131724037087        1.61515703643971       -1.41522620161435
C            4.74871248702043        2.49796533018188       -1.76397673194158
H            6.68366137156388        3.36951661877907       -1.43514333278357
H            7.11432446886912        1.93287953819371        0.56141656811462
H            5.37721900180682        0.30666593215390        1.26092158532128
H            1.56642012147417        2.09728409153206       -1.01825295416030
H           -0.90515831581907        2.07326593569618       -0.97048561044113
H           -1.95896301911595       -2.29564222707207       -1.36648108979692
H           -3.81194568201588       -3.74114497807675       -2.10718602525816
H           -6.14560442650279       -3.09316258402205       -1.74532729645967
H           -6.70351825984168       -0.94973919869003       -0.64527858453864
H           -6.62938042163439        1.49373661394822        0.60681860044245
H           -5.94294503898124        3.60348106102715        1.69920001171363
H           -3.57324299462637        4.12931365234177        2.02176576345283
H           -1.81061936584758        2.59169077272520        1.24627717522507
H           -0.91054153137401       -1.82789591508870        0.80388587959983
H            2.77351030533942       -4.85020287512696        1.85790694690326
H            5.06145281969012       -4.04435958012757        1.34176126951051
H            5.38644939390330       -1.77283900181701        0.40188014361301
H            4.49275645978096        3.11401305590239       -2.61595938242402

          :  Hamiltonian                  GFN2-xTB          :
         :: gradient norm              0.000041945206 Eh/a0 ::
         :: HOMO-LUMO gap              2.354519225646 eV    ::
         :: SCC energy               -82.362602330916 Eh    ::
         :: -> dispersion             -0.067615729147 Eh    ::
         :: repulsion energy           1.467853850684 Eh    ::

    * Orbital Energies and Occupations

         #    Occupation            Energy/Eh            Energy/eV
      -------------------------------------------------------------
         1        2.0000           -0.6905097             -18.7897
       ...           ...                  ...                  ...
        63        2.0000           -0.4280063             -11.6466
        64        2.0000           -0.4267353             -11.6121
        65        2.0000           -0.4203710             -11.4389
        66        2.0000           -0.4151808             -11.2976
        67        2.0000           -0.4118711             -11.2076
        68        2.0000           -0.4106468             -11.1743
        69        2.0000           -0.3981576             -10.8344
        70        2.0000           -0.3951927             -10.7537
        71        2.0000           -0.3875592             -10.5460
        72        2.0000           -0.3793270             -10.3220
        73        2.0000           -0.3714126             -10.1067
        74        2.0000           -0.3697914             -10.0625
        75        2.0000           -0.3542518              -9.6397 (HOMO)
        76                         -0.2677249              -7.2852 (LUMO)
        77                         -0.2612105              -7.1079
        78                         -0.2533362              -6.8936
        79                         -0.2407888              -6.5522
        80                         -0.2356332              -6.4119
        81                         -0.2146933              -5.8421
        82                         -0.2089573              -5.6860
        83                         -0.2010878              -5.4719
        84                         -0.1804389              -4.9100
        85                         -0.1787214              -4.8633
        86                         -0.1268316              -3.4513
       ...                                ...                  ...
       146                          0.7532950              20.4982
      -------------------------------------------------------------
                  HL-Gap            0.0865270 Eh            2.3545 eV

     #   Z          covCN         q      C6AA      α(0)
     1   6 C        2.913    -0.046    29.135     8.851
     2   6 C        2.929    -0.011    28.287     8.722
     3   6 C        2.917    -0.056    29.396     8.891
     4   6 C        2.901     0.150    24.743     8.156
     5   7 N        2.801    -0.040    22.003     6.967
     6   6 C        3.075     0.050    26.809     8.489
     7   6 C        2.909    -0.044    29.100     8.846
     8   6 C        2.927    -0.043    29.067     8.842
     9   6 C        2.913     0.058    26.701     8.473
    10   7 N        2.803    -0.042    22.047     6.974
    11   6 C        3.077     0.046    26.878     8.500
    12   6 C        2.910    -0.051    29.255     8.869
    13   6 C        2.924    -0.033    28.825     8.805
    14   6 C        2.920    -0.041    29.025     8.835
    15   6 C        2.912    -0.033    28.827     8.804
    16   6 C        3.068    -0.017    28.370     8.734
    17   6 C        3.068    -0.017    28.366     8.733
    18   6 C        2.912    -0.033    28.825     8.804
    19   6 C        2.920    -0.042    29.035     8.836
    20   6 C        2.924    -0.034    28.849     8.808
    21   6 C        2.910    -0.051    29.278     8.873
    22   6 C        3.076     0.046    26.887     8.501
    23   6 C        2.915    -0.041    29.023     8.834
    24   6 C        3.062    -0.018    28.394     8.738
    25   6 C        3.073     0.074    26.285     8.406
    26   7 N        1.833    -0.225    26.754     7.665
    27   6 C        2.924     0.051    26.854     8.498
    28   6 C        2.921    -0.045    29.106     8.847
    29   6 C        2.916    -0.034    28.850     8.808
    30   6 C        3.065     0.037    27.111     8.538
    31   7 N        1.845    -0.240    27.129     7.719
    32   6 C        2.908     0.062    26.608     8.458
    33   1 H        0.926     0.040     2.446     2.446
    34   1 H        0.926     0.040     2.447     2.446
    35   1 H        0.926     0.043     2.409     2.427
    36   1 H        0.926     0.058     2.222     2.331
    37   1 H        0.926     0.048     2.350     2.397
    38   1 H        0.926     0.030     2.589     2.516
    39   1 H        0.926     0.029     2.602     2.523
    40   1 H        0.926     0.027     2.633     2.537
    41   1 H        0.926     0.030     2.592     2.517
    42   1 H        0.926     0.030     2.587     2.515
    43   1 H        0.926     0.026     2.639     2.540
    44   1 H        0.926     0.027     2.630     2.536
    45   1 H        0.926     0.026     2.648     2.545
    46   1 H        0.926     0.059     2.205     2.322
    47   1 H        0.925     0.039     2.458     2.452
    48   1 H        0.926     0.036     2.501     2.473
    49   1 H        0.926     0.032     2.562     2.503
    50   1 H        0.925     0.044     2.397     2.421

molecular dipole:
                 x           y           z       tot (Debye)
 q only:        1.189       0.478      -0.020
   full:        2.107       0.699       0.072       5.646

 projected vibrational frequencies (cm⁻¹)
eigval :       -0.00    -0.00     0.00     0.00     0.00     0.00
eigval :       20.41    27.33    34.80    58.63    64.68    72.95
eigval :      100.82   107.31   130.60   143.56   149.73   160.82
eigval :      203.81   232.29   245.11   271.59   274.39   289.15
eigval :      317.02   350.51   379.78   383.35   392.97   399.67
eigval :      407.73   422.63   430.88   436.53   465.51   482.78
eigval :      518.02   529.37   541.10   543.19   546.88   562.84
eigval :      588.41   591.51   607.46   620.49   625.62   633.43
eigval :      673.84   687.00   689.61   706.94   709.18   726.84
eigval :      733.27   755.81   769.51   771.71   780.69   798.06
eigval :      803.42   829.28   867.92   872.84   886.07   888.63
eigval :      898.09   900.80   901.28   902.66   904.87   914.93
eigval :      916.29   917.90   923.06   925.42   937.52   945.62
eigval :      974.94  1009.91  1012.40  1032.01  1070.25  1073.79
eigval :     1088.79  1098.36  1108.30  1123.19  1135.34  1146.57
eigval :     1152.68  1163.45  1171.18  1181.26  1182.51  1183.77
eigval :     1214.88  1228.50  1237.47  1242.82  1245.98  1270.10
eigval :     1288.95  1292.71  1302.94  1306.22  1330.93  1339.27
eigval :     1342.33  1357.86  1363.85  1372.69  1388.84  1416.37
eigval :     1423.17  1428.12  1438.86  1445.71  1472.95  1476.20
eigval :     1488.39  1488.85  1555.29  1560.42  1570.50  1575.52
eigval :     1580.46  1585.35  1589.21  1599.23  1606.93  1615.50
eigval :     3059.80  3066.11  3074.17  3074.41  3075.62  3077.47
eigval :     3079.95  3081.73  3087.27  3089.74  3094.13  3095.26
eigval :     3096.06  3097.14  3105.69  3107.37  3114.15  3118.81

   temp. (K)  partition function   enthalpy   heat capacity  entropy
                                   cal/mol     cal/K/mol   cal/K/mol   J/K/mol
 298.15  VIB  0.719E+09            13009.419     88.070     78.133
         ROT  0.244E+08              888.752      2.981     36.783
         INT  0.175E+17            13898.171     91.051    114.917
         TR   0.805E+28             1481.254      4.968     43.907
         TOT                       15379.4252    96.0195   158.8239   664.5193

       T/K    H(0)-H(T)+PV         H(T)/Eh          T*S/Eh         G(T)/Eh
   ------------------------------------------------------------------------
    298.15    0.245087E-01    0.402347E+00    0.754624E-01    0.326884E+00
   ------------------------------------------------------------------------

         :::::::::::::::::::::::::::::::::::::::::::::::::::::
         ::                  THERMODYNAMIC                  ::
         :::::::::::::::::::::::::::::::::::::::::::::::::::::
         :: total free energy         -80.567864263949 Eh   ::
         ::.................................................::
         :: total energy              -80.894748480231 Eh   ::
         :: zero point energy           0.377837913832 Eh   ::
         :: G(RRHO) w/o ZPVE           -0.050953697549 Eh   ::
         :: G(RRHO) contrib.            0.326884216283 Eh   ::
         :::::::::::::::::::::::::::::::::::::::::::::::::::::

           -------------------------------------------------
          | TOTAL ENERGY              -80.894748480231 Eh   |
          | TOTAL ENTHALPY            -80.492401892222 Eh   |
          | TOTAL FREE ENERGY         -80.567864263949 Eh   |
          | GRADIENT NORM               0.000041942616 Eh/α |
          | HOMO-LUMO GAP               2.354518673177 eV   |
           -------------------------------------------------

 * finished run on 2025/09/13 at 01:44:31.753
