   * xtb version 6.7.1 (edcfbbe) compiled by 'albert@albert-system' on 2024-07-22

   ID    Z sym.   atoms
    1    6 C      1-4, 6-9, 11-25, 27-30, 32
    2    7 N      5, 10, 26, 31
    3    1 H      33-50

          program call               : xtb data2507/gas/CzCbPy/CzCbPy_gas_T1_crest.xyz --gfn 2 --spinpol --tblite --uhf 2 --ohess vtight --parallel 40 --molden --ceasefiles --namespace data2507/gas/CzCbPy/CzCbPy_gas_T1_finalOpt
 * total energy  :   -80.8001657 Eh     change        0.2292111E-08 Eh
 * total energy  :   -80.8002777 Eh     change       -0.1119583E-03 Eh
 * total energy  :   -80.8003304 Eh     change       -0.5276519E-04 Eh
 * total energy  :   -80.8003372 Eh     change       -0.6768909E-05 Eh
 * total energy  :   -80.8003460 Eh     change       -0.8762746E-05 Eh
 * total energy  :   -80.8003493 Eh     change       -0.3323241E-05 Eh
 * total energy  :   -80.8003532 Eh     change       -0.3918808E-05 Eh
 * total energy  :   -80.8003547 Eh     change       -0.1502465E-05 Eh
 * total energy  :   -80.8003557 Eh     change       -0.1037337E-05 Eh
 * total energy  :   -80.8003564 Eh     change       -0.6578705E-06 Eh
 * total energy  :   -80.8003567 Eh     change       -0.3199772E-06 Eh
 * total energy  :   -80.8003569 Eh     change       -0.1622142E-06 Eh
 * total energy  :   -80.8003569 Eh     change       -0.5071173E-07 Eh
   *** GEOMETRY OPTIMIZATION CONVERGED AFTER 13 ITERATIONS ***

 final structure:
================
50
 xtb: 6.7.1 (edcfbbe)
C            6.07509398644936       -2.71996245794823        0.76995589077149
C            4.85926750448221       -3.21494790213375        0.29778225132998
C            3.82041379963854       -2.34019344378788        0.06454448493288
C            4.02254581459718       -0.97676857823038        0.32174571370419
N            3.01718212383961       -0.04602681721185        0.13138492952662
C            1.65246953131824       -0.27302602533451        0.19688420281847
C            0.94516684293961       -1.32702216448980        0.73550580160240
C           -0.44573777203966       -1.29227314018506        0.69528855396697
C           -1.11949922965234       -0.18728255896848        0.13709834859565
N           -2.51608226653645       -0.19462022938070        0.10160190124101
C           -3.33931470165774        0.83801433313396        0.50298030292429
C           -3.00978773036985        2.05965207279941        1.07479132968601
C           -4.04414481575738        2.91052606730986        1.41824371195569
C           -5.37516068161271        2.55722416366036        1.21292885868061
C           -5.71081623039379        1.32903610049669        0.67191736746949
C           -4.69035434466706        0.46007304073086        0.31797752016866
C           -4.66940391204751       -0.86976776781903       -0.23108895789694
C           -5.66032330747171       -1.74967502301350       -0.63755379848130
C           -5.28400812900912       -2.97463555911221       -1.15892205857083
C           -3.94053658471911       -3.31479626711123       -1.29231817976215
C           -2.93510856689340       -2.45263941849651       -0.89544691752579
C           -3.30655675613434       -1.23370315977330       -0.34410211466626
C           -0.42876992943365        0.90611339258327       -0.36025865865705
C            0.97272420251038        0.88307166092552       -0.32561007415678
C            1.95659453813393        1.82221494910306       -0.66196821549530
N            1.88253588783630        3.06067094535895       -1.17570779468191
C            2.99196575293114        3.75422728560042       -1.36466081968067
C            4.24730328719728        3.25773008516683       -1.09427492456707
C            4.37976800254549        1.96395025201351       -0.52820144167946
C            3.23150217385275        1.24990340973900       -0.32930330014907
N            5.20511870900721       -0.50208631987630        0.72762389670783
C            6.18924491318101       -1.35168444039922        0.94506819398373
H            6.90695198170707       -3.37591159924330        0.96800035473815
H            4.73712510620337       -4.26984832894732        0.10019552963443
H            2.88656181791657       -2.68304488750316       -0.34998858403651
H            1.44001946086577       -2.15312376392525        1.22213371911008
H           -1.01834223543112       -2.08538066137066        1.14759743818971
H           -1.98209295872109        2.33304193157620        1.25610262520863
H           -3.81379320702288        3.86851451031013        1.85965462153717
H           -6.15488224045172        3.25002185079755        1.49190243568362
H           -6.74358478670732        1.04797446302757        0.53209026089637
H           -6.70195493317609       -1.47963377876581       -0.55284263664778
H           -6.04062380115565       -3.67538307166292       -1.47868910448843
H           -3.67773444075227       -4.27082911262576       -1.72000275813723
H           -1.89593027751868       -2.71391521092524       -1.02142049709906
H           -0.94638572138866        1.73977547551022       -0.80585816888014
H            2.85741264769484        4.75285270453463       -1.75701221169848
H            5.11932839370670        3.86085067868848       -1.28326059237589
H            5.34146610355716        1.57668730978539       -0.23569460260784
H            7.11728179320967       -0.90392324811067        1.27694018437775

 projected vibrational frequencies (cm⁻¹)
eigval :       -0.00    -0.00     0.00     0.00     0.00     0.00
eigval :       20.87    28.95    36.11    56.89    62.29    74.87
eigval :       93.76   102.03   135.09   145.58   151.82   169.69
eigval :      188.84   214.83   244.44   259.99   271.20   278.59
eigval :      326.77   328.11   347.80   365.81   379.83   386.64
eigval :      400.02   413.30   420.59   430.57   437.27   461.34
eigval :      498.58   515.52   527.83   536.08   537.37   548.28
eigval :      572.51   583.16   585.82   609.27   614.78   616.69
eigval :      635.44   655.78   675.16   679.10   689.63   699.41
eigval :      710.65   713.64   753.95   754.91   765.75   773.22
eigval :      778.23   781.35   791.62   820.00   855.67   861.31
eigval :      872.56   873.85   876.44   884.46   896.69   904.29
eigval :      905.72   907.99   915.92   921.61   922.75   923.82
eigval :      959.34   987.83  1011.10  1016.18  1053.21  1068.24
eigval :     1071.21  1080.19  1092.78  1110.43  1122.66  1131.75
eigval :     1144.12  1149.98  1158.10  1170.06  1179.06  1180.03
eigval :     1192.46  1205.47  1229.14  1231.33  1233.09  1245.48
eigval :     1256.27  1270.43  1287.71  1292.22  1304.16  1315.45
eigval :     1341.50  1348.49  1356.63  1361.84  1365.83  1378.64
eigval :     1389.14  1403.88  1414.80  1419.71  1427.61  1434.41
eigval :     1463.64  1469.94  1477.67  1482.91  1517.93  1525.74
eigval :     1534.27  1568.75  1572.80  1582.33  1586.45  1603.16
eigval :     3052.80  3058.70  3076.95  3080.90  3081.87  3086.84
eigval :     3088.54  3088.99  3094.95  3096.47  3100.50  3101.07
eigval :     3102.52  3106.03  3107.93  3108.54  3110.39  3111.47

   temp. (K)  partition function   enthalpy   heat capacity  entropy
                                   cal/mol     cal/K/mol   cal/K/mol   J/K/mol
 298.15  VIB  0.104E+10            13390.558     90.578     80.237
         ROT  0.244E+08              888.752      2.981     36.782
         INT  0.253E+17            14279.311     93.559    117.019
         TR   0.805E+28             1481.254      4.968     43.907
         TOT                       15760.5647    98.5273   160.9264   673.3160

       T/K    H(0)-H(T)+PV         H(T)/Eh          T*S/Eh         G(T)/Eh
   ------------------------------------------------------------------------
    298.15    0.251161E-01    0.397855E+00    0.764613E-01    0.321394E+00
   ------------------------------------------------------------------------

         :::::::::::::::::::::::::::::::::::::::::::::::::::::
         ::                  THERMODYNAMIC                  ::
         :::::::::::::::::::::::::::::::::::::::::::::::::::::
         :: total free energy         -80.478962883329 Eh   ::
         ::.................................................::
         :: total energy              -80.800356966327 Eh   ::
         :: zero point energy           0.372739344424 Eh   ::
         :: G(RRHO) w/o ZPVE           -0.051345261426 Eh   ::
         :: G(RRHO) contrib.            0.321394082998 Eh   ::
         :::::::::::::::::::::::::::::::::::::::::::::::::::::

           -------------------------------------------------
          | TOTAL ENERGY              -80.800356966327 Eh   |
          | TOTAL ENTHALPY            -80.402501563314 Eh   |
          | TOTAL FREE ENERGY         -80.478962883329 Eh   |
          | GRADIENT NORM               0.000082507403 Eh/α |
           -------------------------------------------------

 * finished run on 2025/09/13 at 01:47:39.331
