   * xtb version 6.7.1 (edcfbbe) compiled by 'albert@albert-system' on 2024-07-22

   ID    Z sym.   atoms
    1    6 C      1-4, 6-9, 11-25, 27-30, 32
    2    7 N      5, 10, 26, 31
    3    1 H      33-50

          program call               : xtb data2507/gas/CzCbPy/CzCbPy_gas_S0_finalOpt.xtbopt.xyz --gfn 2 --spinpol --tblite --uhf 2 --ohess vtight --parallel 40 --molden --ceasefiles --namespace data2507/gas/CzCbPy/CzCbPy_gas_T1_preOpt
 * total energy  :   -80.7958401 Eh     change       -0.6567035E-08 Eh
 * total energy  :   -80.7989158 Eh     change       -0.3075698E-02 Eh
 * total energy  :   -80.7999337 Eh     change       -0.1017919E-02 Eh
 * total energy  :   -80.8000323 Eh     change       -0.9858273E-04 Eh
 * total energy  :   -80.8001014 Eh     change       -0.6910271E-04 Eh
 * total energy  :   -80.8001223 Eh     change       -0.2098473E-04 Eh
 * total energy  :   -80.8001583 Eh     change       -0.3597250E-04 Eh
 * total energy  :   -80.8001849 Eh     change       -0.2654739E-04 Eh
 * total energy  :   -80.8002097 Eh     change       -0.2487130E-04 Eh
 * total energy  :   -80.8002293 Eh     change       -0.1960369E-04 Eh
 * total energy  :   -80.8003382 Eh     change       -0.5852977E-06 Eh
 * total energy  :   -80.8003388 Eh     change       -0.5674187E-06 Eh
 * total energy  :   -80.8003394 Eh     change       -0.5673079E-06 Eh
 * total energy  :   -80.8003399 Eh     change       -0.5319485E-06 Eh
 * total energy  :   -80.8003404 Eh     change       -0.5202583E-06 Eh
 * total energy  :   -80.8003409 Eh     change       -0.4685084E-06 Eh
 * total energy  :   -80.8003414 Eh     change       -0.5088510E-06 Eh
 * total energy  :   -80.8003418 Eh     change       -0.4458753E-06 Eh
 * total energy  :   -80.8003419 Eh     change       -0.3695433E-07 Eh
   *** GEOMETRY OPTIMIZATION CONVERGED AFTER 68 ITERATIONS ***

 final structure:
================
50
 xtb: 6.7.1 (edcfbbe)
C            6.07988421530087        2.70604140918876       -0.82258727470163
C            4.87449709829213        3.21101638287589       -0.33460470702111
C            3.83499219356390        2.34374952593278       -0.07729253187572
C            4.02538025763870        0.97740162167876       -0.32770318451821
N            3.01784049300700        0.05325621036385       -0.11780094526975
C            1.65314799441777        0.28170763092291       -0.17937951048665
C            0.94496772982789        1.33992711511358       -0.70855566893475
C           -0.44600315439459        1.30483351821555       -0.66688824812107
C           -1.11878653347516        0.19310547902381       -0.12171084707061
N           -2.51593302880341        0.19471278557434       -0.09486328492106
C           -3.33121476624337       -0.83133677603602       -0.52724150335625
C           -2.99067081337132       -2.03829119388359       -1.12316205524191
C           -4.01810439893833       -2.88394239433654       -1.49866126143859
C           -5.35255286198353       -2.53955357464323       -1.30035176351584
C           -5.69868967362923       -1.32607117617002       -0.73327191242644
C           -4.68541018061314       -0.46236545595895       -0.34724367437330
C           -4.67451268349212        0.85431567495369        0.23311977817153
C           -5.67188746307287        1.72089361018724        0.65219010281151
C           -5.30422226065634        2.93448842039819        1.20545626538831
C           -3.96317663766482        3.27692641515716        1.35673623619847
C           -2.95131277434573        2.42819792914102        0.94751363652142
C           -3.31405448071001        1.22060611445780        0.36632020409708
C           -0.42771255382492       -0.90311363837506        0.36825082679814
C            0.97389767933963       -0.87702805011292        0.33811364699688
C            1.95786589763865       -1.81618397299914        0.67339713951676
N            1.88424553110986       -3.05527731099667        1.18616503824932
C            2.99414426014809       -3.74680620732617        1.37912298140553
C            4.24936025364453       -3.24898550446797        1.11051224235950
C            4.38130919314850       -1.95507678701973        0.54479375502873
C            3.23252016431051       -1.24252442569240        0.34314987145857
N            5.19923182002884        0.49351938861468       -0.74784442379045
C            6.18437884848312        1.33570285870926       -0.98752841258632
H            6.91149160280625        3.35602562147040       -1.04034676169495
H            4.76099483956021        4.26814039619434       -0.14384908732701
H            2.91016360936491        2.69486842349939        0.35028617313161
H            1.43851322350202        2.17011432775134       -1.18935509254389
H           -1.01937030572814        2.10291629034652       -1.10946875162660
H           -1.95976773571876       -2.30376231417193       -1.29814359566288
H           -3.77960249489144       -3.83034608890804       -1.96027449126491
H           -6.12670003231058       -3.22765939299785       -1.60527153867770
H           -6.73400180435001       -1.05208299173650       -0.59827797501184
H           -6.71182898730993        1.44930313910103        0.55283244212497
H           -6.06605864044788        3.62444449833571        1.53613029991193
H           -3.70764898085819        4.22378979343113        1.80854167991623
H           -1.91392480028419        2.69032523795452        1.08617518377767
H           -0.94551273897949       -1.74238955666331        0.80306143738325
H            2.86024818847191       -4.74490409654264        1.77304155755866
H            5.12175494008061       -3.85072199049746        1.30221141483887
H            5.34343753412409       -1.56610837328723        0.25584425450160
H            7.10467866079221        0.88012574740635       -1.33014874807834

 projected vibrational frequencies (cm⁻¹)
eigval :       -0.00    -0.00    -0.00    -0.00    -0.00     0.00
eigval :       20.27    28.74    35.63    56.91    61.33    74.65
eigval :       93.35   101.79   134.94   145.25   151.39   168.62
eigval :      188.61   215.11   244.00   259.47   270.86   277.92
eigval :      322.53   326.72   346.84   366.42   380.28   386.36
eigval :      399.35   413.16   419.95   429.75   436.61   460.68
eigval :      497.85   515.47   527.72   535.62   537.26   548.26
eigval :      572.88   583.16   585.60   608.83   614.88   616.76
eigval :      635.40   655.82   675.11   679.24   689.91   698.69
eigval :      710.74   713.62   754.03   754.71   765.66   772.80
eigval :      777.74   780.78   791.09   819.42   855.18   861.13
eigval :      872.60   874.01   875.90   883.86   896.71   904.05
eigval :      905.43   907.89   915.80   921.38   922.55   923.51
eigval :      959.35   987.87  1011.23  1016.11  1053.56  1068.07
eigval :     1071.02  1080.30  1090.36  1110.80  1122.60  1131.91
eigval :     1143.99  1150.37  1158.74  1169.63  1179.04  1179.78
eigval :     1192.12  1206.13  1229.11  1231.19  1232.60  1246.64
eigval :     1257.12  1270.33  1287.83  1292.03  1304.10  1315.67
eigval :     1341.44  1348.54  1356.77  1361.85  1365.58  1377.87
eigval :     1388.89  1403.39  1414.52  1419.41  1427.61  1434.24
eigval :     1463.53  1468.71  1478.49  1482.82  1517.84  1525.40
eigval :     1533.94  1568.67  1573.08  1582.23  1586.46  1603.29
eigval :     3052.85  3058.56  3077.02  3080.91  3081.85  3086.88
eigval :     3088.68  3089.69  3094.84  3096.59  3100.17  3100.66
eigval :     3101.96  3106.24  3107.72  3108.54  3110.02  3111.37

   temp. (K)  partition function   enthalpy   heat capacity  entropy
                                   cal/mol     cal/K/mol   cal/K/mol   J/K/mol
 298.15  VIB  0.114E+10            13406.500     90.588     80.379
         ROT  0.244E+08              888.752      2.981     36.783
         INT  0.278E+17            14295.252     93.569    117.162
         TR   0.805E+28             1481.254      4.968     43.907
         TOT                       15776.5059    98.5369   161.0693   673.9139

       T/K    H(0)-H(T)+PV         H(T)/Eh          T*S/Eh         G(T)/Eh
   ------------------------------------------------------------------------
    298.15    0.251415E-01    0.397816E+00    0.765292E-01    0.321287E+00
   ------------------------------------------------------------------------

         :::::::::::::::::::::::::::::::::::::::::::::::::::::
         ::                  THERMODYNAMIC                  ::
         :::::::::::::::::::::::::::::::::::::::::::::::::::::
         :: total free energy         -80.479054948228 Eh   ::
         ::.................................................::
         :: total energy              -80.800341883872 Eh   ::
         :: zero point energy           0.372674692567 Eh   ::
         :: G(RRHO) w/o ZPVE           -0.051387756923 Eh   ::
         :: G(RRHO) contrib.            0.321286935644 Eh   ::
         :::::::::::::::::::::::::::::::::::::::::::::::::::::

           -------------------------------------------------
          | TOTAL ENERGY              -80.800341883872 Eh   |
          | TOTAL ENTHALPY            -80.402525728752 Eh   |
          | TOTAL FREE ENERGY         -80.479054948228 Eh   |
          | GRADIENT NORM               0.000090298020 Eh/α |
           -------------------------------------------------

 * finished run on 2025/09/13 at 01:45:46.865
