   * xtb version 6.7.1 (edcfbbe) compiled by 'albert@albert-system' on 2024-07-22

   ID    Z sym.   atoms
    1    6 C      1-14, 16-22, 25-31, 33-46
    2    7 N      15, 23, 24, 32
    3    8 O      47
    4    1 H      48-79

          program call               : xtb data2507/toluene/3,6-MeCzOXD/3,6-MeCzOXD_toluene_S0_finalOpt.xtbopt.xyz --gfn 2 --uhf 2 --gbsa toluene --ohess vtight --parallel 40 --molden --ceasefiles --namespace data2507/toluene/3,6-MeCzOXD/3,6-MeCzOXD_toluene_T1_preOpt
      * Solvation model:               GBSA
        Solvent                        toluene
        Solvent mass                       9.2140E+01 g/mol
          :  Hamiltonian                  GFN2-xTB          :
 * total energy  :  -122.0836199 Eh     change       -0.1674405E-07 Eh
 * total energy  :  -122.0878328 Eh     change       -0.4212908E-02 Eh
 * total energy  :  -122.0894724 Eh     change       -0.1639551E-02 Eh
 * total energy  :  -122.0896296 Eh     change       -0.1572099E-03 Eh
 * total energy  :  -122.0897922 Eh     change       -0.1626025E-03 Eh
 * total energy  :  -122.0898475 Eh     change       -0.5537073E-04 Eh
 * total energy  :  -122.0899206 Eh     change       -0.7310520E-04 Eh
 * total energy  :  -122.0899871 Eh     change       -0.6644022E-04 Eh
 * total energy  :  -122.0900265 Eh     change       -0.3936448E-04 Eh
 * total energy  :  -122.0900663 Eh     change       -0.3987810E-04 Eh
 * total energy  :  -122.0907223 Eh     change       -0.1189471E-04 Eh
 * total energy  :  -122.0907302 Eh     change       -0.7886090E-05 Eh
 * total energy  :  -122.0907358 Eh     change       -0.5589961E-05 Eh
 * total energy  :  -122.0907403 Eh     change       -0.4528532E-05 Eh
 * total energy  :  -122.0907434 Eh     change       -0.3138840E-05 Eh
 * total energy  :  -122.0907443 Eh     change       -0.8782305E-06 Eh
 * total energy  :  -122.0907452 Eh     change       -0.8546311E-06 Eh
 * total energy  :  -122.0907459 Eh     change       -0.6735744E-06 Eh
 * total energy  :  -122.0907460 Eh     change       -0.9714901E-07 Eh
   *** GEOMETRY OPTIMIZATION CONVERGED AFTER 94 ITERATIONS ***

 final structure:
================
79
 xtb: 6.7.1 (edcfbbe)
C           -1.79999455051270        0.62585771110225        5.00739549119603
C           -2.26427210784659        0.21397000239883        3.64356728120326
C           -1.85954126955291       -1.01849148037545        3.11714029375672
C           -2.23176647479021       -1.43806244424055        1.85611233254141
C           -3.02657575505637       -0.58752959706751        1.09795818972876
C           -3.47179325084264        0.64919277610252        1.62168796378819
C           -3.08406598681945        1.04532066129646        2.89165438139152
C           -4.30288193707903        1.24201116521810        0.60558533225064
C           -4.99724747986540        2.43806627036633        0.51606396573382
C           -5.70411625124971        2.73004373019331       -0.64323938151648
C           -6.46786211948871        4.01237734795587       -0.77625320396144
C           -5.69484681025435        1.82026227024563       -1.70726742376063
C           -5.00991349028686        0.62293517315877       -1.64554373473192
C           -4.32041469983631        0.32971161533242       -0.47605985367598
N           -3.54213676176847       -0.76406003743284       -0.16684965448586
C           -3.30039992733100       -1.86290968361234       -1.00043898786293
C           -4.37379722649448       -2.60198300132923       -1.47246773065533
C           -4.17616717945366       -3.73534891612501       -2.24130126512234
C           -2.87142291337132       -4.14960496408410       -2.53720559694528
C           -1.79579544573553       -3.42408850451201       -2.10302550184357
C           -1.96741708936095       -2.23467417121926       -1.35270756444962
C           -0.83867493307030       -1.44277878713422       -1.06861520945844
N            0.42929128826048       -1.78610415530384       -1.30514304812879
N            1.20147164699632       -0.81094284047591       -0.90356705293148
C            0.43436457181024        0.16005885831685       -0.41327902253124
C            0.81112575418196        1.40276215700427        0.12637597243106
C           -0.18638304353791        2.35206901647329        0.46088465740726
C            0.14315008440605        3.62953448830662        0.82568126019379
C            1.48271180467657        4.03007647440586        0.87998787248662
C            2.48135267179047        3.11051514694457        0.60299528385472
C            2.17535687744599        1.80342536482733        0.26093101773496
N            3.21267181171818        0.88503341424010        0.07433102684818
C            4.25392963812457        1.01692769458269       -0.81312334240201
C            4.49464950826720        2.01213467808174       -1.75323617388552
C            5.61878778490989        1.89258668861408       -2.54538670010303
C            6.49930286630941        0.81009293376643       -2.43059035905553
C            7.70415385592325        0.74360555374773       -3.31728608438988
C            6.24171620972180       -0.19106942541524       -1.50009324860146
C            5.12255294907712       -0.09432149514412       -0.69142367417990
C            4.56472950670062       -0.92962872004567        0.34293568127156
C            4.96689012868184       -2.11563036388830        0.93257530713136
C            4.20449906620689       -2.65744445555433        1.96147938409746
C            4.59592625683401       -3.95460696049612        2.60022617496528
C            3.05585783078708       -1.98802148906544        2.39735418102653
C            2.63575668408070       -0.80311474467691        1.82734386405878
C            3.38509174058373       -0.28472414602807        0.77997344668483
O           -0.90129636612879       -0.18764429425917       -0.50576446824280
H           -0.75754604002108        0.94489901390139        4.96524649647441
H           -1.86476279835065       -0.20743029198711        5.70468642222356
H           -2.39432811211566        1.45262459767695        5.38771484542612
H           -1.23390924684353       -1.66103692045367        3.72020488717188
H           -1.90831523532344       -2.39311683002217        1.46731941590467
H           -3.41454192694073        1.99262130704538        3.29143708171910
H           -4.98296545748074        3.13763307022044        1.33874209837620
H           -7.51588835273808        3.80946798208131       -0.99372548983629
H           -6.40813391555523        4.59881599997566        0.13679401552307
H           -6.06912949699041        4.60618816052917       -1.59851275809009
H           -6.23918930569002        2.06865144009571       -2.60689773947199
H           -5.00305435353142       -0.06030114087244       -2.48155712621111
H           -5.37404131776944       -2.29813852541502       -1.19704078835940
H           -5.02135731438784       -4.31079609052770       -2.58479636149227
H           -2.71691305117610       -5.04794924093802       -3.11653815643229
H           -0.78401325619267       -3.71847081216858       -2.33500795426575
H           -1.21926474423398        2.04220359515665        0.40402085474474
H           -0.63683513921817        4.33596549073535        1.06894137736400
H            1.73902791386656        5.03800364342894        1.16579933126666
H            3.52061515866697        3.39430609492631        0.69080575036604
H            3.81823794831355        2.84609139567910       -1.86497570588040
H            5.82725820192515        2.65454496245411       -3.28231825811819
H            7.40515842010127        0.76598751756210       -4.36467725170727
H            8.27321517968213       -0.16410699339751       -3.13591151864863
H            8.35098791122332        1.60265503507408       -3.14070622400428
H            6.90535576269918       -1.03823267040974       -1.41288689616275
H            5.86517914389908       -2.61403069070528        0.59990805232643
H            5.63671010780027       -4.19186396378856        2.39580361680503
H            3.97793273879269       -4.76217460327124        2.20549887325865
H            4.44444994108957       -3.91675495896040        3.67717894350364
H            2.48305719266719       -2.41443157712940        3.20842728036420
H            1.75046822384673       -0.29540649381368        2.18015209835901

          :  Hamiltonian                  GFN2-xTB          :
         :: gradient norm              0.000074488823 Eh/a0 ::
         :: HOMO-LUMO gap              0.606229993715 eV    ::
         :: SCC energy              -124.213955492687 Eh    ::
         :: -> dispersion             -0.111703441897 Eh    ::
         :: -> Gsolv                  -0.051725316320 Eh    ::
         :: repulsion energy           2.123209474725 Eh    ::

    * Orbital Energies and Occupations

         #    Occupation            Energy/Eh            Energy/eV
      -------------------------------------------------------------
         1        2.0000           -0.7279661             -19.8090
       ...           ...                  ...                  ...
       102        2.0000           -0.4086887             -11.1210
       103        2.0000           -0.4075073             -11.0888
       104        2.0000           -0.4065589             -11.0630
       105        2.0000           -0.4054459             -11.0327
       106        2.0000           -0.4042531             -11.0003
       107        2.0000           -0.4009369             -10.9100
       108        2.0000           -0.3826567             -10.4126
       109        2.0000           -0.3811931             -10.3728
       110        2.0000           -0.3733808             -10.1602
       111        1.9953           -0.3670184              -9.9871
       112        1.8741           -0.3637680              -9.8986
       113        1.1306           -0.3601266              -9.7995
       114        1.0000           -0.2738260              -7.4512 (HOMO)
       115        0.0000           -0.2515478              -6.8450 (LUMO)
       116        0.0000           -0.2497869              -6.7970
       117                         -0.2454684              -6.6795
       118                         -0.2270091              -6.1772
       119                         -0.2267882              -6.1712
       120                         -0.2260916              -6.1523
       121                         -0.2250930              -6.1251
       122                         -0.1961288              -5.3369
       123                         -0.1949058              -5.3037
       124                         -0.1927445              -5.2448
       125                         -0.1907348              -5.1902
       ...                                ...                  ...
       220                          0.7381768              20.0868
      -------------------------------------------------------------
                  HL-Gap            0.0222782 Eh            0.6062 eV

     #   Z          covCN         q      C6AA      α(0)
     1   6 C        3.758    -0.110    22.655     6.786
     2   6 C        2.966     0.015    27.683     8.630
     3   6 C        2.928    -0.043    29.061     8.841
     4   6 C        2.908    -0.039    28.974     8.826
     5   6 C        3.081     0.057    26.646     8.463
     6   6 C        3.063    -0.014    28.294     8.723
     7   6 C        2.916    -0.041    29.013     8.833
     8   6 C        3.064    -0.014    28.298     8.723
     9   6 C        2.916    -0.041    29.020     8.834
    10   6 C        2.966     0.016    27.655     8.626
    11   6 C        3.758    -0.111    22.683     6.790
    12   6 C        2.928    -0.043    29.069     8.842
    13   6 C        2.908    -0.045    29.115     8.848
    14   6 C        3.080     0.048    26.841     8.494
    15   7 N        2.802    -0.020    21.625     6.907
    16   6 C        2.910     0.046    26.959     8.514
    17   6 C        2.918    -0.044    29.096     8.845
    18   6 C        2.916    -0.046    29.151     8.854
    19   6 C        2.913    -0.033    28.810     8.802
    20   6 C        2.923    -0.043    29.079     8.843
    21   6 C        2.967    -0.030    28.735     8.793
    22   6 C        3.098     0.201    23.628     7.966
    23   7 N        2.030    -0.230    26.807     7.680
    24   7 N        2.027    -0.219    26.546     7.642
    25   6 C        3.099     0.198    23.699     7.978
    26   6 C        2.966    -0.029    28.732     8.792
    27   6 C        2.922    -0.041    29.023     8.835
    28   6 C        2.913    -0.032    28.807     8.801
    29   6 C        2.916    -0.047    29.166     8.856
    30   6 C        2.918    -0.044    29.086     8.844
    31   6 C        2.911     0.047    26.947     8.512
    32   7 N        2.803    -0.007    21.386     6.868
    33   6 C        3.082     0.049    26.818     8.490
    34   6 C        2.907    -0.042    29.055     8.839
    35   6 C        2.927    -0.042    29.048     8.839
    36   6 C        2.966     0.020    27.557     8.611
    37   6 C        3.758    -0.114    22.723     6.796
    38   6 C        2.916    -0.039    28.962     8.825
    39   6 C        3.064    -0.009    28.182     8.705
    40   6 C        3.064    -0.009    28.188     8.706
    41   6 C        2.917    -0.039    28.960     8.825
    42   6 C        2.966     0.019    27.580     8.614
    43   6 C        3.758    -0.112    22.702     6.793
    44   6 C        2.928    -0.041    29.017     8.834
    45   6 C        2.908    -0.037    28.909     8.816
    46   6 C        3.082     0.058    26.618     8.458
    47   8 O        1.713    -0.290    18.812     5.856
    48   1 H        0.924     0.052     2.293     2.368
    49   1 H        0.925     0.051     2.308     2.376
    50   1 H        0.925     0.049     2.337     2.390
    51   1 H        0.926     0.035     2.510     2.478
    52   1 H        0.926     0.024     2.680     2.560
    53   1 H        0.926     0.041     2.439     2.442
    54   1 H        0.926     0.041     2.442     2.444
    55   1 H        0.925     0.053     2.279     2.361
    56   1 H        0.925     0.048     2.350     2.397
    57   1 H        0.925     0.053     2.283     2.363
    58   1 H        0.926     0.040     2.449     2.447
    59   1 H        0.926     0.034     2.532     2.488
    60   1 H        0.926     0.035     2.512     2.478
    61   1 H        0.926     0.034     2.526     2.485
    62   1 H        0.926     0.035     2.512     2.478
    63   1 H        0.926     0.042     2.420     2.432
    64   1 H        0.926     0.031     2.575     2.509
    65   1 H        0.926     0.035     2.523     2.484
    66   1 H        0.926     0.036     2.508     2.477
    67   1 H        0.926     0.038     2.472     2.459
    68   1 H        0.926     0.037     2.488     2.467
    69   1 H        0.926     0.044     2.394     2.420
    70   1 H        0.925     0.056     2.250     2.346
    71   1 H        0.925     0.050     2.315     2.380
    72   1 H        0.925     0.057     2.231     2.336
    73   1 H        0.926     0.046     2.366     2.405
    74   1 H        0.926     0.047     2.363     2.404
    75   1 H        0.925     0.052     2.301     2.372
    76   1 H        0.924     0.056     2.243     2.342
    77   1 H        0.925     0.053     2.289     2.366
    78   1 H        0.926     0.039     2.459     2.452
    79   1 H        0.926     0.025     2.662     2.551

molecular dipole:
                 x           y           z       tot (Debye)
 q only:        0.906       0.913       0.954
   full:        0.317       1.122       0.973       3.860

 projected vibrational frequencies (cm⁻¹)
eigval :       -0.00     0.00     0.00     0.00     0.00     0.00
eigval :      -51.26    11.00    16.31    17.71    22.26    27.18
eigval :       42.17    48.85    49.15    56.78    61.73    66.64
eigval :       86.61    88.50    91.16    95.42    99.40   100.74
eigval :      108.45   114.00   131.46   135.08   147.72   159.00
eigval :      182.92   196.16   216.01   219.44   221.59   244.08
eigval :      261.21   274.01   280.18   299.27   304.03   312.13
eigval :      315.46   319.78   333.49   358.48   362.57   388.27
eigval :      390.23   392.22   394.69   401.84   413.50   416.59
eigval :      419.46   421.19   434.68   446.68   457.26   462.08
eigval :      487.12   488.28   490.85   522.02   554.44   556.18
eigval :      571.49   573.99   574.91   575.25   576.99   581.56
eigval :      582.58   616.99   618.30   622.25   634.56   657.01
eigval :      666.00   673.44   673.85   676.75   679.04   703.76
eigval :      707.51   707.74   736.10   739.84   750.06   752.44
eigval :      796.42   796.96   809.50   812.47   814.37   815.49
eigval :      847.11   851.78   860.79   864.26   866.97   868.82
eigval :      894.20   896.08   898.24   904.08   908.01   909.61
eigval :      911.10   911.82   913.24   914.68   915.56   915.74
eigval :      924.49   925.04   951.43   951.95  1007.28  1008.75
eigval :     1011.71  1015.09  1016.21  1024.09  1025.13  1027.47
eigval :     1028.42  1030.05  1036.18  1036.81  1069.62  1076.27
eigval :     1098.60  1107.76  1139.13  1141.25  1143.90  1147.71
eigval :     1166.17  1167.05  1167.88  1170.96  1184.49  1188.10
eigval :     1199.81  1201.48  1202.66  1215.56  1230.65  1232.96
eigval :     1243.08  1245.95  1249.43  1250.26  1271.26  1278.06
eigval :     1280.82  1282.25  1287.55  1326.77  1331.10  1333.57
eigval :     1340.31  1351.30  1357.00  1361.94  1368.51  1369.51
eigval :     1389.08  1397.42  1398.29  1399.84  1400.36  1401.12
eigval :     1412.20  1412.51  1415.13  1420.24  1434.15  1436.14
eigval :     1455.01  1458.07  1465.96  1468.51  1468.58  1472.14
eigval :     1473.40  1478.29  1479.11  1481.28  1483.24  1484.15
eigval :     1493.04  1495.17  1518.30  1549.75  1557.73  1559.19
eigval :     1569.14  1572.24  1572.88  1574.10  1578.68  1593.29
eigval :     1601.99  2990.93  2992.21  3001.45  3001.74  3015.76
eigval :     3016.05  3023.81  3027.99  3044.34  3044.83  3046.69
eigval :     3049.00  3070.40  3071.98  3074.67  3074.96  3076.29
eigval :     3077.29  3078.01  3078.72  3080.35  3082.07  3083.45
eigval :     3083.78  3085.93  3087.22  3088.82  3090.32  3090.47
eigval :     3095.94  3099.14  3103.68

   temp. (K)  partition function   enthalpy   heat capacity  entropy
                                   cal/mol     cal/K/mol   cal/K/mol   J/K/mol
 298.15  VIB  0.113E+19            23176.683    143.650    145.572
         ROT  0.603E+08              888.752      2.981     38.583
         INT  0.680E+26            24065.436    146.631    184.155
         TR   0.145E+29             1481.254      4.968     45.081
         TOT                       25546.6895   151.5990   229.2367   959.1264

       T/K    H(0)-H(T)+PV         H(T)/Eh          T*S/Eh         G(T)/Eh
   ------------------------------------------------------------------------
    298.15    0.407112E-01    0.649242E+00    0.108918E+00    0.540324E+00
   ------------------------------------------------------------------------

         :::::::::::::::::::::::::::::::::::::::::::::::::::::
         ::                  THERMODYNAMIC                  ::
         :::::::::::::::::::::::::::::::::::::::::::::::::::::
         :: total free energy        -121.550421565846 Eh   ::
         ::.................................................::
         :: total energy             -122.090746017188 Eh   ::
         :: zero point energy           0.608530973410 Eh   ::
         :: G(RRHO) w/o ZPVE           -0.068206522067 Eh   ::
         :: G(RRHO) contrib.            0.540324451342 Eh   ::
         :::::::::::::::::::::::::::::::::::::::::::::::::::::

           -------------------------------------------------
          | TOTAL ENERGY             -122.090746017188 Eh   |
          | TOTAL ENTHALPY           -121.441503802643 Eh   |
          | TOTAL FREE ENERGY        -121.550421565846 Eh   |
          | GRADIENT NORM               0.000072169621 Eh/α |
          | HOMO-LUMO GAP               0.606219624443 eV   |
           -------------------------------------------------

 * finished run on 2025/08/25 at 07:17:51.942
