   * xtb version 6.7.1 (edcfbbe) compiled by 'albert@albert-system' on 2024-07-22

   ID    Z sym.   atoms
    1    6 C      1-14, 16-22, 25-31, 33-46
    2    7 N      15, 23, 24, 32
    3    8 O      47
    4    1 H      48-79

          program call               : xtb data2507/toluene/3,6-MeCzOXD/3,6-MeCzOXD_toluene_T1_crest.xyz --gfn 2 --uhf 2 --gbsa toluene --ohess vtight --parallel 40 --molden --ceasefiles --namespace data2507/toluene/3,6-MeCzOXD/3,6-MeCzOXD_toluene_T1_finalOpt
      * Solvation model:               GBSA
        Solvent                        toluene
        Solvent mass                       9.2140E+01 g/mol
          :  Hamiltonian                  GFN2-xTB          :
 * total energy  :  -122.0898544 Eh     change       -0.2458958E-07 Eh
 * total energy  :  -122.0899751 Eh     change       -0.1207164E-03 Eh
 * total energy  :  -122.0900498 Eh     change       -0.7466074E-04 Eh
 * total energy  :  -122.0900778 Eh     change       -0.2798211E-04 Eh
 * total energy  :  -122.0901089 Eh     change       -0.3108361E-04 Eh
 * total energy  :  -122.0901323 Eh     change       -0.2344932E-04 Eh
 * total energy  :  -122.0901510 Eh     change       -0.1867508E-04 Eh
 * total energy  :  -122.0901748 Eh     change       -0.2377466E-04 Eh
 * total energy  :  -122.0901956 Eh     change       -0.2079600E-04 Eh
 * total energy  :  -122.0902220 Eh     change       -0.2648421E-04 Eh
 * total energy  :  -122.0907862 Eh     change       -0.1049543E-05 Eh
 * total energy  :  -122.0907870 Eh     change       -0.7957648E-06 Eh
 * total energy  :  -122.0907877 Eh     change       -0.6175555E-06 Eh
 * total energy  :  -122.0907880 Eh     change       -0.2934862E-06 Eh
 * total energy  :  -122.0907884 Eh     change       -0.4391446E-06 Eh
 * total energy  :  -122.0907884 Eh     change       -0.9419011E-08 Eh
 * total energy  :  -122.0907886 Eh     change       -0.2443181E-06 Eh
 * total energy  :  -122.0907888 Eh     change       -0.1660335E-06 Eh
 * total energy  :  -122.0907888 Eh     change       -0.7432376E-08 Eh
   *** GEOMETRY OPTIMIZATION CONVERGED AFTER 110 ITERATIONS ***

 final structure:
================
79
 xtb: 6.7.1 (edcfbbe)
C           -1.90701716830916        1.25131933285808        4.84358391961924
C           -2.34092149555924        0.63834248176373        3.54692547905364
C           -1.89308908744322       -0.64177844210966        3.20021115440013
C           -2.23311762667931       -1.24155920994497        2.00451867876379
C           -3.03991222438988       -0.52800179931399        1.12729648309597
C           -3.53010901424616        0.75398187764806        1.47121630763922
C           -3.17345672444471        1.33264014881621        2.67856008117595
C           -4.36421468076642        1.17446131735315        0.37478948874557
C           -5.09494549944652        2.32312291184158        0.11531515664312
C           -5.79413645481236        2.42981666908702       -1.07994192539257
C           -6.59843588964727        3.65397919118954       -1.39552445725285
C           -5.74057794569584        1.38390401544069       -2.00893151810091
C           -5.01941891235742        0.22963654582518       -1.77667750306012
C           -4.33753623371884        0.12243436024231       -0.57139554191659
N           -3.53047303793135       -0.89266286560852       -0.10693329333463
C           -3.24358641908850       -2.08797779278394       -0.77772436051913
C           -4.28696828412832       -2.91923965339908       -1.15426753965945
C           -4.04385077961869       -4.14161497072321       -1.75541908522810
C           -2.72298497701015       -4.55114629566418       -1.97729464105724
C           -1.67642594068553       -3.73831434290543       -1.63688936751654
C           -1.89498670217619       -2.46320873343593       -1.05949117346604
C           -0.79400527847817       -1.60593338024788       -0.87282602791377
N            0.48662368213135       -1.94028425894318       -1.04365144055468
N            1.22417925266074       -0.89548151253856       -0.77338309097356
C            0.42198518054843        0.11061000367522       -0.43335352732085
C            0.75488826833273        1.42799958919978       -0.07093982841433
C           -0.27376264810321        2.38589344247016        0.10860585621222
C            0.01450199009151        3.71100978639774        0.29481198239466
C            1.34174386231015        4.15355341512964        0.31431805738083
C            2.36960655028842        3.23325299767877        0.18658434167171
C            2.10511704732728        1.88276416651390        0.02801135329260
N            3.16853835260669        0.97609823348895       -0.01120585382686
C            4.21845519863541        1.00243425988068       -0.89798686346318
C            4.45671059845815        1.86302943603943       -1.96297899568429
C            5.59384349557676        1.65579466389445       -2.71813705713194
C            6.48986658524245        0.61591211500989       -2.44499392802875
C            7.69963009585489        0.43606190799919       -3.30894851028362
C            6.23475733578399       -0.25294497542633       -1.38880381602977
C            5.10303305139207       -0.06624661271646       -0.61458151758345
C            4.54498228783005       -0.76087194889182        0.51900332705498
C            4.95520538038538       -1.85098613178102        1.26742570211542
C            4.18736382523390       -2.25956417665997        2.35174670765560
C            4.58748921908094       -3.44816995021111        3.17095319102889
C            3.02479818813674       -1.55352729193701        2.68159656188526
C            2.59592398873732       -0.46321164346928        1.95234586069668
C            3.35085847554069       -0.08160871077295        0.85118257778052
O           -0.90152928967695       -0.28702901684506       -0.49202602323518
H           -2.56182656855491        2.07217051627317        5.12477258607353
H           -0.89271369928468        1.64197275060995        4.74822233910959
H           -1.90480207583949        0.50993312858695        5.64020406229718
H           -1.25931449356987       -1.17661441982647        3.89315342036705
H           -1.87682903150101       -2.23075741626116        1.75502682041036
H           -3.53796892640076        2.31488865735390        2.94066168644398
H           -5.11511620057341        3.12849591432190        0.83461713135927
H           -6.55947619580169        4.36869236651437       -0.57792101504608
H           -6.21850618678947        4.13391731247673       -2.29698389950518
H           -7.63885901663168        3.38705399037088       -1.57725971935778
H           -6.27981463999930        1.48876696226836       -2.93925469963332
H           -4.97914451859955       -0.56092333469161       -2.51094488905589
H           -5.30004033324469       -2.61192334578760       -0.93535848458922
H           -4.86622010826254       -4.78521249243846       -2.02549576318808
H           -2.53283784368383       -5.51557365304675       -2.42482504201014
H           -0.65280830805591       -4.02900550719586       -1.81533838323874
H           -1.29677454772893        2.04128737857751        0.07890439257150
H           -0.78846425630566        4.42204843363032        0.42256721621066
H            1.56574623694716        5.19865254937083        0.45882960699052
H            3.39907641548532        3.55642964121685        0.25061829819648
H            3.77053399004803        2.66332914917538       -2.19544844602301
H            5.80058186029774        2.31368334871570       -3.54970339919216
H            8.19363061650647        1.39045143301283       -3.48184240488838
H            7.40730598638832        0.03407924258928       -4.27968537190942
H            8.40672222601478       -0.25162831319404       -2.85274763915119
H            6.91129233086887       -1.06773876952913       -1.17859220055129
H            5.86327409292590       -2.37716240188755        1.01346709715295
H            3.89579858298329       -4.27217207831654        2.99334145368783
H            4.55407710388832       -3.21123456121201        4.23315814978212
H            5.59000729246951       -3.77989232563358        2.91435594465860
H            2.44873659185022       -1.87530260684269        3.53736224776728
H            1.69982642155484        0.07496456999656        2.22378289090841

          :  Hamiltonian                  GFN2-xTB          :
         :: gradient norm              0.000187128346 Eh/a0 ::
         :: HOMO-LUMO gap              0.604375596301 eV    ::
         :: SCC energy              -124.214093900295 Eh    ::
         :: -> dispersion             -0.111728654418 Eh    ::
         :: -> Gsolv                  -0.051747128383 Eh    ::
         :: repulsion energy           2.123305080330 Eh    ::

    * Orbital Energies and Occupations

         #    Occupation            Energy/Eh            Energy/eV
      -------------------------------------------------------------
         1        2.0000           -0.7279158             -19.8076
       ...           ...                  ...                  ...
       102        2.0000           -0.4086677             -11.1204
       103        2.0000           -0.4075122             -11.0890
       104        2.0000           -0.4065590             -11.0630
       105        2.0000           -0.4054054             -11.0316
       106        2.0000           -0.4042357             -10.9998
       107        2.0000           -0.4009029             -10.9091
       108        2.0000           -0.3827044             -10.4139
       109        2.0000           -0.3811351             -10.3712
       110        2.0000           -0.3733310             -10.1589
       111        1.9950           -0.3669540              -9.9853
       112        1.8715           -0.3637526              -9.8982
       113        1.1336           -0.3601576              -9.8004
       114        1.0000           -0.2737437              -7.4489 (HOMO)
       115        0.0000           -0.2515333              -6.8446 (LUMO)
       116        0.0000           -0.2497830              -6.7969
       117                         -0.2454158              -6.6781
       118                         -0.2269618              -6.1759
       119                         -0.2268351              -6.1725
       120                         -0.2260938              -6.1523
       121                         -0.2250479              -6.1239
       122                         -0.1961440              -5.3374
       123                         -0.1948503              -5.3021
       124                         -0.1927140              -5.2440
       125                         -0.1907270              -5.1899
       ...                                ...                  ...
       220                          0.7382057              20.0876
      -------------------------------------------------------------
                  HL-Gap            0.0222104 Eh            0.6044 eV

     #   Z          covCN         q      C6AA      α(0)
     1   6 C        3.758    -0.110    22.655     6.786
     2   6 C        2.966     0.015    27.683     8.630
     3   6 C        2.928    -0.043    29.061     8.841
     4   6 C        2.908    -0.039    28.974     8.826
     5   6 C        3.081     0.057    26.645     8.462
     6   6 C        3.063    -0.014    28.294     8.723
     7   6 C        2.917    -0.041    29.014     8.833
     8   6 C        3.064    -0.014    28.297     8.723
     9   6 C        2.916    -0.041    29.020     8.834
    10   6 C        2.966     0.016    27.655     8.626
    11   6 C        3.758    -0.112    22.684     6.790
    12   6 C        2.928    -0.043    29.069     8.842
    13   6 C        2.908    -0.045    29.115     8.848
    14   6 C        3.080     0.048    26.840     8.494
    15   7 N        2.802    -0.020    21.625     6.907
    16   6 C        2.910     0.046    26.960     8.514
    17   6 C        2.918    -0.044    29.096     8.845
    18   6 C        2.916    -0.046    29.152     8.854
    19   6 C        2.913    -0.033    28.811     8.802
    20   6 C        2.923    -0.043    29.080     8.843
    21   6 C        2.967    -0.030    28.736     8.793
    22   6 C        3.099     0.201    23.627     7.966
    23   7 N        2.030    -0.231    26.809     7.680
    24   7 N        2.027    -0.219    26.548     7.642
    25   6 C        3.099     0.198    23.698     7.978
    26   6 C        2.966    -0.030    28.734     8.793
    27   6 C        2.922    -0.041    29.023     8.835
    28   6 C        2.913    -0.032    28.808     8.801
    29   6 C        2.916    -0.047    29.168     8.856
    30   6 C        2.918    -0.044    29.087     8.844
    31   6 C        2.911     0.047    26.949     8.512
    32   7 N        2.803    -0.007    21.388     6.869
    33   6 C        3.081     0.049    26.817     8.490
    34   6 C        2.908    -0.042    29.055     8.839
    35   6 C        2.927    -0.042    29.047     8.839
    36   6 C        2.966     0.020    27.557     8.611
    37   6 C        3.758    -0.114    22.723     6.796
    38   6 C        2.916    -0.039    28.962     8.825
    39   6 C        3.064    -0.009    28.179     8.705
    40   6 C        3.064    -0.009    28.185     8.706
    41   6 C        2.916    -0.039    28.958     8.824
    42   6 C        2.966     0.019    27.581     8.614
    43   6 C        3.758    -0.112    22.701     6.793
    44   6 C        2.928    -0.041    29.018     8.834
    45   6 C        2.908    -0.037    28.912     8.817
    46   6 C        3.083     0.058    26.614     8.457
    47   8 O        1.713    -0.290    18.812     5.856
    48   1 H        0.925     0.049     2.333     2.389
    49   1 H        0.924     0.052     2.291     2.367
    50   1 H        0.925     0.050     2.314     2.379
    51   1 H        0.926     0.035     2.511     2.478
    52   1 H        0.926     0.024     2.680     2.560
    53   1 H        0.926     0.041     2.438     2.441
    54   1 H        0.926     0.041     2.441     2.443
    55   1 H        0.925     0.048     2.350     2.397
    56   1 H        0.925     0.053     2.283     2.363
    57   1 H        0.925     0.054     2.277     2.360
    58   1 H        0.926     0.040     2.449     2.447
    59   1 H        0.926     0.034     2.532     2.488
    60   1 H        0.926     0.035     2.512     2.479
    61   1 H        0.926     0.034     2.526     2.485
    62   1 H        0.926     0.035     2.512     2.478
    63   1 H        0.926     0.042     2.419     2.432
    64   1 H        0.926     0.031     2.577     2.510
    65   1 H        0.926     0.034     2.524     2.484
    66   1 H        0.926     0.036     2.509     2.477
    67   1 H        0.926     0.038     2.472     2.459
    68   1 H        0.926     0.037     2.487     2.466
    69   1 H        0.926     0.044     2.396     2.421
    70   1 H        0.925     0.055     2.260     2.351
    71   1 H        0.924     0.058     2.228     2.334
    72   1 H        0.925     0.051     2.306     2.375
    73   1 H        0.926     0.047     2.364     2.404
    74   1 H        0.926     0.046     2.365     2.405
    75   1 H        0.924     0.055     2.253     2.347
    76   1 H        0.925     0.054     2.271     2.357
    77   1 H        0.925     0.051     2.310     2.377
    78   1 H        0.926     0.039     2.456     2.451
    79   1 H        0.926     0.025     2.661     2.551

molecular dipole:
                 x           y           z       tot (Debye)
 q only:        0.846       1.040       0.829
   full:        0.248       1.230       0.810       3.796

 projected vibrational frequencies (cm⁻¹)
eigval :       -0.00    -0.00    -0.00    -0.00     0.00     0.00
eigval :       10.80    13.29    16.68    22.78    26.24    42.66
eigval :       46.61    49.33    57.97    62.63    65.36    66.84
eigval :       83.55    86.02    89.77    93.34    94.94    99.44
eigval :      104.18   112.79   131.52   134.72   147.18   159.17
eigval :      181.87   196.98   216.78   220.29   222.26   244.03
eigval :      260.69   273.68   279.29   298.46   302.73   312.47
eigval :      314.67   316.42   333.24   357.85   361.81   386.63
eigval :      389.32   392.10   394.90   402.63   413.32   417.32
eigval :      419.08   420.30   435.37   446.71   457.08   461.34
eigval :      486.55   488.09   490.54   521.93   553.90   555.62
eigval :      571.56   574.01   574.28   575.03   578.34   581.97
eigval :      582.19   617.22   618.32   622.27   634.80   657.11
eigval :      666.01   673.20   673.45   676.67   679.59   703.49
eigval :      707.13   707.74   735.98   739.82   749.60   754.00
eigval :      796.22   796.90   810.83   811.23   812.44   813.31
eigval :      846.94   853.35   865.98   868.06   869.07   873.11
eigval :      893.80   894.85   898.33   904.01   906.61   909.37
eigval :      910.89   911.12   912.70   913.06   913.56   915.64
eigval :      924.56   925.03   951.47   951.91  1007.92  1008.36
eigval :     1012.06  1015.04  1016.72  1022.73  1025.28  1027.10
eigval :     1027.99  1030.40  1036.51  1036.70  1069.90  1076.24
eigval :     1098.88  1107.78  1139.09  1141.65  1145.05  1147.93
eigval :     1166.58  1167.85  1168.70  1172.73  1185.75  1188.85
eigval :     1201.01  1201.61  1202.94  1215.65  1231.02  1233.63
eigval :     1243.64  1246.05  1249.52  1250.23  1271.16  1278.49
eigval :     1281.38  1282.38  1287.61  1327.14  1331.33  1333.30
eigval :     1340.14  1351.39  1357.02  1362.35  1368.66  1369.63
eigval :     1389.90  1396.87  1397.66  1399.33  1399.76  1399.82
eigval :     1412.55  1412.78  1415.28  1420.37  1434.38  1436.09
eigval :     1455.22  1458.16  1466.23  1468.69  1470.64  1472.00
eigval :     1472.09  1477.60  1479.31  1481.35  1483.84  1484.28
eigval :     1493.31  1494.90  1518.60  1550.03  1557.86  1559.12
eigval :     1569.14  1571.77  1573.12  1574.07  1578.68  1593.38
eigval :     1602.01  2988.50  2995.15  2997.59  3003.22  3016.85
eigval :     3020.57  3024.92  3027.30  3043.58  3047.15  3047.95
eigval :     3048.37  3071.03  3071.92  3074.24  3074.44  3076.25
eigval :     3076.74  3077.73  3077.98  3080.61  3082.03  3083.77
eigval :     3084.05  3086.13  3087.22  3089.33  3089.84  3090.21
eigval :     3095.64  3099.14  3102.22

   temp. (K)  partition function   enthalpy   heat capacity  entropy
                                   cal/mol     cal/K/mol   cal/K/mol   J/K/mol
 298.15  VIB  0.660E+19            23717.674    145.322    150.254
         ROT  0.602E+08              888.752      2.981     38.578
         INT  0.397E+27            24606.427    148.303    188.833
         TR   0.145E+29             1481.254      4.968     45.081
         TOT                       26087.6804   153.2715   233.9140   978.6961

       T/K    H(0)-H(T)+PV         H(T)/Eh          T*S/Eh         G(T)/Eh
   ------------------------------------------------------------------------
    298.15    0.415734E-01    0.650220E+00    0.111140E+00    0.539080E+00
   ------------------------------------------------------------------------

         :::::::::::::::::::::::::::::::::::::::::::::::::::::
         ::                  THERMODYNAMIC                  ::
         :::::::::::::::::::::::::::::::::::::::::::::::::::::
         :: total free energy        -121.551708677001 Eh   ::
         ::.................................................::
         :: total energy             -122.090788821876 Eh   ::
         :: zero point energy           0.608646864198 Eh   ::
         :: G(RRHO) w/o ZPVE           -0.069566719323 Eh   ::
         :: G(RRHO) contrib.            0.539080144875 Eh   ::
         :::::::::::::::::::::::::::::::::::::::::::::::::::::

           -------------------------------------------------
          | TOTAL ENERGY             -122.090788821876 Eh   |
          | TOTAL ENTHALPY           -121.440568592640 Eh   |
          | TOTAL FREE ENERGY        -121.551708677001 Eh   |
          | GRADIENT NORM               0.000186896632 Eh/α |
          | HOMO-LUMO GAP               0.604375151857 eV   |
           -------------------------------------------------

 * finished run on 2025/08/25 at 07:24:40.792
