   * xtb version 6.7.1 (edcfbbe) compiled by 'albert@albert-system' on 2024-07-22

   ID    Z sym.   atoms
    1    6 C      1-14, 16-22, 25-31, 33-46
    2    7 N      15, 23, 24, 32
    3    8 O      47
    4    1 H      48-79

          program call               : xtb data2507/toluene/3,6-MeCzOXD/3,6-MeCzOXD.xyz --gfn 2 --gbsa toluene --ohess vtight --parallel 40 --molden --ceasefiles --namespace data2507/toluene/3,6-MeCzOXD/3,6-MeCzOXD_toluene_S0_preOpt
      * Solvation model:               GBSA
        Solvent                        toluene
        Solvent mass                       9.2140E+01 g/mol
          :  Hamiltonian                  GFN2-xTB          :
 * total energy  :  -122.1506312 Eh     change       -0.1746216E-08 Eh
 * total energy  :  -122.1665602 Eh     change       -0.1592907E-01 Eh
 * total energy  :  -122.1701065 Eh     change       -0.3546225E-02 Eh
 * total energy  :  -122.1708451 Eh     change       -0.7386529E-03 Eh
 * total energy  :  -122.1714283 Eh     change       -0.5831943E-03 Eh
 * total energy  :  -122.1717839 Eh     change       -0.3556045E-03 Eh
 * total energy  :  -122.1721087 Eh     change       -0.3248228E-03 Eh
 * total energy  :  -122.1722907 Eh     change       -0.1819632E-03 Eh
 * total energy  :  -122.1723963 Eh     change       -0.1055912E-03 Eh
 * total energy  :  -122.1724810 Eh     change       -0.8473210E-04 Eh
 * total energy  :  -122.1739151 Eh     change       -0.3707322E-06 Eh
 * total energy  :  -122.1739155 Eh     change       -0.4321287E-06 Eh
 * total energy  :  -122.1739160 Eh     change       -0.5140154E-06 Eh
 * total energy  :  -122.1739165 Eh     change       -0.4880127E-06 Eh
 * total energy  :  -122.1739169 Eh     change       -0.3730934E-06 Eh
 * total energy  :  -122.1739171 Eh     change       -0.2695988E-06 Eh
 * total energy  :  -122.1739174 Eh     change       -0.2704557E-06 Eh
 * total energy  :  -122.1739176 Eh     change       -0.1992044E-06 Eh
 * total energy  :  -122.1739176 Eh     change       -0.3794341E-08 Eh
   *** GEOMETRY OPTIMIZATION CONVERGED AFTER 94 ITERATIONS ***

 final structure:
================
79
 xtb: 6.7.1 (edcfbbe)
C           -6.55392323393223        0.02647646185260        3.63711459626545
C           -5.71704015625592       -0.27140998292365        2.42786098259570
C           -5.40037219249291       -1.60010287081460        2.12222722588652
C           -4.64154605704140       -1.94298366421054        1.02085933049462
C           -4.19672030749934       -0.91932845367115        0.19737435234450
C           -4.48849055561547        0.42923755834786        0.49577013538849
C           -5.25125776172752        0.74580791312421        1.61324974968787
C           -3.85292666923656        1.21989087725241       -0.52247669206532
C           -3.78697165231769        2.58598938863860       -0.77040266178734
C           -3.07949226395581        3.04505222004963       -1.86779007013594
C           -2.96099301905882        4.51273006854269       -2.15452753509734
C           -2.46008332366078        2.12621286596169       -2.72294318486750
C           -2.51493441900185        0.76400926298046       -2.50493508680570
C           -3.19959928170242        0.31281432137171       -1.38560911369179
N           -3.41060588954033       -0.97807590921759       -0.93913935398683
C           -2.92504628855834       -2.14565990019517       -1.53946784785677
C           -3.82150912936663       -3.14241183493495       -1.91590334674943
C           -3.37762888090959       -4.28634453183772       -2.55143225643698
C           -2.02906760782648       -4.44510341270800       -2.83941044713040
C           -1.12659103999731       -3.47094784616982       -2.46399169616683
C           -1.55639918135302       -2.32383873800929       -1.79436343925461
C           -0.55210895052981       -1.37524036602551       -1.36156126727968
N            0.65767408365480       -1.28302579802671       -1.83494994011741
N            1.28161312654918       -0.31535684165182       -1.14647419969137
C            0.43400647913274        0.14337248172690       -0.27385685529909
C            0.61285179232136        1.23209800593241        0.66351367976259
C           -0.50291713672585        1.97065879918874        1.05587463982081
C           -0.36186350434429        3.07537806489338        1.87200294301320
C            0.89919882804410        3.45273448208888        2.30985742581164
C            2.00965271554553        2.70844426156458        1.95775152650994
C            1.88454767626842        1.58640550956470        1.14211816606847
N            3.00884494546533        0.81359782030977        0.85059244368508
C            4.19630536446139        1.27834326824365        0.31392755882506
C            4.55066856236293        2.55938061286027       -0.08184397583546
C            5.81307076479494        2.74661257034981       -0.60976057707286
C            6.72328235110597        1.69478841087351       -0.76015790397360
C            8.07972942564154        1.97117680874898       -1.33986803154907
C            6.35405738369332        0.41491406822049       -0.38373987329033
C            5.09063866436024        0.19880433084339        0.15169306213198
C            4.40421787098392       -0.97439770355633        0.61851517705954
C            4.76621068137311       -2.31090883555159        0.72574739459716
C            3.86499706030015       -3.22059886196602        1.25090115573547
C            4.21082039585590       -4.67661585939460        1.36473761364981
C            2.61288880727239       -2.77485639613889        1.68757500508844
C            2.23105686614942       -1.45099021007462        1.59751212411015
C            3.12393165627197       -0.55125518986509        1.03462805371656
O           -0.75769365983924       -0.49016466817061       -0.36197249003574
H           -7.54458941826688       -0.41490931689113        3.52952829193188
H           -6.66657534973956        1.09842227637405        3.77790685572032
H           -6.09705540691493       -0.39680038059181        4.53103849533261
H           -5.76110952474117       -2.38224575685400        2.77500996820989
H           -4.39833521298795       -2.97469077969786        0.81385964936093
H           -5.47499853944686        1.77771380399679        1.84106096985506
H           -4.28341872295131        3.28006206871180       -0.10815329440808
H           -1.92490859477411        4.83428223872471       -2.04558071241205
H           -3.27046978508293        4.72834706023672       -3.17628270261668
H           -3.57702500289405        5.09331343896914       -1.47277691127337
H           -1.92104609908150        2.49740630028434       -3.58317061640015
H           -2.03327127107370        0.07554027581328       -3.18578424569320
H           -4.87308207470982       -2.99664258743041       -1.71828360840719
H           -4.08668233977010       -5.04833408198084       -2.83709874643419
H           -1.68353173498476       -5.33004316580445       -3.35050403120629
H           -0.07143465326953       -3.57485140065242       -2.66291061627551
H           -1.47657678077944        1.68137909415900        0.68953342067688
H           -1.23222786649909        3.64344789950337        2.16062912960128
H            1.01563799070228        4.31920763238169        2.94300381909894
H            2.98788641335409        2.97586275455104        2.32831134726689
H            3.86068254014054        3.38516077963926        0.00720654904783
H            6.11041226496822        3.73795523399846       -0.92138329769212
H            8.68312386390665        1.06742472693778       -1.36402958830293
H            8.60096148709886        2.72286269568947       -0.74798406364935
H            7.98673762135995        2.35353642999667       -2.35616444324634
H            7.03793601843912       -0.41199964466728       -0.50740390294081
H            5.74479700672236       -2.63439742807394        0.40246101524276
H            4.07498914845713       -5.02315097792056        2.38855308605612
H            5.24167769779126       -4.85388375380562        1.06955635698983
H            3.55996916621858       -5.27017607323543        0.72259187456822
H            1.92438030752521       -3.49246049667639        2.11257750967111
H            1.26266551215235       -1.13265142409116        1.95985794621974

          :  Hamiltonian                  GFN2-xTB          :
         :: gradient norm              0.000049219510 Eh/a0 ::
         :: HOMO-LUMO gap              1.970576066748 eV    ::
         :: SCC energy              -124.314881135297 Eh    ::
         :: -> dispersion             -0.112425104286 Eh    ::
         :: -> Gsolv                  -0.050986728939 Eh    ::
         :: repulsion energy           2.140963519308 Eh    ::

    * Orbital Energies and Occupations

         #    Occupation            Energy/Eh            Energy/eV
      -------------------------------------------------------------
         1        2.0000           -0.7718878             -21.0041
       ...           ...                  ...                  ...
       101        2.0000           -0.4188531             -11.3976
       102        2.0000           -0.4183022             -11.3826
       103        2.0000           -0.4166965             -11.3389
       104        2.0000           -0.4155287             -11.3071
       105        2.0000           -0.4125181             -11.2252
       106        2.0000           -0.4024114             -10.9502
       107        2.0000           -0.4014026             -10.9227
       108        2.0000           -0.3947939             -10.7429
       109        2.0000           -0.3921628             -10.6713
       110        2.0000           -0.3793053             -10.3214
       111        2.0000           -0.3723517             -10.1322
       112        2.0000           -0.3634358              -9.8896
       113        2.0000           -0.3571071              -9.7174 (HOMO)
       114                         -0.2846898              -7.7468 (LUMO)
       115                         -0.2629633              -7.1556
       116                         -0.2496115              -6.7923
       117                         -0.2451313              -6.6704
       118                         -0.2432895              -6.6202
       119                         -0.2383821              -6.4867
       120                         -0.2224147              -6.0522
       121                         -0.2156729              -5.8688
       122                         -0.1988912              -5.4121
       123                         -0.1942962              -5.2871
       124                         -0.1913720              -5.2075
       ...                                ...                  ...
       220                          0.7456685              20.2907
      -------------------------------------------------------------
                  HL-Gap            0.0724173 Eh            1.9706 eV

     #   Z          covCN         q      C6AA      α(0)
     1   6 C        3.758    -0.109    22.637     6.783
     2   6 C        2.966     0.007    27.866     8.659
     3   6 C        2.930    -0.044    29.094     8.846
     4   6 C        2.908    -0.054    29.341     8.882
     5   6 C        3.076     0.045    26.915     8.506
     6   6 C        3.065    -0.020    28.434     8.744
     7   6 C        2.917    -0.045    29.121     8.849
     8   6 C        3.065    -0.020    28.444     8.745
     9   6 C        2.917    -0.046    29.142     8.852
    10   6 C        2.965     0.006    27.890     8.662
    11   6 C        3.758    -0.109    22.630     6.782
    12   6 C        2.929    -0.045    29.122     8.850
    13   6 C        2.908    -0.052    29.303     8.876
    14   6 C        3.075     0.048    26.840     8.494
    15   7 N        2.801    -0.053    22.260     7.007
    16   6 C        2.912     0.068    26.469     8.436
    17   6 C        2.922    -0.041    29.027     8.835
    18   6 C        2.918    -0.023    28.578     8.766
    19   6 C        2.917    -0.028    28.704     8.786
    20   6 C        2.927    -0.029    28.724     8.789
    21   6 C        2.974    -0.022    28.547     8.764
    22   6 C        3.174     0.230    22.854     7.808
    23   7 N        2.050    -0.226    26.665     7.660
    24   7 N        2.046    -0.215    26.410     7.623
    25   6 C        3.176     0.233    22.803     7.798
    26   6 C        2.974    -0.023    28.578     8.769
    27   6 C        2.926    -0.028    28.703     8.786
    28   6 C        2.917    -0.031    28.771     8.796
    29   6 C        2.918    -0.024    28.596     8.769
    30   6 C        2.922    -0.042    29.053     8.839
    31   6 C        2.913     0.070    26.430     8.430
    32   7 N        2.802    -0.048    22.161     6.992
    33   6 C        3.077     0.047    26.871     8.499
    34   6 C        2.908    -0.054    29.332     8.881
    35   6 C        2.929    -0.045    29.108     8.848
    36   6 C        2.966     0.007    27.869     8.659
    37   6 C        3.758    -0.109    22.643     6.784
    38   6 C        2.918    -0.044    29.102     8.846
    39   6 C        3.066    -0.017    28.358     8.732
    40   6 C        3.066    -0.016    28.340     8.729
    41   6 C        2.918    -0.045    29.107     8.847
    42   6 C        2.966     0.006    27.893     8.663
    43   6 C        3.758    -0.109    22.628     6.782
    44   6 C        2.929    -0.046    29.143     8.853
    45   6 C        2.909    -0.052    29.281     8.873
    46   6 C        3.076     0.053    26.737     8.478
    47   8 O        1.723    -0.225    17.722     5.684
    48   1 H        0.925     0.047     2.353     2.399
    49   1 H        0.925     0.043     2.412     2.429
    50   1 H        0.925     0.046     2.370     2.407
    51   1 H        0.926     0.034     2.533     2.489
    52   1 H        0.926     0.027     2.633     2.537
    53   1 H        0.926     0.033     2.541     2.493
    54   1 H        0.926     0.035     2.518     2.482
    55   1 H        0.924     0.046     2.372     2.408
    56   1 H        0.925     0.046     2.365     2.405
    57   1 H        0.925     0.045     2.384     2.414
    58   1 H        0.926     0.028     2.610     2.526
    59   1 H        0.925     0.011     2.869     2.649
    60   1 H        0.926     0.054     2.264     2.353
    61   1 H        0.926     0.058     2.225     2.333
    62   1 H        0.926     0.057     2.235     2.338
    63   1 H        0.926     0.058     2.220     2.330
    64   1 H        0.926     0.046     2.364     2.404
    65   1 H        0.926     0.054     2.270     2.356
    66   1 H        0.926     0.057     2.235     2.338
    67   1 H        0.926     0.056     2.249     2.345
    68   1 H        0.926     0.028     2.620     2.531
    69   1 H        0.926     0.034     2.524     2.484
    70   1 H        0.925     0.043     2.415     2.430
    71   1 H        0.925     0.047     2.359     2.402
    72   1 H        0.925     0.047     2.362     2.404
    73   1 H        0.926     0.033     2.538     2.491
    74   1 H        0.926     0.035     2.512     2.479
    75   1 H        0.925     0.046     2.371     2.408
    76   1 H        0.925     0.044     2.392     2.419
    77   1 H        0.925     0.046     2.373     2.409
    78   1 H        0.925     0.027     2.632     2.537
    79   1 H        0.925     0.006     2.964     2.692

molecular dipole:
                 x           y           z       tot (Debye)
 q only:       -0.787       0.173       0.626
   full:       -1.359       0.191       0.805       4.043

 projected vibrational frequencies (cm⁻¹)
eigval :       -0.00    -0.00    -0.00     0.00     0.00     0.00
eigval :        3.12    12.51    15.56    20.48    30.40    45.44
eigval :       54.75    55.68    57.38    58.47    60.55    64.41
eigval :       72.58    82.37    90.78    94.11    98.62   101.19
eigval :      104.30   114.25   131.23   139.20   152.75   168.90
eigval :      176.54   205.15   224.99   225.88   228.05   241.39
eigval :      270.76   278.32   283.14   300.25   302.61   321.36
eigval :      323.53   334.44   339.69   356.56   360.77   381.58
eigval :      392.71   394.78   397.67   404.06   423.57   427.49
eigval :      429.89   431.87   442.64   460.07   464.10   478.23
eigval :      490.02   501.36   503.93   528.17   544.58   548.40
eigval :      574.06   574.47   574.75   577.58   581.90   582.29
eigval :      623.81   623.99   632.53   644.97   670.85   670.90
eigval :      679.09   681.22   687.74   706.25   707.50   708.81
eigval :      720.29   728.27   738.20   741.76   785.85   786.95
eigval :      802.58   803.09   810.26   812.89   814.04   817.11
eigval :      872.73   873.13   876.19   880.27   886.39   890.26
eigval :      911.52   911.59   911.88   915.24   916.10   916.52
eigval :      920.03   921.88   926.48   927.66   930.15   930.27
eigval :      953.20   954.57   973.10   974.55  1009.37  1009.99
eigval :     1016.31  1016.66  1031.40  1032.71  1033.27  1036.23
eigval :     1039.76  1040.21  1048.45  1068.72  1087.19  1092.95
eigval :     1121.61  1126.02  1144.43  1149.99  1155.94  1156.40
eigval :     1172.86  1173.38  1174.18  1175.95  1179.56  1199.49
eigval :     1200.77  1202.40  1202.60  1231.21  1244.26  1248.87
eigval :     1250.57  1256.15  1257.17  1273.31  1292.15  1294.20
eigval :     1304.78  1308.43  1308.94  1315.83  1321.58  1350.72
eigval :     1352.15  1360.50  1362.11  1366.38  1368.27  1398.86
eigval :     1401.50  1403.25  1403.51  1413.84  1414.42  1421.91
eigval :     1428.85  1436.30  1439.34  1460.86  1472.55  1474.62
eigval :     1475.49  1476.06  1476.78  1477.30  1478.37  1478.95
eigval :     1479.70  1493.31  1493.69  1502.31  1502.50  1527.46
eigval :     1542.31  1561.15  1562.62  1571.57  1573.19  1582.79
eigval :     1583.75  1584.65  1585.63  1607.07  1607.66  1618.28
eigval :     1619.40  2996.65  2997.87  2999.04  3000.18  3013.59
eigval :     3013.65  3013.88  3016.30  3043.32  3043.71  3043.85
eigval :     3044.58  3051.52  3061.13  3069.07  3070.83  3071.93
eigval :     3076.41  3077.29  3078.06  3079.87  3080.82  3085.15
eigval :     3085.18  3086.72  3087.32  3092.57  3094.90  3096.85
eigval :     3101.52  3106.49  3110.41

   temp. (K)  partition function   enthalpy   heat capacity  entropy
                                   cal/mol     cal/K/mol   cal/K/mol   J/K/mol
 298.15  VIB  0.155E+20            23403.981    143.297    149.917
         ROT  0.600E+08              888.752      2.981     38.574
         INT  0.932E+27            24292.734    146.278    188.491
         TR   0.145E+29             1481.254      4.968     45.081
         TOT                       25773.9876   151.2463   233.5723   977.2667

       T/K    H(0)-H(T)+PV         H(T)/Eh          T*S/Eh         G(T)/Eh
   ------------------------------------------------------------------------
    298.15    0.410735E-01    0.654753E+00    0.110978E+00    0.543775E+00
   ------------------------------------------------------------------------

         :::::::::::::::::::::::::::::::::::::::::::::::::::::
         ::                  THERMODYNAMIC                  ::
         :::::::::::::::::::::::::::::::::::::::::::::::::::::
         :: total free energy        -121.630142470826 Eh   ::
         ::.................................................::
         :: total energy             -122.173917611752 Eh   ::
         :: zero point energy           0.613679433823 Eh   ::
         :: G(RRHO) w/o ZPVE           -0.069904292897 Eh   ::
         :: G(RRHO) contrib.            0.543775140926 Eh   ::
         :::::::::::::::::::::::::::::::::::::::::::::::::::::

           -------------------------------------------------
          | TOTAL ENERGY             -122.173917611752 Eh   |
          | TOTAL ENTHALPY           -121.519164714238 Eh   |
          | TOTAL FREE ENERGY        -121.630142470826 Eh   |
          | GRADIENT NORM               0.000049221263 Eh/α |
          | HOMO-LUMO GAP               1.970575886943 eV   |
           -------------------------------------------------

 * finished run on 2025/08/25 at 07:12:36.439
