   * xtb version 6.7.1 (edcfbbe) compiled by 'albert@albert-system' on 2024-07-22

   ID    Z sym.   atoms
    1    6 C      1-14, 16-22, 25-31, 33-46
    2    7 N      15, 23, 24, 32
    3    8 O      47
    4    1 H      48-79

          program call               : xtb data2507/toluene/3,6-MeCzOXD/3,6-MeCzOXD_toluene_S0_crest.xyz --gfn 2 --gbsa toluene --ohess vtight --parallel 40 --molden --ceasefiles --namespace data2507/toluene/3,6-MeCzOXD/3,6-MeCzOXD_toluene_S0_finalOpt
      * Solvation model:               GBSA
        Solvent                        toluene
        Solvent mass                       9.2140E+01 g/mol
          :  Hamiltonian                  GFN2-xTB          :
 * total energy  :  -122.1732737 Eh     change       -0.3816481E-08 Eh
 * total energy  :  -122.1733494 Eh     change       -0.7565867E-04 Eh
 * total energy  :  -122.1734257 Eh     change       -0.7632080E-04 Eh
 * total energy  :  -122.1734629 Eh     change       -0.3714723E-04 Eh
 * total energy  :  -122.1735063 Eh     change       -0.4341483E-04 Eh
 * total energy  :  -122.1735420 Eh     change       -0.3571305E-04 Eh
 * total energy  :  -122.1735767 Eh     change       -0.3471461E-04 Eh
 * total energy  :  -122.1736060 Eh     change       -0.2928137E-04 Eh
 * total energy  :  -122.1736477 Eh     change       -0.4176087E-04 Eh
 * total energy  :  -122.1736864 Eh     change       -0.3862369E-04 Eh
 * total energy  :  -122.1739046 Eh     change       -0.7501749E-06 Eh
 * total energy  :  -122.1739053 Eh     change       -0.6578664E-06 Eh
 * total energy  :  -122.1739058 Eh     change       -0.5299821E-06 Eh
 * total energy  :  -122.1739062 Eh     change       -0.3940943E-06 Eh
 * total energy  :  -122.1739065 Eh     change       -0.2748591E-06 Eh
 * total energy  :  -122.1739067 Eh     change       -0.2392987E-06 Eh
 * total energy  :  -122.1739070 Eh     change       -0.2469026E-06 Eh
 * total energy  :  -122.1739072 Eh     change       -0.2600966E-06 Eh
 * total energy  :  -122.1739073 Eh     change       -0.3991801E-08 Eh
   *** GEOMETRY OPTIMIZATION CONVERGED AFTER 44 ITERATIONS ***

 final structure:
================
79
 xtb: 6.7.1 (edcfbbe)
C           -1.01591145534133        0.51824821940741        4.75756478384529
C           -1.66731593156967        0.12910072160748        3.46294361315264
C           -1.39286694313057       -1.12628176896411        2.90788891703465
C           -1.94949478188389       -1.54325080996178        1.71557908466055
C           -2.80550879957048       -0.66907747419116        1.06176589515133
C           -3.11686671668417        0.59231301331794        1.61399133686357
C           -2.53919537978993        0.98628422368719        2.81465357244066
C           -4.03847208087862        1.21781764448993        0.70545606299085
C           -4.67461804069513        2.45321063972536        0.68823242326057
C           -5.50683068880565        2.77451213213231       -0.37005631969720
C           -6.21495071007220        4.09643872662711       -0.42419861968067
C           -5.68835611765054        1.85551550144365       -1.41014846416204
C           -5.06774981963533        0.62204641842595       -1.42045459146860
C           -4.24646263001708        0.30260556825219       -0.34960429961159
N           -3.49359151578436       -0.83473048557230       -0.12487012702631
C           -3.35589184297299       -1.91499057374974       -1.00772560131348
C           -4.47549820005066       -2.66567987100069       -1.35159644800989
C           -4.35849112398863       -3.76019269504600       -2.18800399789022
C           -3.11474567192087       -4.13242113105772       -2.67914340857874
C           -1.99671869727806       -3.38882812740165       -2.35955422238703
C           -2.10416909422930       -2.26311473824529       -1.54128662828193
C           -0.91891211113886       -1.46730435668453       -1.30480728637699
N            0.31172965635886       -1.82537751196134       -1.54235495268956
N            1.09851364687984       -0.79279930289012       -1.20495599289144
C            0.32266076923550        0.16036582970413       -0.77545549160643
C            0.66434870611617        1.48902574693692       -0.32085729844565
C           -0.35194475283853        2.44304319409083       -0.23244852834299
C           -0.06772080234181        3.74683990870308        0.11746105861941
C            1.24269957149365        4.11936086361061        0.38156822162944
C            2.25510532137024        3.18047473114084        0.32514660743488
C            1.98389042478393        1.85558086374155       -0.01012146890145
N            3.02223522800081        0.92375988835603       -0.00413594736728
C            4.20664294094562        1.03693164433025       -0.70899608339695
C            4.61672679462023        2.01577720129837       -1.60165273599688
C            5.85752793387523        1.87326413339929       -2.19126527428867
C            6.69057230654594        0.78191534704972       -1.92215019261164
C            8.02904667230959        0.69292819807819       -2.59541068636054
C            6.26542662312617       -0.20095786936466       -1.04471538511294
C            5.02251002632411       -0.08176620088078       -0.43612554253205
C            4.29153460512736       -0.90313940157416        0.48950777315208
C            4.58121343683796       -2.09669733453613        1.13741045358423
C            3.65799421252792       -2.63401960525351        2.01734178452984
C            3.92460832720547       -3.93210548935433        2.72234067407655
C            2.45679095501485       -1.95713385135337        2.25228014883882
C            2.14453234967963       -0.76820582895018        1.62392641959195
C            3.06187586751729       -0.25061468947447        0.72227697430854
O           -0.97790851808957       -0.20596052182739       -0.82972711452679
H            0.06826743960804        0.44304886370006        4.67757679889987
H           -1.33665166513482       -0.14832023991490        5.55815957122155
H           -1.27455566308221        1.53795738166612        5.03126090553175
H           -0.72063271975821       -1.78937964978152        3.43321048924393
H           -1.71613084203761       -2.51573831238062        1.30379338323583
H           -2.76896098128879        1.95457776328887        3.23456085812632
H           -4.51451019100985        3.15486852334957        1.49388323497205
H           -7.29452003094740        3.94796645320087       -0.43247757299783
H           -5.95668262953804        4.71128156154627        0.43422979266546
H           -5.94713359916277        4.63544107239120       -1.33256977247092
H           -6.33503740882343        2.12509044292154       -2.23299731944499
H           -5.21285031007390       -0.06704610823676       -2.23936519477536
H           -5.43465041917371       -2.38594748338285       -0.94159267240552
H           -5.23655002441128       -4.33278211505906       -2.44514812993659
H           -3.02071607953975       -4.99721558033196       -3.31723654979836
H           -1.02126051049449       -3.64571018310449       -2.74193873073075
H           -1.36676819235329        2.14752501233316       -0.45349958292096
H           -0.86483713664274        4.47134464232424        0.17808486529052
H            1.47302112156270        5.13968836342820        0.64821135008300
H            3.27181063436973        3.45696407784745        0.56161898285945
H            3.98500334912465        2.85938519403156       -1.83778106403446
H            6.19796207573376        2.62610272615106       -2.88814053181164
H            7.91258867427358        0.71893311105354       -3.67836742424426
H            8.54010762463024       -0.22686278896610       -2.32286209312184
H            8.65594561340356        1.53679436060257       -2.30785288079085
H            6.88981137316680       -1.05762913079236       -0.83697438962616
H            5.52066518975760       -2.59815924530776        0.95578915201952
H            4.94932618618512       -4.25714572911674        2.56177560007824
H            3.25487671418196       -4.70723463945020        2.34884542138624
H            3.75254070944583       -3.83043261813310        3.79302441549043
H            1.75219647918001       -2.38393339773974        2.95209431132372
H            1.21028153326987       -0.26391566671172        1.83071254287501

          :  Hamiltonian                  GFN2-xTB          :
         :: gradient norm              0.000045046435 Eh/a0 ::
         :: HOMO-LUMO gap              1.893262390003 eV    ::
         :: SCC energy              -124.314702014020 Eh    ::
         :: -> dispersion             -0.114658184844 Eh    ::
         :: -> Gsolv                  -0.049213954855 Eh    ::
         :: repulsion energy           2.140794763301 Eh    ::

    * Orbital Energies and Occupations

         #    Occupation            Energy/Eh            Energy/eV
      -------------------------------------------------------------
         1        2.0000           -0.7714554             -20.9924
       ...           ...                  ...                  ...
       101        2.0000           -0.4183796             -11.3847
       102        2.0000           -0.4172752             -11.3546
       103        2.0000           -0.4155436             -11.3075
       104        2.0000           -0.4141987             -11.2709
       105        2.0000           -0.4112346             -11.1903
       106        2.0000           -0.4010117             -10.9121
       107        2.0000           -0.4008366             -10.9073
       108        2.0000           -0.3941776             -10.7261
       109        2.0000           -0.3903804             -10.6228
       110        2.0000           -0.3785239             -10.3002
       111        2.0000           -0.3707885             -10.0897
       112        2.0000           -0.3629512              -9.8764
       113        2.0000           -0.3558773              -9.6839 (HOMO)
       114                         -0.2863012              -7.7907 (LUMO)
       115                         -0.2643107              -7.1923
       116                         -0.2489563              -6.7744
       117                         -0.2442224              -6.6456
       118                         -0.2433462              -6.6218
       119                         -0.2372542              -6.4560
       120                         -0.2216336              -6.0310
       121                         -0.2141302              -5.8268
       122                         -0.1957481              -5.3266
       123                         -0.1941164              -5.2822
       124                         -0.1894329              -5.1547
       ...                                ...                  ...
       220                          0.7475089              20.3408
      -------------------------------------------------------------
                  HL-Gap            0.0695761 Eh            1.8933 eV

     #   Z          covCN         q      C6AA      α(0)
     1   6 C        3.758    -0.107    22.595     6.777
     2   6 C        2.966     0.004    27.931     8.669
     3   6 C        2.930    -0.044    29.091     8.845
     4   6 C        2.908    -0.052    29.299     8.876
     5   6 C        3.079     0.050    26.797     8.487
     6   6 C        3.065    -0.020    28.428     8.743
     7   6 C        2.917    -0.046    29.148     8.853
     8   6 C        3.066    -0.020    28.432     8.744
     9   6 C        2.917    -0.045    29.127     8.850
    10   6 C        2.965     0.006    27.880     8.661
    11   6 C        3.758    -0.109    22.632     6.783
    12   6 C        2.930    -0.044    29.100     8.847
    13   6 C        2.908    -0.055    29.354     8.884
    14   6 C        3.077     0.045    26.903     8.504
    15   7 N        2.801    -0.055    22.295     7.013
    16   6 C        2.913     0.069    26.463     8.435
    17   6 C        2.922    -0.040    29.004     8.832
    18   6 C        2.918    -0.023    28.572     8.765
    19   6 C        2.917    -0.027    28.688     8.783
    20   6 C        2.926    -0.029    28.722     8.789
    21   6 C        2.974    -0.021    28.532     8.762
    22   6 C        3.169     0.228    22.915     7.821
    23   7 N        2.047    -0.225    26.655     7.658
    24   7 N        2.045    -0.212    26.353     7.615
    25   6 C        3.170     0.228    22.908     7.819
    26   6 C        2.973    -0.023    28.569     8.767
    27   6 C        2.927    -0.027    28.676     8.782
    28   6 C        2.917    -0.031    28.762     8.794
    29   6 C        2.918    -0.023    28.586     8.768
    30   6 C        2.923    -0.042    29.032     8.836
    31   6 C        2.913     0.070    26.427     8.430
    32   7 N        2.803    -0.047    22.144     6.989
    33   6 C        3.078     0.046    26.887     8.501
    34   6 C        2.908    -0.054    29.343     8.882
    35   6 C        2.929    -0.045    29.119     8.850
    36   6 C        2.966     0.006    27.883     8.661
    37   6 C        3.758    -0.109    22.638     6.784
    38   6 C        2.918    -0.045    29.106     8.847
    39   6 C        3.065    -0.017    28.359     8.732
    40   6 C        3.067    -0.016    28.335     8.728
    41   6 C        2.918    -0.045    29.106     8.847
    42   6 C        2.966     0.006    27.892     8.663
    43   6 C        3.758    -0.108    22.616     6.780
    44   6 C        2.930    -0.044    29.097     8.846
    45   6 C        2.908    -0.048    29.187     8.859
    46   6 C        3.076     0.055    26.691     8.470
    47   8 O        1.723    -0.222    17.684     5.678
    48   1 H        0.925     0.044     2.402     2.424
    49   1 H        0.925     0.047     2.357     2.401
    50   1 H        0.925     0.043     2.413     2.429
    51   1 H        0.926     0.029     2.608     2.525
    52   1 H        0.925     0.012     2.853     2.641
    53   1 H        0.926     0.033     2.546     2.495
    54   1 H        0.926     0.032     2.553     2.499
    55   1 H        0.925     0.047     2.363     2.404
    56   1 H        0.925     0.042     2.417     2.431
    57   1 H        0.925     0.046     2.370     2.408
    58   1 H        0.926     0.033     2.541     2.493
    59   1 H        0.926     0.026     2.649     2.545
    60   1 H        0.926     0.055     2.263     2.353
    61   1 H        0.926     0.058     2.222     2.331
    62   1 H        0.926     0.057     2.231     2.336
    63   1 H        0.926     0.059     2.205     2.322
    64   1 H        0.926     0.047     2.360     2.402
    65   1 H        0.926     0.053     2.277     2.360
    66   1 H        0.926     0.057     2.238     2.339
    67   1 H        0.926     0.055     2.256     2.349
    68   1 H        0.926     0.026     2.646     2.544
    69   1 H        0.926     0.033     2.538     2.491
    70   1 H        0.925     0.046     2.374     2.410
    71   1 H        0.925     0.042     2.419     2.432
    72   1 H        0.925     0.047     2.360     2.403
    73   1 H        0.926     0.033     2.544     2.494
    74   1 H        0.926     0.034     2.526     2.485
    75   1 H        0.925     0.043     2.403     2.424
    76   1 H        0.924     0.046     2.376     2.411
    77   1 H        0.925     0.045     2.386     2.415
    78   1 H        0.926     0.027     2.630     2.536
    79   1 H        0.925     0.007     2.933     2.678

molecular dipole:
                 x           y           z       tot (Debye)
 q only:       -0.807       0.639       0.092
   full:       -1.396       0.841       0.162       4.163

 projected vibrational frequencies (cm⁻¹)
eigval :       -0.00    -0.00    -0.00    -0.00     0.00     0.00
eigval :       10.21    10.95    17.43    19.65    26.62    41.70
eigval :       46.11    46.40    54.00    58.01    61.95    65.17
eigval :       71.62    80.63    88.91    90.88    95.89    98.76
eigval :      104.89   112.11   129.08   137.25   148.90   163.60
eigval :      191.63   198.84   221.30   224.41   224.99   249.26
eigval :      264.33   276.38   292.36   299.81   302.56   321.23
eigval :      323.14   331.15   338.18   357.01   361.05   384.16
eigval :      392.96   394.52   396.16   403.15   422.47   424.99
eigval :      427.25   431.22   450.15   455.53   460.43   479.64
eigval :      490.75   495.01   510.31   525.82   544.87   548.69
eigval :      573.81   574.17   574.86   577.00   582.08   582.22
eigval :      623.04   623.54   632.59   645.63   670.63   670.92
eigval :      677.49   680.72   685.39   706.57   706.91   707.93
eigval :      720.01   727.20   738.15   741.87   781.96   785.98
eigval :      802.35   802.97   808.08   810.55   812.76   815.35
eigval :      868.49   868.75   873.34   875.58   883.69   889.85
eigval :      905.66   911.57   912.67   914.50   915.47   916.27
eigval :      917.64   921.53   925.99   926.75   927.21   929.96
eigval :      952.94   953.97   973.76   975.93  1009.75  1010.11
eigval :     1016.32  1016.83  1032.29  1033.74  1034.00  1034.13
eigval :     1039.52  1040.28  1052.59  1070.94  1085.98  1093.51
eigval :     1121.59  1125.66  1143.15  1150.31  1155.09  1155.23
eigval :     1170.80  1171.82  1173.05  1173.93  1176.54  1197.91
eigval :     1199.91  1202.57  1203.10  1230.45  1245.05  1247.87
eigval :     1249.48  1255.82  1256.63  1271.22  1291.81  1293.65
eigval :     1304.18  1308.73  1309.77  1313.78  1323.25  1350.96
eigval :     1352.58  1360.97  1362.55  1366.11  1369.13  1400.39
eigval :     1401.96  1403.06  1405.64  1412.71  1415.35  1420.12
eigval :     1429.79  1434.90  1438.73  1459.78  1473.84  1475.31
eigval :     1475.43  1476.40  1477.22  1477.37  1478.81  1478.88
eigval :     1479.41  1493.62  1493.78  1502.62  1502.89  1525.19
eigval :     1537.61  1559.87  1561.89  1571.41  1573.37  1583.21
eigval :     1583.61  1584.86  1586.13  1607.42  1607.52  1618.89
eigval :     1619.42  2995.03  2997.88  2999.67  3000.14  3012.21
eigval :     3013.51  3013.76  3014.95  3042.20  3043.20  3043.60
eigval :     3043.94  3055.61  3061.23  3069.95  3072.24  3073.24
eigval :     3075.70  3076.22  3078.33  3078.68  3082.45  3083.11
eigval :     3084.88  3085.80  3087.21  3089.44  3094.40  3096.00
eigval :     3100.95  3104.14  3109.62

   temp. (K)  partition function   enthalpy   heat capacity  entropy
                                   cal/mol     cal/K/mol   cal/K/mol   J/K/mol
 298.15  VIB  0.105E+20            23470.460    142.875    149.387
         ROT  0.565E+08              888.752      2.981     38.453
         INT  0.592E+27            24359.213    145.856    187.840
         TR   0.145E+29             1481.254      4.968     45.081
         TOT                       25840.4665   150.8239   232.9219   974.5452

       T/K    H(0)-H(T)+PV         H(T)/Eh          T*S/Eh         G(T)/Eh
   ------------------------------------------------------------------------
    298.15    0.411794E-01    0.654560E+00    0.110669E+00    0.543891E+00
   ------------------------------------------------------------------------

         :::::::::::::::::::::::::::::::::::::::::::::::::::::
         ::                  THERMODYNAMIC                  ::
         :::::::::::::::::::::::::::::::::::::::::::::::::::::
         :: total free energy        -121.630015962203 Eh   ::
         ::.................................................::
         :: total energy             -122.173907256937 Eh   ::
         :: zero point energy           0.613380594408 Eh   ::
         :: G(RRHO) w/o ZPVE           -0.069489299673 Eh   ::
         :: G(RRHO) contrib.            0.543891294735 Eh   ::
         :::::::::::::::::::::::::::::::::::::::::::::::::::::

           -------------------------------------------------
          | TOTAL ENERGY             -122.173907256937 Eh   |
          | TOTAL ENTHALPY           -121.519347257915 Eh   |
          | TOTAL FREE ENERGY        -121.630015962203 Eh   |
          | GRADIENT NORM               0.000045049596 Eh/α |
          | HOMO-LUMO GAP               1.893262134952 eV   |
           -------------------------------------------------

 * finished run on 2025/08/25 at 07:17:40.236
