   * xtb version 6.7.1 (edcfbbe) compiled by 'albert@albert-system' on 2024-07-22

   ID    Z sym.   atoms
    1    6 C      1, 2, 4-15, 17-23, 26, 29
    2   16 S      3, 16
    3    9 F      24, 25, 27, 28, 30, 31
    4    1 H      32-45

          program call               : xtb data2507/gas/benzoxazole/benzoxazole_gas_S0_finalOpt.xtbopt.xyz --gfn 2 --spinpol --tblite --uhf 2 --ohess vtight --parallel 40 --molden --ceasefiles --namespace data2507/gas/benzoxazole/benzoxazole_gas_T1_preOpt
 * total energy  :   -91.2018278 Eh     change       -0.1869140E-08 Eh
 * total energy  :   -91.2095873 Eh     change       -0.7759493E-02 Eh
 * total energy  :   -91.2134939 Eh     change       -0.3906568E-02 Eh
 * total energy  :   -91.2144677 Eh     change       -0.9737591E-03 Eh
 * total energy  :   -91.2155716 Eh     change       -0.1103969E-02 Eh
 * total energy  :   -91.2163529 Eh     change       -0.7812688E-03 Eh
 * total energy  :   -91.2171135 Eh     change       -0.7606318E-03 Eh
 * total energy  :   -91.2177174 Eh     change       -0.6038545E-03 Eh
 * total energy  :   -91.2182868 Eh     change       -0.5694475E-03 Eh
 * total energy  :   -91.2188219 Eh     change       -0.5350369E-03 Eh
 * total energy  :   -91.2238591 Eh     change       -0.3422577E-06 Eh
 * total energy  :   -91.2238594 Eh     change       -0.2798668E-06 Eh
 * total energy  :   -91.2238596 Eh     change       -0.2016784E-06 Eh
 * total energy  :   -91.2238597 Eh     change       -0.1395496E-06 Eh
 * total energy  :   -91.2238598 Eh     change       -0.1217358E-06 Eh
 * total energy  :   -91.2238600 Eh     change       -0.1756251E-06 Eh
 * total energy  :   -91.2238601 Eh     change       -0.1445223E-06 Eh
 * total energy  :   -91.2238602 Eh     change       -0.1056828E-06 Eh
 * total energy  :   -91.2238603 Eh     change       -0.7277585E-07 Eh
   *** GEOMETRY OPTIMIZATION CONVERGED AFTER 57 ITERATIONS ***

 final structure:
================
45
 xtb: 6.7.1 (edcfbbe)
C            0.47580621666063        3.65322285972081       -1.29302673310789
C           -0.35683169092870        2.84412797504147       -0.37033349118187
S           -1.94670172992938        3.42185057653447       -0.02515097990238
C           -2.30133133111795        2.03772018282085        0.97963710556768
C           -3.46785105210776        1.83023221682609        1.69226756912274
C           -3.53918820620364        0.72730065583723        2.52361921366413
C           -2.43955408497584       -0.10920662324577        2.66941607897178
C           -1.28106867680536        0.10458026039394        1.94772769373831
C           -1.21270747629188        1.15668571865636        1.03820084329849
C           -0.10504498236577        1.57600486635598        0.19020544435065
C            0.98038508115420        0.74515047175698       -0.11402135582131
C            1.00883634528460       -0.70233099442534        0.05936645392141
C           -0.05429151238378       -1.57603773683766       -0.19665584910900
C           -0.25399487591323       -2.82959878292746        0.41178267541624
C            0.61201112810907       -3.56065614209937        1.36845709742089
S           -1.81492766421278       -3.48978651319713        0.08237999966228
C           -2.23314566905421       -2.14867258456137       -0.95626414248248
C           -3.41207792008252       -2.00769985984218       -1.66477678426504
C           -3.54122551792172       -0.92084341104592       -2.51018439530064
C           -2.48694502646107       -0.03002419702459       -2.66977608957343
C           -1.31457120731158       -0.17826367881320       -1.95421099235308
C           -1.18700667405344       -1.21949806128453       -1.03859806929631
C            2.39905729229556       -1.09604819973127        0.42994375918426
F            2.79092199681740       -2.30924883151412       -0.02133480544606
F            2.61349546843417       -1.13244625985674        1.78628185734526
C            3.29784525677809        0.01847796507013       -0.18482367632125
F            4.29218821165103        0.38678671665850        0.64240283345569
F            3.87958526317418       -0.43991165386040       -1.31246841692157
C            2.34461502726657        1.21066957377359       -0.50445450951595
F            2.75354144798431        2.32256522740454        0.15805894969001
F            2.47259764948851        1.52573853531467       -1.83153971968676
H           -0.07429759552209        4.53888328493218       -1.60261076774063
H            0.74637621396849        3.08435878838849       -2.18310675578878
H            1.40025187080978        3.97259777393044       -0.81254474743988
H           -4.29011666300150        2.52304414727018        1.60718495856630
H           -4.44072562195463        0.53674546988474        3.08500547814560
H           -2.48565683252399       -0.93422845237595        3.36369351321046
H           -0.42347325067757       -0.52641706125340        2.10947755976077
H            1.43366607261331       -4.05736586126726        0.85026912009327
H            0.03037808093051       -4.31958942422461        1.88722105610389
H            1.04713321519414       -2.88686936350667        2.10507563434952
H           -4.20028136553915       -2.73703366814678       -1.56397657383206
H           -4.45389274061668       -0.78225759356389       -3.06883038904305
H           -2.58038824613546        0.78634338051347       -3.36951849419937
H           -0.49228265088392        0.49716420263336       -2.12202579294495

 projected vibrational frequencies (cm⁻¹)
eigval :       -0.00    -0.00     0.00     0.00     0.00     0.00
eigval :       15.24    17.46    30.30    43.41    47.38    60.24
eigval :       69.10    91.37   108.63   140.10   147.74   166.10
eigval :      173.38   185.55   193.03   200.98   205.22   214.61
eigval :      227.55   238.05   245.37   251.49   271.59   276.40
eigval :      291.37   306.64   309.41   318.81   336.16   375.79
eigval :      394.59   401.88   402.69   403.51   419.39   445.16
eigval :      458.27   460.82   468.68   480.65   487.23   503.22
eigval :      509.54   546.88   559.41   569.62   584.36   595.64
eigval :      611.22   635.37   674.02   682.42   685.71   704.61
eigval :      705.87   744.09   756.23   776.47   777.30   819.43
eigval :      858.19   876.22   876.85   907.20   912.08   912.75
eigval :      925.45   925.89   959.81   966.67   976.17   997.70
eigval :     1000.69  1006.68  1019.43  1047.05  1049.04  1075.38
eigval :     1079.33  1081.83  1086.74  1102.22  1147.76  1154.68
eigval :     1155.06  1164.81  1170.91  1177.36  1180.40  1189.91
eigval :     1211.94  1224.09  1232.42  1255.43  1268.96  1333.20
eigval :     1335.28  1352.21  1367.22  1395.94  1398.95  1407.36
eigval :     1412.10  1417.44  1445.43  1447.99  1462.86  1464.01
eigval :     1474.50  1476.43  1500.28  1564.06  1564.57  1577.69
eigval :     1577.93  2988.79  2994.25  3014.85  3022.97  3038.08
eigval :     3042.16  3090.18  3090.28  3097.61  3097.87  3106.12
eigval :     3106.64  3120.00  3124.24

   temp. (K)  partition function   enthalpy   heat capacity  entropy
                                   cal/mol     cal/K/mol   cal/K/mol   J/K/mol
 298.15  VIB  0.217E+12            15667.900     96.430     95.883
         ROT  0.166E+08              888.752      2.981     36.024
         INT  0.362E+19            16556.652     99.411    131.907
         TR   0.981E+28             1481.254      4.968     44.301
         TOT                       18037.9061   104.3787   176.2085   737.2564

       T/K    H(0)-H(T)+PV         H(T)/Eh          T*S/Eh         G(T)/Eh
   ------------------------------------------------------------------------
    298.15    0.287452E-01    0.329257E+00    0.837223E-01    0.245534E+00
   ------------------------------------------------------------------------

         :::::::::::::::::::::::::::::::::::::::::::::::::::::
         ::                  THERMODYNAMIC                  ::
         :::::::::::::::::::::::::::::::::::::::::::::::::::::
         :: total free energy         -90.978325890872 Eh   ::
         ::.................................................::
         :: total energy              -91.223860299521 Eh   ::
         :: zero point energy           0.300511521416 Eh   ::
         :: G(RRHO) w/o ZPVE           -0.054977112767 Eh   ::
         :: G(RRHO) contrib.            0.245534408648 Eh   ::
         :::::::::::::::::::::::::::::::::::::::::::::::::::::

           -------------------------------------------------
          | TOTAL ENERGY              -91.223860299521 Eh   |
          | TOTAL ENTHALPY            -90.894603545008 Eh   |
          | TOTAL FREE ENERGY         -90.978325890872 Eh   |
          | GRADIENT NORM               0.000067459021 Eh/α |
           -------------------------------------------------

 * finished run on 2025/09/14 at 03:30:50.720
