   * xtb version 6.7.1 (edcfbbe) compiled by 'albert@albert-system' on 2024-07-22

   ID    Z sym.   atoms
    1    6 C      1, 2, 4-15, 17-23, 26, 29
    2   16 S      3, 16
    3    9 F      24, 25, 27, 28, 30, 31
    4    1 H      32-45

          program call               : xtb data2507/gas/benzoxazole/benzoxazole_gas_T1_crest.xyz --gfn 2 --spinpol --tblite --uhf 2 --ohess vtight --parallel 40 --molden --ceasefiles --namespace data2507/gas/benzoxazole/benzoxazole_gas_T1_finalOpt
 * total energy  :   -91.2238276 Eh     change       -0.6114377E-08 Eh
 * total energy  :   -91.2238479 Eh     change       -0.2030455E-04 Eh
 * total energy  :   -91.2238547 Eh     change       -0.6861344E-05 Eh
 * total energy  :   -91.2238561 Eh     change       -0.1363964E-05 Eh
 * total energy  :   -91.2238574 Eh     change       -0.1243798E-05 Eh
 * total energy  :   -91.2238580 Eh     change       -0.6774407E-06 Eh
 * total energy  :   -91.2238586 Eh     change       -0.6183227E-06 Eh
 * total energy  :   -91.2238586 Eh     change        0.9156096E-08 Eh
 * total energy  :   -91.2238589 Eh     change       -0.3100233E-06 Eh
 * total energy  :   -91.2238593 Eh     change       -0.3020847E-06 Eh
 * total energy  :   -91.2238595 Eh     change       -0.2407185E-06 Eh
 * total energy  :   -91.2238597 Eh     change       -0.1886795E-06 Eh
 * total energy  :   -91.2238598 Eh     change       -0.1040428E-06 Eh
 * total energy  :   -91.2238599 Eh     change       -0.1307851E-06 Eh
 * total energy  :   -91.2238599 Eh     change       -0.3225246E-07 Eh
   *** GEOMETRY OPTIMIZATION CONVERGED AFTER 15 ITERATIONS ***

 final structure:
================
45
 xtb: 6.7.1 (edcfbbe)
C            0.60624815928573        3.69819108173491       -1.08189491489205
C           -0.27134920231578        2.86924044081968       -0.22054649746818
S           -1.85430889845009        3.47327510598076        0.11118213541729
C           -2.27195355027217        2.05339142899577        1.03878249375149
C           -3.46285589061998        1.84386894362322        1.70926672670633
C           -3.58566970283418        0.70499863871499        2.48419904484522
C           -2.51230141507379       -0.16677689348412        2.61880710016112
C           -1.32905444673604        0.04963386949820        1.93932242446687
C           -1.20845251240661        1.14141861389494        1.08355374350773
C           -0.06786748985668        1.56963769441797        0.28506359029346
C            1.00224739947649        0.72401962454411       -0.03219207756904
C            0.98770656233508       -0.73029468522390        0.07037761088813
C           -0.09239517176733       -1.56047963989730       -0.25092087076427
C           -0.33889131865950       -2.83691858105420        0.28947088216804
C            0.48763158590891       -3.64149902970731        1.22174190105454
S           -1.91167512564010       -3.43352986345636       -0.09970014580001
C           -2.27195548384718       -2.03068343559553       -1.07650653226835
C           -3.43351054812362       -1.81940800491965       -1.79616940101140
C           -3.51565665474253       -0.68881924797547       -2.58838812467957
C           -2.43255978245808        0.17588870998769       -2.68700127404341
C           -1.27797777667905       -0.04278050682812       -1.96065016305805
C           -1.19787530986277       -1.13038317612768       -1.09490730542643
C            2.35734215855353       -1.18104974155086        0.45279865704940
F            2.72878276081213       -2.37804671319905       -0.05587059267406
F            2.53517841880186       -1.29831366101634        1.80971784886264
C            3.30178019599965       -0.05997189839671       -0.07585948598063
F            4.27251721353405        0.24476432469008        0.80384454779609
F            3.91500040612229       -0.47657992653282       -1.20275604399949
C            2.38748085694969        1.16909823454055       -0.36869392045570
F            2.80778803168618        2.24149357447750        0.34917419575734
F            2.55700103660487        1.53443599426228       -1.67822487639350
H            0.08449389713401        4.60809697417304       -1.36948037807091
H            0.89289614064866        3.16193617816241       -1.98694639967012
H            1.52153497203180        3.97663472009744       -0.56006238055956
H           -4.26433761937781        2.56189201318986        1.63568467602140
H           -4.50716900832730        0.51229365849873        3.01139669772601
H           -2.59899423884991       -1.02228752970745        3.27103346161891
H           -0.49292200729403       -0.61154298380845        2.09290611941352
H            1.30698438412846       -4.13142317953614        0.69352716017541
H           -0.12431366676095       -4.41135708093367        1.68675208789378
H            0.92424286368956       -3.02066378926022        2.00263194186169
H           -4.24445574642447       -2.52866493485431       -1.74447918187125
H           -4.41395858752184       -0.49507082608366       -3.15385868386876
H           -2.48924022366420        1.02776143825950       -3.34724991994206
H           -0.43309673783692        0.61447555478574       -2.08188402566954

 projected vibrational frequencies (cm⁻¹)
eigval :       -0.00    -0.00     0.00     0.00     0.00     0.00
eigval :       14.27    17.66    30.24    42.72    47.17    60.36
eigval :       69.18    90.90   108.22   140.21   147.86   166.31
eigval :      173.48   185.51   192.75   200.94   205.26   215.01
eigval :      228.38   238.27   246.05   251.90   271.66   276.54
eigval :      291.02   306.88   309.58   318.95   336.26   376.03
eigval :      394.71   401.99   402.76   403.46   419.50   445.16
eigval :      458.31   460.79   468.90   480.75   487.19   503.18
eigval :      509.49   546.84   559.37   569.58   584.47   595.73
eigval :      611.16   635.29   674.13   682.45   685.70   704.62
eigval :      705.92   744.02   756.36   776.55   777.36   819.28
eigval :      858.41   876.29   876.92   907.00   912.13   912.80
eigval :      925.58   926.00   959.75   966.52   976.01   997.60
eigval :     1000.55  1006.69  1019.30  1047.05  1048.90  1075.42
eigval :     1079.29  1081.87  1086.66  1102.43  1147.60  1154.63
eigval :     1155.08  1164.72  1170.86  1177.41  1180.21  1189.48
eigval :     1211.65  1224.01  1232.39  1255.46  1268.93  1333.20
eigval :     1335.25  1351.81  1367.01  1396.01  1399.02  1407.33
eigval :     1412.21  1417.39  1445.75  1448.11  1463.05  1464.19
eigval :     1474.69  1476.52  1500.18  1564.21  1564.69  1577.79
eigval :     1577.99  2988.82  2995.14  3014.59  3023.48  3038.28
eigval :     3042.25  3090.25  3090.34  3097.68  3097.94  3106.21
eigval :     3106.71  3120.14  3123.92

   temp. (K)  partition function   enthalpy   heat capacity  entropy
                                   cal/mol     cal/K/mol   cal/K/mol   J/K/mol
 298.15  VIB  0.233E+12            15667.603     96.403     95.920
         ROT  0.166E+08              888.752      2.981     36.023
         INT  0.387E+19            16556.355     99.384    131.943
         TR   0.981E+28             1481.254      4.968     44.301
         TOT                       18037.6089   104.3525   176.2440   737.4049

       T/K    H(0)-H(T)+PV         H(T)/Eh          T*S/Eh         G(T)/Eh
   ------------------------------------------------------------------------
    298.15    0.287448E-01    0.329263E+00    0.837392E-01    0.245524E+00
   ------------------------------------------------------------------------

         :::::::::::::::::::::::::::::::::::::::::::::::::::::
         ::                  THERMODYNAMIC                  ::
         :::::::::::::::::::::::::::::::::::::::::::::::::::::
         :: total free energy         -90.978336096919 Eh   ::
         ::.................................................::
         :: total energy              -91.223859972272 Eh   ::
         :: zero point energy           0.300518330807 Eh   ::
         :: G(RRHO) w/o ZPVE           -0.054994455455 Eh   ::
         :: G(RRHO) contrib.            0.245523875353 Eh   ::
         :::::::::::::::::::::::::::::::::::::::::::::::::::::

           -------------------------------------------------
          | TOTAL ENERGY              -91.223859972272 Eh   |
          | TOTAL ENTHALPY            -90.894596881951 Eh   |
          | TOTAL FREE ENERGY         -90.978336096919 Eh   |
          | GRADIENT NORM               0.000173892201 Eh/α |
           -------------------------------------------------

 * finished run on 2025/09/14 at 03:33:05.800
