   * xtb version 6.7.1 (edcfbbe) compiled by 'albert@albert-system' on 2024-07-22

   ID    Z sym.   atoms
    1    6 C      1, 2, 4-15, 17-23, 26, 29
    2   16 S      3, 16
    3    9 F      24, 25, 27, 28, 30, 31
    4    1 H      32-45

          program call               : xtb data2507/gas/benzoxazole/benzoxazole_gas_S0_crest.xyz --gfn 2 --ohess vtight --parallel 40 --molden --ceasefiles --namespace data2507/gas/benzoxazole/benzoxazole_gas_S0_finalOpt
          :  Hamiltonian                  GFN2-xTB          :
 * total energy  :   -91.2940861 Eh     change       -0.2935792E-08 Eh
 * total energy  :   -91.2940868 Eh     change       -0.6903819E-06 Eh
 * total energy  :   -91.2940874 Eh     change       -0.6004123E-06 Eh
 * total energy  :   -91.2940880 Eh     change       -0.5153339E-06 Eh
 * total energy  :   -91.2940887 Eh     change       -0.7240827E-06 Eh
 * total energy  :   -91.2940894 Eh     change       -0.7581892E-06 Eh
 * total energy  :   -91.2940897 Eh     change       -0.3092754E-06 Eh
 * total energy  :   -91.2940899 Eh     change       -0.1127179E-06 Eh
 * total energy  :   -91.2940900 Eh     change       -0.9573451E-07 Eh
   *** GEOMETRY OPTIMIZATION CONVERGED AFTER 9 ITERATIONS ***

 final structure:
================
45
 xtb: 6.7.1 (edcfbbe)
C            0.29086957385826        3.23986003924623       -1.67161840435727
C           -0.48109789469732        2.58689985724836       -0.58249922321717
S           -2.08404319803730        3.17586756986781       -0.25427773358204
C           -2.33432926601348        1.96638074745068        0.97036977101640
C           -3.47133721207186        1.78660951055815        1.74225575667632
C           -3.46882308263242        0.77822543192746        2.68348742554874
C           -2.33682931316700       -0.01197458484717        2.87448386075209
C           -1.20589291652623        0.17265904331317        2.11045632936811
C           -1.20201679819883        1.15020582733653        1.11590478742957
C           -0.15381883153913        1.51220965104055        0.19430891528551
C            1.04885628953112        0.70030843028592        0.07921033157344
C            1.07145357580275       -0.64991254226046       -0.02946488430740
C           -0.08252045346888       -1.50978301183353       -0.21328810158638
C           -0.33192629984797       -2.65787561375762        0.49058266804900
C            0.52038680717884       -3.35417666139879        1.48835687774263
S           -1.91370747304160       -3.29665077830755        0.17445774491453
C           -2.25416489252587       -2.03274563573267       -0.97129193393509
C           -3.41466508680928       -1.87463875755016       -1.71221821212633
C           -3.47404761837872       -0.83615614007044       -2.61811590893388
C           -2.37480408074207       -0.00198253597725       -2.81194965461286
C           -1.22239724354113       -0.16264454911297       -2.07480848388824
C           -1.16313404581652       -1.15914174140545       -1.10074396001472
C            2.48845443495300       -1.16425230360893        0.04631229661141
F            2.73537810866750       -2.22227502193631       -0.75305276523068
F            2.84594716632505       -1.55884966880370        1.29986929034742
C            3.32219240678858        0.08850644090360       -0.32981532699169
F            4.58493655686311        0.06727703188088        0.11644508631921
F            3.37852576485703        0.20770406606985       -1.67811775649372
C            2.45122521630605        1.23857526217162        0.23989706402227
F            2.75077209211324        1.43644509996964        1.55357158955721
F            2.70876689816275        2.41645500805329       -0.36302083054621
H           -0.38873470487446        3.64674205046040       -2.41738929954450
H            0.97153792596129        2.53983293236784       -2.15120400469868
H            0.88634533454912        4.06174650765818       -1.27305700557181
H           -4.32943096569262        2.42574429187024        1.60577514367799
H           -4.34525757260898        0.61143049713411        3.29054927325678
H           -2.34576165031619       -0.77509277279410        3.63782309512653
H           -0.32028191895085       -0.41664995599676        2.28758176655941
H            1.41151065716358       -3.76204176214495        1.01100097909371
H           -0.03138555710449       -4.17320241269495        1.94274603834759
H            0.84784669625924       -2.67369758530625        2.27371439739139
H           -4.24073318198881       -2.55614103250466       -1.58344519387000
H           -4.36947280964988       -0.68509727325275       -3.20101200655193
H           -2.42523550672729        0.77612055059878       -3.55834116663761
H           -0.36004043547123        0.45527885528397       -2.26306426456910

          :  Hamiltonian                  GFN2-xTB          :
         :: gradient norm              0.000068481812 Eh/a0 ::
         :: HOMO-LUMO gap              2.363873335076 eV    ::
         :: SCC energy               -92.360399210837 Eh    ::
         :: -> dispersion             -0.070310115214 Eh    ::
         :: repulsion energy           1.066309256417 Eh    ::

    * Orbital Energies and Occupations

         #    Occupation            Energy/Eh            Energy/eV
      -------------------------------------------------------------
         1        2.0000           -0.8860563             -24.1108
       ...           ...                  ...                  ...
        68        2.0000           -0.4671525             -12.7119
        69        2.0000           -0.4616110             -12.5611
        70        2.0000           -0.4574131             -12.4468
        71        2.0000           -0.4517593             -12.2930
        72        2.0000           -0.4490774             -12.2200
        73        2.0000           -0.4453438             -12.1184
        74        2.0000           -0.4446227             -12.0988
        75        2.0000           -0.4432446             -12.0613
        76        2.0000           -0.4339325             -11.8079
        77        2.0000           -0.4104252             -11.1682
        78        2.0000           -0.4077546             -11.0956
        79        2.0000           -0.3949209             -10.7463
        80        2.0000           -0.3916621             -10.6577 (HOMO)
        81                         -0.3047913              -8.2938 (LUMO)
        82                         -0.2688255              -7.3151
        83                         -0.2628012              -7.1512
        84                         -0.2458600              -6.6902
        85                         -0.2444777              -6.6526
        86                         -0.2251717              -6.1272
        87                         -0.2235455              -6.0830
        88                         -0.2053690              -5.5884
        89                         -0.1924596              -5.2371
        90                         -0.1383999              -3.7661
        91                         -0.1376573              -3.7458
       ...                                ...                  ...
       148                          0.6911175              18.8063
      -------------------------------------------------------------
                  HL-Gap            0.0868708 Eh            2.3639 eV

     #   Z          covCN         q      C6AA      α(0)
     1   6 C        3.786    -0.111    22.641     6.777
     2   6 C        2.975     0.038    27.139     8.545
     3  16 S        2.291    -0.034   142.470    20.089
     4   6 C        3.005     0.031    27.295     8.570
     5   6 C        2.934    -0.036    28.903     8.817
     6   6 C        2.924    -0.030    28.750     8.793
     7   6 C        2.919    -0.031    28.768     8.795
     8   6 C        2.917    -0.033    28.814     8.803
     9   6 C        3.143    -0.002    27.818     8.630
    10   6 C        3.124    -0.016    28.225     8.700
    11   6 C        2.995    -0.031    28.753     8.796
    12   6 C        2.997    -0.028    28.695     8.787
    13   6 C        3.123    -0.017    28.241     8.703
    14   6 C        2.976     0.039    27.112     8.541
    15   6 C        3.786    -0.111    22.646     6.778
    16  16 S        2.291    -0.027   142.158    20.067
    17   6 C        3.006     0.030    27.308     8.572
    18   6 C        2.935    -0.036    28.901     8.817
    19   6 C        2.924    -0.030    28.746     8.792
    20   6 C        2.919    -0.030    28.758     8.794
    21   6 C        2.918    -0.034    28.845     8.807
    22   6 C        3.142    -0.003    27.838     8.633
    23   6 C        3.561     0.320    16.532     5.928
    24   9 F        0.787    -0.199    11.227     3.958
    25   9 F        0.788    -0.211    11.350     3.980
    26   6 C        3.554     0.315    16.657     5.960
    27   9 F        0.787    -0.178    11.010     3.919
    28   9 F        0.788    -0.202    11.254     3.963
    29   6 C        3.562     0.320    16.529     5.927
    30   9 F        0.788    -0.209    11.328     3.976
    31   9 F        0.787    -0.198    11.215     3.956
    32   1 H        0.925     0.064     2.155     2.296
    33   1 H        0.925     0.058     2.220     2.330
    34   1 H        0.924     0.078     1.996     2.209
    35   1 H        0.926     0.047     2.363     2.404
    36   1 H        0.926     0.044     2.396     2.421
    37   1 H        0.926     0.042     2.418     2.431
    38   1 H        0.926     0.034     2.528     2.486
    39   1 H        0.925     0.076     2.023     2.224
    40   1 H        0.925     0.062     2.172     2.305
    41   1 H        0.925     0.067     2.115     2.274
    42   1 H        0.926     0.047     2.361     2.403
    43   1 H        0.926     0.044     2.392     2.418
    44   1 H        0.926     0.042     2.416     2.431
    45   1 H        0.926     0.036     2.502     2.473

molecular dipole:
                 x           y           z       tot (Debye)
 q only:       -2.616      -0.101      -0.153
   full:       -2.153      -0.093      -0.145       5.491

 projected vibrational frequencies (cm⁻¹)
eigval :       -0.00    -0.00    -0.00     0.00     0.00     0.00
eigval :       20.98    27.08    34.59    40.84    55.09    72.58
eigval :       79.67   108.42   114.17   125.73   148.08   157.70
eigval :      162.77   172.39   180.08   189.61   189.94   208.61
eigval :      209.83   224.94   233.73   238.11   260.05   269.41
eigval :      288.45   311.44   329.75   331.25   343.32   373.35
eigval :      393.43   403.13   411.66   417.16   439.53   455.16
eigval :      457.90   467.24   472.90   485.36   489.61   508.51
eigval :      538.75   556.26   575.55   577.24   592.88   623.46
eigval :      634.53   658.03   672.26   686.72   702.75   711.43
eigval :      713.55   737.75   763.31   776.38   778.90   822.97
eigval :      849.09   876.67   878.54   909.06   910.36   917.62
eigval :      925.30   927.27   955.03   990.06  1013.57  1016.05
eigval :     1023.96  1026.47  1044.39  1058.84  1059.94  1073.60
eigval :     1077.10  1078.29  1097.39  1112.70  1152.37  1156.63
eigval :     1160.50  1169.05  1177.96  1181.76  1192.25  1216.47
eigval :     1226.37  1227.51  1248.23  1260.25  1331.10  1345.96
eigval :     1346.15  1357.16  1402.42  1403.53  1411.09  1412.51
eigval :     1452.38  1454.35  1464.23  1466.67  1470.26  1473.16
eigval :     1534.44  1549.95  1564.08  1564.94  1588.88  1590.23
eigval :     1607.83  3001.45  3002.79  3017.38  3034.93  3036.58
eigval :     3048.95  3087.90  3088.60  3095.07  3096.25  3103.66
eigval :     3105.68  3107.46  3117.21

   temp. (K)  partition function   enthalpy   heat capacity  entropy
                                   cal/mol     cal/K/mol   cal/K/mol   J/K/mol
 298.15  VIB  0.777E+11            15579.786     96.078     95.131
         ROT  0.162E+08              888.752      2.981     35.974
         INT  0.126E+19            16468.539     99.059    131.105
         TR   0.981E+28             1481.254      4.968     44.301
         TOT                       17949.7924   104.0268   175.4057   733.8976

       T/K    H(0)-H(T)+PV         H(T)/Eh          T*S/Eh         G(T)/Eh
   ------------------------------------------------------------------------
    298.15    0.286048E-01    0.331492E+00    0.833409E-01    0.248151E+00
   ------------------------------------------------------------------------

         :::::::::::::::::::::::::::::::::::::::::::::::::::::
         ::                  THERMODYNAMIC                  ::
         :::::::::::::::::::::::::::::::::::::::::::::::::::::
         :: total free energy         -91.045938871058 Eh   ::
         ::.................................................::
         :: total energy              -91.294089954415 Eh   ::
         :: zero point energy           0.302887193267 Eh   ::
         :: G(RRHO) w/o ZPVE           -0.054736109910 Eh   ::
         :: G(RRHO) contrib.            0.248151083357 Eh   ::
         :::::::::::::::::::::::::::::::::::::::::::::::::::::

           -------------------------------------------------
          | TOTAL ENERGY              -91.294089954415 Eh   |
          | TOTAL ENTHALPY            -90.962597946123 Eh   |
          | TOTAL FREE ENERGY         -91.045938871058 Eh   |
          | GRADIENT NORM               0.000068411406 Eh/α |
          | HOMO-LUMO GAP               2.363874837639 eV   |
           -------------------------------------------------

 * finished run on 2025/09/14 at 03:30:45.519
