   * xtb version 6.7.1 (edcfbbe) compiled by 'albert@albert-system' on 2024-07-22

   ID    Z sym.   atoms
    1    6 C      1, 2, 4-15, 17-23, 26, 29
    2   16 S      3, 16
    3    9 F      24, 25, 27, 28, 30, 31
    4    1 H      32-45

          program call               : xtb data2507/gas/benzoxazole/benzoxazole.xyz --gfn 2 --ohess vtight --parallel 40 --molden --ceasefiles --namespace data2507/gas/benzoxazole/benzoxazole_gas_S0_preOpt
          :  Hamiltonian                  GFN2-xTB          :
 * total energy  :   -91.2757490 Eh     change       -0.4386052E-08 Eh
 * total energy  :   -91.2860775 Eh     change       -0.1032848E-01 Eh
 * total energy  :   -91.2884230 Eh     change       -0.2345493E-02 Eh
 * total energy  :   -91.2889188 Eh     change       -0.4957592E-03 Eh
 * total energy  :   -91.2894388 Eh     change       -0.5200126E-03 Eh
 * total energy  :   -91.2897908 Eh     change       -0.3520048E-03 Eh
 * total energy  :   -91.2901357 Eh     change       -0.3448881E-03 Eh
 * total energy  :   -91.2904771 Eh     change       -0.3414892E-03 Eh
 * total energy  :   -91.2907855 Eh     change       -0.3083854E-03 Eh
 * total energy  :   -91.2910767 Eh     change       -0.2911801E-03 Eh
 * total energy  :   -91.2940659 Eh     change       -0.1296005E-05 Eh
 * total energy  :   -91.2940671 Eh     change       -0.1262924E-05 Eh
 * total energy  :   -91.2940683 Eh     change       -0.1217878E-05 Eh
 * total energy  :   -91.2940695 Eh     change       -0.1155222E-05 Eh
 * total energy  :   -91.2940706 Eh     change       -0.1085449E-05 Eh
 * total energy  :   -91.2940716 Eh     change       -0.1008583E-05 Eh
 * total energy  :   -91.2940725 Eh     change       -0.9363042E-06 Eh
 * total energy  :   -91.2940734 Eh     change       -0.8658149E-06 Eh
 * total energy  :   -91.2940734 Eh     change       -0.6662233E-08 Eh
   *** GEOMETRY OPTIMIZATION CONVERGED AFTER 94 ITERATIONS ***

 final structure:
================
45
 xtb: 6.7.1 (edcfbbe)
C           -0.13038625148883       -1.18076314627031        3.53199511885593
C           -0.82547696500768       -0.36935251906450        2.49913336732417
S           -1.60091403132766        1.10277637594889        3.00502928479549
C           -2.07318730914592        1.47651401390442        1.37323624423593
C           -2.78919098754550        2.58402753640843        0.94681671663800
C           -3.08961661449258        2.69037874291071       -0.39528645529802
C           -2.71128241075451        1.69023041186269       -1.28909537605197
C           -2.00484668859530        0.58778372928332       -0.86206723209679
C           -1.64463681842740        0.48172701100886        0.48092266155963
C           -0.90848785861065       -0.56224723782210        1.14974212062937
C           -0.26077944723868       -1.61911344037542        0.38656061553841
C            0.51304825242088       -1.42752635305021       -0.70845201534587
C            0.97880028990004       -0.14812698634720       -1.20942491183016
C            0.92666464990196        0.25594763277205       -2.51676744185314
C            0.50614622307243       -0.50593311263358       -3.72072679752348
S            1.36332429479555        1.92384262539823       -2.71092187183729
C            1.67996222368749        2.09500757200949       -1.00894770857810
C            2.12731010213375        3.23392856307652       -0.35809238695375
C            2.37852244058901        3.15571218510438        0.99596206050835
C            2.22814309374213        1.94850584390155        1.67552934781661
C            1.78441247818094        0.81809326093892        1.02556172815652
C            1.45669611514258        0.88784299976205       -0.32827936442708
C            0.86305840491825       -2.74874070400170       -1.34854388896871
F            2.10661188647671       -2.79921229773081       -1.86827058710366
F            0.02432884307118       -3.08391458511521       -2.36804790789209
C            0.64962664662258       -3.75352230699305       -0.18618571857179
F            0.41407540987477       -5.01217491751135       -0.57925788622405
F            1.75460133356367       -3.78125746274546        0.59704576115895
C           -0.50993642133198       -3.09300134416322        0.60472390345610
F           -1.70531857307835       -3.47120833945675        0.07372638707304
F           -0.54632186227360       -3.50430930720914        1.88822237203049
H            0.22578231644243       -0.53726659112593        4.33367616463584
H            0.71067383099942       -1.72625762564838        3.10979308502386
H           -0.81606536383092       -1.91036550419317        3.96387854728044
H           -3.10284406093461        3.33563380985920        1.65403756483299
H           -3.63891765216374        3.54722279504229       -0.75386348112967
H           -2.98327837147814        1.77874365899162       -2.32991402032441
H           -1.74714880869100       -0.20090364365679       -1.55092677234656
H            1.21766725447771       -1.30366368168021       -3.93486285136645
H            0.46102675196473        0.15467062216848       -4.58287616289117
H           -0.47180117567060       -0.96451348080865       -3.57845857469003
H            2.28131617196405        4.15006419296890       -0.90618365064864
H            2.72003822572285        4.03007389790787        1.52817241449285
H            2.47294081084745        1.89738776956385        2.72555507918207
H            1.71566062157122       -0.12274166316497        1.54613251873076

          :  Hamiltonian                  GFN2-xTB          :
         :: gradient norm              0.000064390250 Eh/a0 ::
         :: HOMO-LUMO gap              2.365094159982 eV    ::
         :: SCC energy               -92.360547426862 Eh    ::
         :: -> dispersion             -0.070027886161 Eh    ::
         :: repulsion energy           1.066474033460 Eh    ::

    * Orbital Energies and Occupations

         #    Occupation            Energy/Eh            Energy/eV
      -------------------------------------------------------------
         1        2.0000           -0.8860222             -24.1099
       ...           ...                  ...                  ...
        68        2.0000           -0.4671748             -12.7125
        69        2.0000           -0.4615649             -12.5598
        70        2.0000           -0.4573015             -12.4438
        71        2.0000           -0.4517919             -12.2939
        72        2.0000           -0.4490415             -12.2190
        73        2.0000           -0.4452433             -12.1157
        74        2.0000           -0.4445989             -12.0982
        75        2.0000           -0.4431753             -12.0594
        76        2.0000           -0.4341652             -11.8142
        77        2.0000           -0.4103336             -11.1657
        78        2.0000           -0.4078239             -11.0975
        79        2.0000           -0.3949143             -10.7462
        80        2.0000           -0.3916802             -10.6582 (HOMO)
        81                         -0.3047646              -8.2931 (LUMO)
        82                         -0.2686426              -7.3101
        83                         -0.2627524              -7.1499
        84                         -0.2458700              -6.6905
        85                         -0.2444910              -6.6529
        86                         -0.2251374              -6.1263
        87                         -0.2235011              -6.0818
        88                         -0.2053871              -5.5889
        89                         -0.1925216              -5.2388
        90                         -0.1384339              -3.7670
        91                         -0.1376885              -3.7467
       ...                                ...                  ...
       148                          0.6912282              18.8093
      -------------------------------------------------------------
                  HL-Gap            0.0869156 Eh            2.3651 eV

     #   Z          covCN         q      C6AA      α(0)
     1   6 C        3.786    -0.111    22.638     6.777
     2   6 C        2.975     0.038    27.140     8.545
     3  16 S        2.291    -0.034   142.476    20.090
     4   6 C        3.005     0.031    27.293     8.570
     5   6 C        2.934    -0.036    28.902     8.817
     6   6 C        2.924    -0.030    28.749     8.793
     7   6 C        2.919    -0.031    28.767     8.795
     8   6 C        2.917    -0.033    28.815     8.803
     9   6 C        3.143    -0.002    27.818     8.630
    10   6 C        3.124    -0.016    28.224     8.700
    11   6 C        2.995    -0.031    28.751     8.796
    12   6 C        2.997    -0.028    28.692     8.787
    13   6 C        3.124    -0.017    28.241     8.702
    14   6 C        2.976     0.039    27.113     8.541
    15   6 C        3.785    -0.111    22.644     6.778
    16  16 S        2.291    -0.027   142.162    20.068
    17   6 C        3.006     0.030    27.307     8.572
    18   6 C        2.935    -0.036    28.899     8.816
    19   6 C        2.924    -0.030    28.745     8.792
    20   6 C        2.919    -0.030    28.757     8.794
    21   6 C        2.918    -0.034    28.846     8.807
    22   6 C        3.142    -0.002    27.838     8.633
    23   6 C        3.561     0.320    16.534     5.929
    24   9 F        0.787    -0.199    11.226     3.958
    25   9 F        0.788    -0.211    11.350     3.980
    26   6 C        3.554     0.315    16.660     5.961
    27   9 F        0.787    -0.178    11.010     3.919
    28   9 F        0.788    -0.202    11.252     3.962
    29   6 C        3.561     0.320    16.532     5.928
    30   9 F        0.788    -0.209    11.326     3.975
    31   9 F        0.787    -0.198    11.216     3.956
    32   1 H        0.925     0.064     2.155     2.296
    33   1 H        0.925     0.058     2.220     2.330
    34   1 H        0.924     0.078     1.997     2.210
    35   1 H        0.926     0.047     2.363     2.404
    36   1 H        0.926     0.044     2.396     2.421
    37   1 H        0.926     0.042     2.418     2.432
    38   1 H        0.926     0.034     2.529     2.487
    39   1 H        0.925     0.076     2.023     2.224
    40   1 H        0.925     0.062     2.172     2.305
    41   1 H        0.925     0.067     2.118     2.276
    42   1 H        0.926     0.047     2.360     2.402
    43   1 H        0.926     0.044     2.392     2.418
    44   1 H        0.926     0.042     2.416     2.431
    45   1 H        0.926     0.036     2.502     2.474

molecular dipole:
                 x           y           z       tot (Debye)
 q only:       -0.112       2.604       0.290
   full:       -0.070       2.142       0.240       5.482

 projected vibrational frequencies (cm⁻¹)
eigval :       -0.00    -0.00    -0.00     0.00     0.00     0.00
eigval :       20.34    27.17    34.30    40.59    54.55    72.20
eigval :       78.99   108.62   114.09   125.45   147.65   156.96
eigval :      161.17   169.39   178.23   189.66   189.87   208.29
eigval :      209.78   224.81   233.45   237.49   259.98   269.35
eigval :      288.16   311.05   329.56   330.67   342.94   373.10
eigval :      393.19   403.18   411.33   416.57   439.72   455.24
eigval :      457.71   467.09   472.89   485.33   489.57   508.37
eigval :      538.58   556.02   575.47   577.24   592.80   623.61
eigval :      634.41   658.10   672.17   686.49   702.78   711.47
eigval :      713.55   737.79   763.33   776.35   778.90   823.06
eigval :      849.00   876.51   878.42   909.00   910.27   917.55
eigval :      925.19   927.05   955.00   989.89  1013.52  1016.12
eigval :     1023.96  1026.83  1044.37  1058.85  1059.95  1073.52
eigval :     1077.14  1078.32  1097.32  1112.56  1152.32  1156.62
eigval :     1160.48  1169.02  1177.93  1181.69  1192.02  1216.36
eigval :     1226.22  1227.44  1248.28  1260.36  1330.97  1345.99
eigval :     1346.09  1357.01  1402.38  1403.56  1411.02  1412.41
eigval :     1452.27  1454.27  1464.07  1466.50  1470.00  1472.76
eigval :     1535.20  1550.74  1564.08  1564.94  1588.92  1590.34
eigval :     1609.19  3001.16  3002.35  3017.64  3035.50  3036.83
eigval :     3048.79  3087.91  3088.59  3095.06  3096.25  3103.64
eigval :     3105.66  3107.43  3117.48

   temp. (K)  partition function   enthalpy   heat capacity  entropy
                                   cal/mol     cal/K/mol   cal/K/mol   J/K/mol
 298.15  VIB  0.856E+11            15595.622     96.070     95.295
         ROT  0.163E+08              888.752      2.981     35.981
         INT  0.139E+19            16484.374     99.051    131.276
         TR   0.981E+28             1481.254      4.968     44.301
         TOT                       17965.6278   104.0190   175.5769   734.6139

       T/K    H(0)-H(T)+PV         H(T)/Eh          T*S/Eh         G(T)/Eh
   ------------------------------------------------------------------------
    298.15    0.286301E-01    0.331481E+00    0.834223E-01    0.248059E+00
   ------------------------------------------------------------------------

         :::::::::::::::::::::::::::::::::::::::::::::::::::::
         ::                  THERMODYNAMIC                  ::
         :::::::::::::::::::::::::::::::::::::::::::::::::::::
         :: total free energy         -91.046014660623 Eh   ::
         ::.................................................::
         :: total energy              -91.294073393400 Eh   ::
         :: zero point energy           0.302850952133 Eh   ::
         :: G(RRHO) w/o ZPVE           -0.054792219356 Eh   ::
         :: G(RRHO) contrib.            0.248058732777 Eh   ::
         :::::::::::::::::::::::::::::::::::::::::::::::::::::

           -------------------------------------------------
          | TOTAL ENERGY              -91.294073393400 Eh   |
          | TOTAL ENTHALPY            -90.962592390927 Eh   |
          | TOTAL FREE ENERGY         -91.046014660623 Eh   |
          | GRADIENT NORM               0.000064396884 Eh/α |
          | HOMO-LUMO GAP               2.365094215662 eV   |
           -------------------------------------------------

 * finished run on 2025/09/14 at 03:28:41.624
