   * xtb version 6.7.1 (edcfbbe) compiled by 'albert@albert-system' on 2024-07-22

   ID    Z sym.   atoms
    1    8 O      1, 24
    2    6 C      2-23, 25-30
    3    1 H      31-52

          program call               : xtb data2507/gas/E-o-DHMPA/E-o-DHMPA.xyz --gfn 2 --ohess vtight --parallel 40 --molden --ceasefiles --namespace data2507/gas/E-o-DHMPA/E-o-DHMPA_gas_S0_preOpt
          :  Hamiltonian                  GFN2-xTB          :
 * total energy  :   -79.2742589 Eh     change       -0.1298318E-08 Eh
 * total energy  :   -79.2864546 Eh     change       -0.1219576E-01 Eh
 * total energy  :   -79.2895577 Eh     change       -0.3103133E-02 Eh
 * total energy  :   -79.2899768 Eh     change       -0.4190348E-03 Eh
 * total energy  :   -79.2902179 Eh     change       -0.2411531E-03 Eh
 * total energy  :   -79.2903025 Eh     change       -0.8459397E-04 Eh
 * total energy  :   -79.2904076 Eh     change       -0.1050504E-03 Eh
 * total energy  :   -79.2905099 Eh     change       -0.1022952E-03 Eh
 * total energy  :   -79.2906087 Eh     change       -0.9882649E-04 Eh
 * total energy  :   -79.2906888 Eh     change       -0.8014409E-04 Eh
 * total energy  :   -79.2910237 Eh     change       -0.6218550E-06 Eh
 * total energy  :   -79.2910242 Eh     change       -0.4412395E-06 Eh
 * total energy  :   -79.2910245 Eh     change       -0.2775619E-06 Eh
 * total energy  :   -79.2910247 Eh     change       -0.2143317E-06 Eh
 * total energy  :   -79.2910249 Eh     change       -0.1789192E-06 Eh
 * total energy  :   -79.2910250 Eh     change       -0.1735651E-06 Eh
 * total energy  :   -79.2910252 Eh     change       -0.1757395E-06 Eh
 * total energy  :   -79.2910253 Eh     change       -0.1278355E-06 Eh
 * total energy  :   -79.2910254 Eh     change       -0.9851271E-07 Eh
   *** GEOMETRY OPTIMIZATION CONVERGED AFTER 63 ITERATIONS ***

 final structure:
================
52
 xtb: 6.7.1 (edcfbbe)
O           -2.22255587414464       -1.06101470179817        2.42733085442300
C           -2.79813071014329        0.18606481403843        2.09848236353041
C           -3.59027484925666        0.14887048829553        0.81387667165101
C           -4.97758564046120        0.15367564386997        0.83543481490010
C           -5.70625621862166        0.09921288234209       -0.33993325982213
C           -5.04963197739820        0.03416679527034       -1.55678324404197
C           -3.66718129222167        0.02221039270309       -1.59233440856689
C           -2.92944304627846        0.07857417859370       -0.41595983608824
C           -1.44733299264365        0.06328492052398       -0.47636738763823
C           -0.73651590385575        1.26957532970361       -0.44030796212840
C           -1.39932359131665        2.52372698933562       -0.37748615101653
C           -0.69582423539759        3.68734548201386       -0.32807071706163
C            0.71427794360113        3.66958502233822       -0.33881731692323
C            1.38696039051034        2.48861632508275       -0.40376448684637
C            0.69215937101987        1.25174724046066       -0.45908286629521
C            1.37312120604295        0.02960225014892       -0.52015722341084
C            2.85471958783198        0.01017513337737       -0.50900971505804
C            3.56123071277947        0.08387625091814       -1.70201734735079
C            4.94517159517592        0.06641436142948       -1.70161663501553
C            5.63121830875209       -0.02465685943649       -0.50356366464940
C            4.93449822867780       -0.09843179744465        0.69053561646363
C            3.54920955115938       -0.08198826464223        0.69955528436656
C            2.77396104529529       -0.16297718199485        1.98947117260994
O            3.64640344177997       -0.21955568707462        3.09357923257234
C            0.66256060911132       -1.17515257394894       -0.58061904128941
C            1.32598148781866       -2.42834875998440       -0.65223465860136
C            0.62493131549448       -3.59363079915125       -0.69875207416288
C           -0.78501838925288       -3.57876598704181       -0.67792343680360
C           -1.46005016364250       -2.39927560521774       -0.60983151846385
C           -0.76671262268857       -1.15904511734408       -0.55937964508981
H           -1.68943942772094       -1.35985564158942        1.67995256136608
H           -2.01440107086136        0.95709902592013        2.02781461829303
H           -3.45222067857408        0.43316436784646        2.93782191610818
H           -5.48957952677414        0.20061919549829        1.78549806631245
H           -6.78550529474216        0.10595469999735       -0.30565363395486
H           -5.61254795739853       -0.00874810323654       -2.47739826501542
H           -3.14451710683232       -0.02958900584513       -2.53673125726465
H           -2.47977234846543        2.53372181128911       -0.37154630460628
H           -1.21186625917122        4.63497425933887       -0.28077454510069
H            1.25427237240772        4.60394643130696       -0.29672363148720
H            2.46686927317788        2.46946536483752       -0.41563159610162
H            3.01537264020626        0.15504675791040       -2.63205057207754
H            5.48404426876444        0.12411774174133       -2.63585515662907
H            6.71100691771623       -0.03846128805194       -0.49680767000401
H            5.45657444938488       -0.16899819708959        1.63118556631369
H            2.12884601866089       -1.05664382022411        1.96064439840290
H            2.11363368642816        0.71691284312972        2.06310818273986
H            3.12172981003500       -0.28240117020885        3.89739003655442
H            2.40590746838975       -2.43408554132688       -0.67069536726407
H            1.14194535766380       -4.54010037263959       -0.75311890047910
H           -1.32441027346117       -4.51335645214003       -0.71713470616069
H           -2.54051260656447       -2.38666507183242       -0.59754515415088

          :  Hamiltonian                  GFN2-xTB          :
         :: gradient norm              0.000023993850 Eh/a0 ::
         :: HOMO-LUMO gap              2.180359550392 eV    ::
         :: SCC energy               -80.677470355968 Eh    ::
         :: -> dispersion             -0.071127681652 Eh    ::
         :: repulsion energy           1.386444918943 Eh    ::

    * Orbital Energies and Occupations

         #    Occupation            Energy/Eh            Energy/eV
      -------------------------------------------------------------
         1        2.0000           -0.6902740             -18.7833
       ...           ...                  ...                  ...
        61        2.0000           -0.4261068             -11.5950
        62        2.0000           -0.4248219             -11.5600
        63        2.0000           -0.4226748             -11.5016
        64        2.0000           -0.4208696             -11.4524
        65        2.0000           -0.4114941             -11.1973
        66        2.0000           -0.4087489             -11.1226
        67        2.0000           -0.4084508             -11.1145
        68        2.0000           -0.4051606             -11.0250
        69        2.0000           -0.4033058             -10.9745
        70        2.0000           -0.4017411             -10.9319
        71        2.0000           -0.3990027             -10.8574
        72        2.0000           -0.3908064             -10.6344
        73        2.0000           -0.3646461              -9.9225 (HOMO)
        74                         -0.2845194              -7.7422 (LUMO)
        75                         -0.2370997              -6.4518
        76                         -0.2313428              -6.2952
        77                         -0.2290388              -6.2325
        78                         -0.2260327              -6.1507
        79                         -0.2231070              -6.0711
        80                         -0.2203211              -5.9952
        81                         -0.1832275              -4.9859
        82                         -0.1782092              -4.8493
        83                         -0.1044000              -2.8409
        84                         -0.1035163              -2.8168
       ...                                ...                  ...
       142                          0.7091753              19.2976
      -------------------------------------------------------------
                  HL-Gap            0.0801267 Eh            2.1804 eV

     #   Z          covCN         q      C6AA      α(0)
     1   8 O        1.655    -0.446    21.771     6.299
     2   6 C        3.679     0.081    19.434     6.314
     3   6 C        2.970    -0.008    28.221     8.714
     4   6 C        2.923    -0.034    28.849     8.808
     5   6 C        2.919    -0.031    28.779     8.797
     6   6 C        2.919    -0.031    28.776     8.797
     7   6 C        2.923    -0.033    28.823     8.804
     8   6 C        2.981     0.009    27.818     8.652
     9   6 C        2.977    -0.009    28.243     8.717
    10   6 C        2.984     0.005    27.899     8.664
    11   6 C        2.917    -0.035    28.879     8.812
    12   6 C        2.914    -0.029    28.731     8.790
    13   6 C        2.914    -0.029    28.731     8.790
    14   6 C        2.917    -0.034    28.852     8.808
    15   6 C        2.985     0.004    27.920     8.668
    16   6 C        2.978    -0.008    28.211     8.712
    17   6 C        2.982     0.001    27.993     8.679
    18   6 C        2.924    -0.033    28.829     8.805
    19   6 C        2.918    -0.034    28.837     8.806
    20   6 C        2.920    -0.032    28.809     8.802
    21   6 C        2.922    -0.031    28.765     8.795
    22   6 C        2.972     0.004    27.922     8.668
    23   6 C        3.679     0.092    19.269     6.288
    24   8 O        1.656    -0.436    21.558     6.268
    25   6 C        2.984     0.003    27.962     8.674
    26   6 C        2.917    -0.034    28.859     8.809
    27   6 C        2.914    -0.030    28.742     8.791
    28   6 C        2.914    -0.029    28.734     8.790
    29   6 C        2.916    -0.040    29.002     8.831
    30   6 C        2.984    -0.001    28.052     8.688
    31   1 H        0.805     0.289     0.755     1.365
    32   1 H        0.923     0.018     2.766     2.601
    33   1 H        0.924     0.047     2.353     2.399
    34   1 H        0.926     0.037     2.495     2.470
    35   1 H        0.926     0.034     2.533     2.489
    36   1 H        0.926     0.033     2.540     2.492
    37   1 H        0.926     0.032     2.559     2.502
    38   1 H        0.926     0.030     2.582     2.513
    39   1 H        0.926     0.031     2.578     2.511
    40   1 H        0.926     0.031     2.566     2.505
    41   1 H        0.926     0.034     2.524     2.484
    42   1 H        0.926     0.030     2.589     2.516
    43   1 H        0.926     0.031     2.568     2.506
    44   1 H        0.926     0.033     2.545     2.495
    45   1 H        0.926     0.059     2.212     2.326
    46   1 H        0.923     0.021     2.712     2.575
    47   1 H        0.923     0.021     2.722     2.580
    48   1 H        0.805     0.287     0.760     1.369
    49   1 H        0.926     0.034     2.525     2.485
    50   1 H        0.926     0.032     2.560     2.502
    51   1 H        0.926     0.032     2.555     2.500
    52   1 H        0.926     0.034     2.535     2.490

molecular dipole:
                 x           y           z       tot (Debye)
 q only:       -0.240       0.241      -0.406
   full:       -0.436       0.293      -0.501       1.845

 projected vibrational frequencies (cm⁻¹)
eigval :       -0.00    -0.00    -0.00     0.00     0.00     0.00
eigval :       12.17    17.89    19.63    50.20    52.76    60.60
eigval :       67.01    68.88    77.15   108.92   131.63   148.69
eigval :      151.72   173.50   189.84   205.65   212.84   230.28
eigval :      242.28   263.49   303.04   307.06   335.14   369.92
eigval :      374.28   387.51   395.79   399.94   420.55   422.04
eigval :      446.08   457.75   458.82   471.55   486.63   506.43
eigval :      558.08   570.25   585.78   590.59   594.01   601.33
eigval :      614.79   633.58   669.88   684.06   692.23   716.23
eigval :      723.21   739.64   773.46   775.03   776.79   779.21
eigval :      797.70   814.55   876.39   878.22   885.03   886.99
eigval :      897.49   908.87   915.18   915.79   918.08   919.54
eigval :      920.01   928.95   929.17   929.40   930.39   933.83
eigval :      952.56   983.29  1051.21  1064.16  1077.30  1078.16
eigval :     1094.03  1096.70  1099.96  1121.24  1134.31  1147.11
eigval :     1159.13  1177.81  1179.21  1181.13  1181.94  1183.15
eigval :     1199.60  1203.02  1224.98  1231.38  1234.69  1242.53
eigval :     1256.52  1258.06  1260.76  1265.30  1293.55  1313.01
eigval :     1313.95  1325.89  1347.34  1348.91  1367.02  1374.29
eigval :     1385.49  1418.57  1429.28  1433.84  1435.84  1446.51
eigval :     1463.95  1471.98  1473.16  1485.04  1494.08  1526.04
eigval :     1533.47  1544.05  1576.68  1579.32  1598.70  1599.80
eigval :     1607.97  1622.52  2821.31  2853.96  2863.25  2983.61
eigval :     3073.17  3074.75  3075.13  3076.99  3077.76  3079.66
eigval :     3080.55  3080.95  3085.34  3088.06  3089.54  3090.83
eigval :     3094.23  3094.63  3096.52  3115.24  3506.35  3572.24

   temp. (K)  partition function   enthalpy   heat capacity  entropy
                                   cal/mol     cal/K/mol   cal/K/mol   J/K/mol
 298.15  VIB  0.134E+12            14412.159     90.954     90.072
         ROT  0.148E+08              888.752      2.981     35.797
         INT  0.199E+19            15300.912     93.935    125.869
         TR   0.747E+28             1481.254      4.968     43.759
         TOT                       16782.1655    98.9029   169.6280   709.7234

       T/K    H(0)-H(T)+PV         H(T)/Eh          T*S/Eh         G(T)/Eh
   ------------------------------------------------------------------------
    298.15    0.267441E-01    0.433203E+00    0.805957E-01    0.352608E+00
   ------------------------------------------------------------------------

         :::::::::::::::::::::::::::::::::::::::::::::::::::::
         ::                  THERMODYNAMIC                  ::
         :::::::::::::::::::::::::::::::::::::::::::::::::::::
         :: total free energy         -78.938417840693 Eh   ::
         ::.................................................::
         :: total energy              -79.291025437022 Eh   ::
         :: zero point energy           0.406459230460 Eh   ::
         :: G(RRHO) w/o ZPVE           -0.053851634130 Eh   ::
         :: G(RRHO) contrib.            0.352607596329 Eh   ::
         :::::::::::::::::::::::::::::::::::::::::::::::::::::

           -------------------------------------------------
          | TOTAL ENERGY              -79.291025437022 Eh   |
          | TOTAL ENTHALPY            -78.857822123542 Eh   |
          | TOTAL FREE ENERGY         -78.938417840693 Eh   |
          | GRADIENT NORM               0.000024016344 Eh/α |
          | HOMO-LUMO GAP               2.180359511194 eV   |
           -------------------------------------------------

 * finished run on 2025/07/18 at 17:57:02.009
