   * xtb version 6.7.1 (edcfbbe) compiled by 'albert@albert-system' on 2024-07-22

   ID    Z sym.   atoms
    1    8 O      1, 24
    2    6 C      2-23, 25-30
    3    1 H      31-52

          program call               : xtb data2507/gas/E-o-DHMPA/E-o-DHMPA_gas_S0_finalOpt.xtbopt.xyz --gfn 2 --spinpol --tblite --uhf 2 --ohess vtight --parallel 40 --molden --ceasefiles --namespace data2507/gas/E-o-DHMPA/E-o-DHMPA_gas_T1_preOpt
 * total energy  :   -79.2204430 Eh     change       -0.1596285E-07 Eh
 * total energy  :   -79.2270370 Eh     change       -0.6593952E-02 Eh
 * total energy  :   -79.2284829 Eh     change       -0.1445928E-02 Eh
 * total energy  :   -79.2285863 Eh     change       -0.1033956E-03 Eh
 * total energy  :   -79.2286634 Eh     change       -0.7707567E-04 Eh
 * total energy  :   -79.2287066 Eh     change       -0.4317326E-04 Eh
 * total energy  :   -79.2287689 Eh     change       -0.6233047E-04 Eh
 * total energy  :   -79.2288562 Eh     change       -0.8728521E-04 Eh
 * total energy  :   -79.2289370 Eh     change       -0.8083153E-04 Eh
 * total energy  :   -79.2289861 Eh     change       -0.4911092E-04 Eh
 * total energy  :   -79.2290854 Eh     change       -0.4995223E-05 Eh
 * total energy  :   -79.2290889 Eh     change       -0.3482907E-05 Eh
 * total energy  :   -79.2290900 Eh     change       -0.1184178E-05 Eh
 * total energy  :   -79.2290907 Eh     change       -0.6217516E-06 Eh
 * total energy  :   -79.2290905 Eh     change        0.1636155E-06 Eh
 * total energy  :   -79.2290910 Eh     change       -0.4912059E-06 Eh
 * total energy  :   -79.2290911 Eh     change       -0.1577709E-06 Eh
 * total energy  :   -79.2290915 Eh     change       -0.3167399E-06 Eh
 * total energy  :   -79.2290915 Eh     change       -0.6854721E-07 Eh
   *** GEOMETRY OPTIMIZATION CONVERGED AFTER 24 ITERATIONS ***

 final structure:
================
52
 xtb: 6.7.1 (edcfbbe)
O           -1.65480768527956       -0.22244553641503        2.45008336616811
C           -2.59959539623540        0.75166601091860        2.07150021731433
C           -3.44207062677587        0.35686804110993        0.87614192307303
C           -4.82626966855702        0.36646391230088        0.97449978483027
C           -5.62488192648983       -0.00782441860581       -0.09188543223095
C           -5.04014281714813       -0.41650588406402       -1.27838686651070
C           -3.66339928412822       -0.44131206762914       -1.38966446695224
C           -2.85198878463796       -0.04852674021915       -0.32712586401090
C           -1.38988109087980       -0.06591695603117       -0.48009739679956
C           -0.68528539804857        1.17209661882984       -0.56647838234595
C           -1.35552552232660        2.39429549873473       -0.64299469937735
C           -0.65330559629583        3.59678633965330       -0.74061554547993
C            0.72249107626650        3.58912267529520       -0.78000138810607
C            1.41543721273129        2.37796595800865       -0.71870870637621
C            0.73713285454588        1.16551165667180       -0.60141761904529
C            1.43432394330446       -0.07871516651087       -0.52821301267733
C            2.89024081822039       -0.06656773834203       -0.33072272575623
C            3.75303111616222       -0.49764947020234       -1.33623429411452
C            5.12218263985608       -0.47890048420571       -1.15097205197814
C            5.65009378373145       -0.03756794084075        0.05094687268554
C            4.80199432068537        0.37813923276434        1.06259276434744
C            3.42632508804743        0.37225690572829        0.88699515684710
C            2.51805191979057        0.82351387460956        2.00675582843606
O            1.34036301557097        0.05782327052020        2.14355459834035
C            0.72930221248426       -1.31993271972115       -0.58332493429845
C            1.39336092328214       -2.54662135975908       -0.58657109888979
C            0.68877404887523       -3.75253216066854       -0.59321589017695
C           -0.68653282344683       -3.74396392230407       -0.56421527762132
C           -1.37548043827166       -2.53019539241171       -0.52869206053391
C           -0.69679839253564       -1.31202653732125       -0.55419463796681
H           -0.81636660031050       -0.07057269029534        1.99552957601246
H           -2.10926469510004        1.71501305387840        1.87241792153961
H           -3.26107924461999        0.88202816610014        2.93474449121721
H           -5.28547496475880        0.66980197518738        1.90467062670601
H           -6.70017620269407        0.01161716109704        0.00599709229860
H           -5.65469913343395       -0.71589394183321       -2.11469684716975
H           -3.19702884199059       -0.74985854832440       -2.31460422719936
H           -2.43556416249104        2.40772443932149       -0.63204431594301
H           -1.19837571212503        4.52776995554610       -0.78889369709245
H            1.27460319581804        4.51373459723312       -0.86088761021381
H            2.49457849735823        2.37960419265484       -0.77191574399208
H            3.33454647567249       -0.82762733223318       -2.27615527916109
H            5.77759264103328       -0.80761505669138       -1.94391835777497
H            6.71884529477478       -0.02285563186483        0.20307862287780
H            5.21314328553068        0.71209882259196        2.00496951410426
H            2.17036113645740        1.84427949372094        1.81088199556482
H            3.08017112081915        0.83054521409913        2.95120833918330
H            1.57874080723845       -0.85958181848157        2.31892445826774
H            2.47307886150123       -2.56806431586270       -0.57941697237428
H            1.23335802372161       -4.68500524241073       -0.60761415557039
H           -1.24121180973695       -4.67021918370627       -0.55442606986684
H           -2.45263507071156       -2.53510066743158       -0.46704547980910

 projected vibrational frequencies (cm⁻¹)
eigval :       -0.00    -0.00    -0.00     0.00     0.00     0.00
eigval :       30.60    32.61    41.95    52.67    56.60    68.30
eigval :       74.46    91.88   107.41   114.15   123.11   146.32
eigval :      172.34   178.10   194.03   198.10   225.07   229.95
eigval :      254.43   263.47   291.52   293.56   339.69   346.85
eigval :      372.30   381.76   388.15   392.68   409.32   418.13
eigval :      432.30   457.14   458.47   471.17   486.25   502.26
eigval :      555.63   559.21   579.10   580.81   582.64   602.42
eigval :      605.85   614.81   662.11   668.20   692.97   705.29
eigval :      713.80   717.64   745.25   758.30   771.31   773.74
eigval :      806.76   809.91   834.89   844.22   879.21   884.19
eigval :      885.35   887.77   892.75   904.47   905.42   906.45
eigval :      911.08   915.83   917.71   926.47   928.07   941.43
eigval :      947.10   950.79  1060.66  1070.83  1089.11  1093.11
eigval :     1097.21  1098.75  1100.94  1109.95  1114.71  1142.48
eigval :     1149.93  1174.35  1179.90  1180.63  1181.34  1182.26
eigval :     1185.67  1186.88  1217.79  1220.62  1230.49  1246.94
eigval :     1252.07  1255.79  1258.93  1292.08  1294.35  1301.11
eigval :     1306.31  1308.76  1320.25  1334.81  1345.16  1355.14
eigval :     1374.45  1375.15  1384.73  1406.88  1428.93  1431.18
eigval :     1432.54  1455.70  1456.51  1464.79  1469.83  1479.05
eigval :     1482.37  1511.85  1532.96  1564.04  1564.96  1567.16
eigval :     1589.65  1590.16  2875.61  2883.60  2938.84  2944.19
eigval :     3069.11  3070.46  3072.34  3073.80  3075.74  3076.30
eigval :     3078.30  3081.65  3084.12  3085.26  3085.44  3091.53
eigval :     3092.43  3093.95  3095.08  3101.85  3505.25  3545.08

   temp. (K)  partition function   enthalpy   heat capacity  entropy
                                   cal/mol     cal/K/mol   cal/K/mol   J/K/mol
 298.15  VIB  0.729E+10            14363.050     93.051     87.902
         ROT  0.135E+08              888.752      2.981     35.609
         INT  0.984E+17            15251.803     96.032    123.511
         TR   0.747E+28             1481.254      4.968     43.759
         TOT                       16733.0566   101.0000   167.2692   699.8543

       T/K    H(0)-H(T)+PV         H(T)/Eh          T*S/Eh         G(T)/Eh
   ------------------------------------------------------------------------
    298.15    0.266658E-01    0.430786E+00    0.794750E-01    0.351311E+00
   ------------------------------------------------------------------------

         :::::::::::::::::::::::::::::::::::::::::::::::::::::
         ::                  THERMODYNAMIC                  ::
         :::::::::::::::::::::::::::::::::::::::::::::::::::::
         :: total free energy         -78.877780752992 Eh   ::
         ::.................................................::
         :: total energy              -79.229091579458 Eh   ::
         :: zero point energy           0.404119997383 Eh   ::
         :: G(RRHO) w/o ZPVE           -0.052809170916 Eh   ::
         :: G(RRHO) contrib.            0.351310826467 Eh   ::
         :::::::::::::::::::::::::::::::::::::::::::::::::::::

           -------------------------------------------------
          | TOTAL ENERGY              -79.229091579458 Eh   |
          | TOTAL ENTHALPY            -78.798305758969 Eh   |
          | TOTAL FREE ENERGY         -78.877780752992 Eh   |
          | GRADIENT NORM               0.000075523059 Eh/α |
           -------------------------------------------------

 * finished run on 2025/07/18 at 17:58:48.482
