   * xtb version 6.7.1 (edcfbbe) compiled by 'albert@albert-system' on 2024-07-22

   ID    Z sym.   atoms
    1    8 O      1, 24
    2    6 C      2-23, 25-30
    3    1 H      31-52

          program call               : xtb data2507/gas/E-o-DHMPA/E-o-DHMPA_gas_S0_crest.xyz --gfn 2 --ohess vtight --parallel 40 --molden --ceasefiles --namespace data2507/gas/E-o-DHMPA/E-o-DHMPA_gas_S0_finalOpt
          :  Hamiltonian                  GFN2-xTB          :
 * total energy  :   -79.2933518 Eh     change       -0.2404477E-09 Eh
 * total energy  :   -79.2933523 Eh     change       -0.4909608E-06 Eh
 * total energy  :   -79.2933529 Eh     change       -0.5852219E-06 Eh
 * total energy  :   -79.2933536 Eh     change       -0.7667398E-06 Eh
 * total energy  :   -79.2933542 Eh     change       -0.5267010E-06 Eh
 * total energy  :   -79.2933545 Eh     change       -0.3001475E-06 Eh
 * total energy  :   -79.2933547 Eh     change       -0.2753707E-06 Eh
 * total energy  :   -79.2933551 Eh     change       -0.3337807E-06 Eh
 * total energy  :   -79.2933553 Eh     change       -0.2534774E-06 Eh
 * total energy  :   -79.2933555 Eh     change       -0.1274654E-06 Eh
 * total energy  :   -79.2933555 Eh     change       -0.6386001E-07 Eh
   *** GEOMETRY OPTIMIZATION CONVERGED AFTER 11 ITERATIONS ***

 final structure:
================
52
 xtb: 6.7.1 (edcfbbe)
O           -1.72339178061791       -0.38602017228107        2.46253705997614
C           -2.60664015419769        0.63950076147265        2.06719988688904
C           -3.44920516051752        0.29773950281825        0.85542515853332
C           -4.83410014126694        0.29427811545241        0.95369719334100
C           -5.62901734795956       -0.00262905020804       -0.13935601550056
C           -5.04310711373245       -0.31041098391257       -1.35491525696743
C           -3.66512808218244       -0.31944081334129       -1.46677056911340
C           -2.86205139367423       -0.01554468814717       -0.37344857055530
C           -1.38906968130265       -0.03200075172530       -0.51364386454457
C           -0.69109441091760        1.17630684901534       -0.63144250902218
C           -1.36508415471559        2.42242867439529       -0.72512252641058
C           -0.67320009762111        3.59034310695583       -0.82013064303662
C            0.73669486776148        3.58385530371506       -0.83327096414604
C            1.41969280602483        2.40964053933742       -0.75047785777946
C            0.73651966528313        1.16998550704053       -0.64410609467090
C            1.42441213713405       -0.04424637860956       -0.53567238340829
C            2.89364494788764       -0.03570524717211       -0.36344795422237
C            3.73905155042665       -0.37904108289208       -1.41161922091298
C            5.11132849926642       -0.37803026409220       -1.24002906546986
C            5.65059417625933       -0.03921942040290       -0.01092437626685
C            4.81497296139483        0.29688847019090        1.03975619879693
C            3.43651600358196        0.30721313143923        0.87862713205080
C            2.54257235325309        0.70554556263052        2.03051660622367
O            1.39919421795938       -0.10492664058602        2.19907504982804
C            0.72722637784260       -1.25955902615460       -0.50781687236688
C            1.39844379884581       -2.50822932081062       -0.43613553781630
C            0.70505461301925       -3.67749255946810       -0.37080262750548
C           -0.70414527160101       -3.66999769424695       -0.35721118397300
C           -1.38539460912102       -2.49348217715176       -0.41056314325556
C           -0.70139019985611       -1.25296571748743       -0.49383357350303
H           -0.87471248463025       -0.28538743207661        2.01403111477245
H           -2.05905779967608        1.57319671469930        1.87663702703108
H           -3.27357387654934        0.80663939113503        2.91967651577024
H           -5.29554223859857        0.52891334835214        1.90230328799809
H           -6.70456210282263        0.00312389623055       -0.04119720858890
H           -5.65651751240824       -0.54523244808875       -2.21236080159464
H           -3.19540693335852       -0.55892875879229       -2.41040455568355
H           -2.44573039449571        2.42234962110699       -0.72974052174110
H           -1.19774807471214        4.53185475608607       -0.89257662482472
H            1.26848550566649        4.52053825021327       -0.91638694154479
H            2.50019152329756        2.40134338334644       -0.77754791752282
H            3.30787840508329       -0.64067232825633       -2.36727305699798
H            5.75839036185828       -0.64270774146350       -2.06310722452567
H            6.72095163264195       -0.03922061405286        0.13136760256495
H            5.23793915946704        0.55914333863887        1.99941429818498
H            2.15001434062110        1.71365042931027        1.85510782689567
H            3.13340060144621        0.72750931562623        2.95742707805828
H            1.67823076277372       -1.01585123170334        2.34508614612400
H            2.47914947700065       -2.51482707928670       -0.43896044656500
H            1.22980734323350       -4.62068659973744       -0.32244035782005
H           -1.23667935047854       -4.60762363785410       -0.29721404022964
H           -2.46454263161648       -2.48477825190614       -0.38778571115280

          :  Hamiltonian                  GFN2-xTB          :
         :: gradient norm              0.000071919962 Eh/a0 ::
         :: HOMO-LUMO gap              2.133525553941 eV    ::
         :: SCC energy               -80.679781289798 Eh    ::
         :: -> dispersion             -0.073320112016 Eh    ::
         :: repulsion energy           1.386425775467 Eh    ::

    * Orbital Energies and Occupations

         #    Occupation            Energy/Eh            Energy/eV
      -------------------------------------------------------------
         1        2.0000           -0.6949823             -18.9114
       ...           ...                  ...                  ...
        61        2.0000           -0.4253372             -11.5740
        62        2.0000           -0.4231193             -11.5137
        63        2.0000           -0.4189313             -11.3997
        64        2.0000           -0.4136400             -11.2557
        65        2.0000           -0.4080298             -11.1031
        66        2.0000           -0.4044738             -11.0063
        67        2.0000           -0.4021377             -10.9427
        68        2.0000           -0.4009528             -10.9105
        69        2.0000           -0.3983355             -10.8393
        70        2.0000           -0.3975453             -10.8178
        71        2.0000           -0.3926300             -10.6840
        72        2.0000           -0.3912361             -10.6461
        73        2.0000           -0.3564187              -9.6986 (HOMO)
        74                         -0.2780131              -7.5651 (LUMO)
        75                         -0.2315922              -6.3019
        76                         -0.2311070              -6.2887
        77                         -0.2283064              -6.2125
        78                         -0.2218712              -6.0374
        79                         -0.2206421              -6.0040
        80                         -0.2192541              -5.9662
        81                         -0.1751689              -4.7666
        82                         -0.1716429              -4.6706
        83                         -0.1036594              -2.8207
        84                         -0.0975740              -2.6551
       ...                                ...                  ...
       142                          0.7171032              19.5134
      -------------------------------------------------------------
                  HL-Gap            0.0784056 Eh            2.1335 eV

     #   Z          covCN         q      C6AA      α(0)
     1   8 O        1.655    -0.446    21.769     6.298
     2   6 C        3.678     0.083    19.406     6.310
     3   6 C        2.968    -0.004    28.110     8.697
     4   6 C        2.924    -0.036    28.902     8.816
     5   6 C        2.919    -0.032    28.799     8.800
     6   6 C        2.918    -0.033    28.818     8.803
     7   6 C        2.924    -0.034    28.853     8.809
     8   6 C        2.981     0.013    27.710     8.635
     9   6 C        2.979    -0.003    28.083     8.693
    10   6 C        2.985     0.006    27.887     8.662
    11   6 C        2.917    -0.034    28.857     8.809
    12   6 C        2.914    -0.031    28.769     8.795
    13   6 C        2.914    -0.031    28.774     8.796
    14   6 C        2.917    -0.035    28.862     8.810
    15   6 C        2.985     0.009    27.820     8.652
    16   6 C        2.979     0.001    28.005     8.681
    17   6 C        2.981     0.015    27.676     8.629
    18   6 C        2.923    -0.033    28.835     8.806
    19   6 C        2.919    -0.032    28.795     8.800
    20   6 C        2.919    -0.032    28.799     8.800
    21   6 C        2.923    -0.040    28.992     8.830
    22   6 C        2.971    -0.012    28.318     8.729
    23   6 C        3.679     0.082    19.426     6.313
    24   8 O        1.655    -0.445    21.736     6.294
    25   6 C        2.984     0.007    27.858     8.658
    26   6 C        2.917    -0.038    28.956     8.824
    27   6 C        2.915    -0.031    28.771     8.796
    28   6 C        2.915    -0.030    28.746     8.792
    29   6 C        2.917    -0.030    28.746     8.792
    30   6 C        2.985     0.008    27.823     8.653
    31   1 H        0.805     0.302     0.715     1.328
    32   1 H        0.923     0.020     2.727     2.583
    33   1 H        0.924     0.043     2.416     2.431
    34   1 H        0.926     0.032     2.552     2.498
    35   1 H        0.926     0.031     2.567     2.505
    36   1 H        0.926     0.031     2.577     2.510
    37   1 H        0.926     0.030     2.584     2.514
    38   1 H        0.926     0.030     2.588     2.515
    39   1 H        0.926     0.028     2.612     2.527
    40   1 H        0.926     0.028     2.622     2.532
    41   1 H        0.926     0.027     2.625     2.534
    42   1 H        0.926     0.034     2.530     2.487
    43   1 H        0.926     0.033     2.542     2.493
    44   1 H        0.926     0.033     2.546     2.495
    45   1 H        0.926     0.029     2.598     2.520
    46   1 H        0.924     0.053     2.283     2.363
    47   1 H        0.923     0.023     2.694     2.567
    48   1 H        0.805     0.291     0.748     1.358
    49   1 H        0.926     0.026     2.640     2.541
    50   1 H        0.926     0.027     2.628     2.535
    51   1 H        0.926     0.030     2.589     2.516
    52   1 H        0.926     0.037     2.491     2.468

molecular dipole:
                 x           y           z       tot (Debye)
 q only:        0.581       0.131      -0.378
   full:        0.888       0.172      -0.443       2.560

 projected vibrational frequencies (cm⁻¹)
eigval :       -0.00    -0.00     0.00     0.00     0.00     0.00
eigval :       24.63    33.78    35.66    51.27    65.74    67.39
eigval :       70.49    82.08   104.77   111.80   127.63   145.58
eigval :      170.07   179.74   193.29   200.03   217.11   227.80
eigval :      250.37   270.46   292.77   302.24   334.33   353.24
eigval :      378.78   391.68   397.30   402.77   415.60   448.03
eigval :      452.76   457.55   460.81   461.43   486.11   505.90
eigval :      567.26   570.39   586.40   590.86   591.07   609.31
eigval :      615.17   631.49   669.11   692.42   697.40   711.60
eigval :      719.82   739.30   770.43   775.05   777.19   778.02
eigval :      810.13   814.13   874.16   879.55   884.74   886.32
eigval :      897.36   908.83   913.68   915.07   917.70   918.55
eigval :      920.72   927.58   928.72   929.54   930.05   933.80
eigval :      944.90   949.21  1059.77  1068.05  1078.45  1081.02
eigval :     1095.45  1098.63  1100.03  1116.75  1135.41  1151.50
eigval :     1158.12  1174.09  1180.60  1181.67  1182.19  1184.01
eigval :     1199.48  1202.07  1227.20  1229.86  1239.57  1249.55
eigval :     1257.60  1259.57  1268.31  1296.41  1308.54  1309.98
eigval :     1320.00  1327.36  1342.97  1350.74  1354.83  1371.76
eigval :     1387.41  1418.88  1429.90  1432.52  1434.18  1445.99
eigval :     1459.61  1461.62  1468.96  1485.74  1494.91  1527.21
eigval :     1534.57  1544.25  1575.89  1576.94  1597.72  1598.10
eigval :     1608.21  1622.58  2878.39  2880.40  2940.79  2946.37
eigval :     3068.85  3070.50  3070.74  3070.92  3072.51  3074.51
eigval :     3076.44  3079.53  3081.22  3082.83  3084.60  3087.19
eigval :     3090.62  3091.29  3094.27  3098.22  3516.90  3546.39

   temp. (K)  partition function   enthalpy   heat capacity  entropy
                                   cal/mol     cal/K/mol   cal/K/mol   J/K/mol
 298.15  VIB  0.935E+10            14234.744     91.746     87.439
         ROT  0.135E+08              888.752      2.981     35.602
         INT  0.126E+18            15123.496     94.727    123.040
         TR   0.747E+28             1481.254      4.968     43.759
         TOT                       16604.7501    99.6950   166.7986   697.8855

       T/K    H(0)-H(T)+PV         H(T)/Eh          T*S/Eh         G(T)/Eh
   ------------------------------------------------------------------------
    298.15    0.264614E-01    0.433384E+00    0.792514E-01    0.354132E+00
   ------------------------------------------------------------------------

         :::::::::::::::::::::::::::::::::::::::::::::::::::::
         ::                  THERMODYNAMIC                  ::
         :::::::::::::::::::::::::::::::::::::::::::::::::::::
         :: total free energy         -78.939223399569 Eh   ::
         ::.................................................::
         :: total energy              -79.293355514327 Eh   ::
         :: zero point energy           0.406922177139 Eh   ::
         :: G(RRHO) w/o ZPVE           -0.052790062381 Eh   ::
         :: G(RRHO) contrib.            0.354132114758 Eh   ::
         :::::::::::::::::::::::::::::::::::::::::::::::::::::

           -------------------------------------------------
          | TOTAL ENERGY              -79.293355514327 Eh   |
          | TOTAL ENTHALPY            -78.859971983522 Eh   |
          | TOTAL FREE ENERGY         -78.939223399569 Eh   |
          | GRADIENT NORM               0.000071857671 Eh/α |
          | HOMO-LUMO GAP               2.133525315947 eV   |
           -------------------------------------------------

 * finished run on 2025/07/18 at 17:58:45.929
