   * xtb version 6.7.1 (edcfbbe) compiled by 'albert@albert-system' on 2024-07-22

   ID    Z sym.   atoms
    1    8 O      1, 24
    2    6 C      2-23, 25-30
    3    1 H      31-52

          program call               : xtb data2507/gas/E-o-DHMPA/E-o-DHMPA_gas_T1_crest.xyz --gfn 2 --spinpol --tblite --uhf 2 --ohess vtight --parallel 40 --molden --ceasefiles --namespace data2507/gas/E-o-DHMPA/E-o-DHMPA_gas_T1_finalOpt
 * total energy  :   -79.2290295 Eh     change       -0.1994827E-07 Eh
 * total energy  :   -79.2290628 Eh     change       -0.3331803E-04 Eh
 * total energy  :   -79.2290716 Eh     change       -0.8821076E-05 Eh
 * total energy  :   -79.2290750 Eh     change       -0.3352212E-05 Eh
 * total energy  :   -79.2290813 Eh     change       -0.6289690E-05 Eh
 * total energy  :   -79.2290859 Eh     change       -0.4611969E-05 Eh
 * total energy  :   -79.2290882 Eh     change       -0.2292766E-05 Eh
 * total energy  :   -79.2290896 Eh     change       -0.1380010E-05 Eh
 * total energy  :   -79.2290906 Eh     change       -0.1041622E-05 Eh
 * total energy  :   -79.2290912 Eh     change       -0.6375137E-06 Eh
 * total energy  :   -79.2290915 Eh     change       -0.3086043E-06 Eh
 * total energy  :   -79.2290915 Eh     change       -0.3414669E-08 Eh
   *** GEOMETRY OPTIMIZATION CONVERGED AFTER 12 ITERATIONS ***

 final structure:
================
52
 xtb: 6.7.1 (edcfbbe)
O           -1.33573071549289       -0.34639457865352        2.11403447555460
C           -2.51242617536473       -1.08844944769116        1.87584650221134
C           -3.42274165792417       -0.49049065800459        0.82885276214892
C           -4.79816180677719       -0.52226575021241        1.00356589577444
C           -5.64806239053407        0.02658724981095        0.05914758178014
C           -5.12217542398794        0.62894709562398       -1.07164027705138
C           -3.75329930927298        0.67432724656985       -1.25438983708087
C           -2.88870862754960        0.11080686983912       -0.31834369297157
C           -1.43306539700946        0.14994893327316       -0.51439649163800
C           -0.72736023820629        1.38676835735634       -0.39993943620858
C           -1.39076434976479        2.60284410792988       -0.23650725471968
C           -0.68545089346670        3.79793684381493       -0.07843198800943
C            0.68983354140102        3.78458120984549       -0.04989601520586
C            1.37808268917349        2.57688227791730       -0.17978874367227
C            0.69867566672607        1.37408280521905       -0.37164482529965
C            1.39117711425321        0.12916330208235       -0.46832400309973
C            2.85323390867725        0.09012874735091       -0.31886351953255
C            3.66523805468527        0.62342843534641       -1.31781102305315
C            5.04193948314822        0.58178237744948       -1.21113540007896
C            5.62609431535799        0.01314865461784       -0.09214318186217
C            4.82692032507855       -0.50192997701588        0.91336247247562
C            3.44272613009775       -0.47614973133329        0.81785976085905
C            2.59953525238044       -1.02716528235350        1.94919392761409
O            1.65642954078792       -0.11105755752533        2.45531218508711
C            0.68596190192735       -1.08491932356998       -0.72416727783113
C            1.35556889467125       -2.28531104912622       -0.96812492480130
C            0.65270192677114       -3.46227506037003       -1.23139951760615
C           -0.72309323313159       -3.44849051946631       -1.26954503580152
C           -1.41541839566496       -2.25712827881364       -1.04121749955449
C           -0.73641183311290       -1.07282258962378       -0.75799691030260
H           -1.57534745668374        0.53876934459226        2.41124649992662
H           -3.07329648995659       -1.22436233404627        2.81125179459454
H           -2.16351367851036       -2.07265150974231        1.54295089103604
H           -5.20765277049299       -0.98259974781676        1.89184383768595
H           -6.71659387960530       -0.01010520047337        0.20910858474167
H           -5.77899394121350        1.06275214964534       -1.81104391070416
H           -3.33648941875328        1.13005318788723       -2.14096591016793
H           -2.47047204923259        2.62376018498774       -0.22717670148896
H           -1.22938856455471        4.72410286004733        0.03394372033311
H            1.24494842932891        4.70052596624133        0.08649899261349
H            2.45518187404877        2.57253427056642       -0.11731499944238
H            3.19932877863021        1.05612292932878       -2.19182334403357
H            5.65696764205538        0.99231801356335       -1.99846566147492
H            6.70136285297702       -0.02139339336179        0.00177152412412
H            5.28565290685962       -0.93040442528897        1.79317846739957
H            3.26076173277920       -1.27341102606984        2.78699643093373
H            2.10766117278988       -1.95417411118521        1.62248286993270
H            0.81702470602825       -0.20037658478630        1.98615188686899
H            2.43558283313234       -2.30084862292431       -0.95840804362051
H            1.19714430522327       -4.37798739394374       -1.40809422756776
H           -1.27557215915733       -4.35274175518279       -1.47781844393981
H           -2.49457024436919       -2.25087431022603       -1.09378320967482

 projected vibrational frequencies (cm⁻¹)
eigval :       -0.00    -0.00    -0.00     0.00     0.00     0.00
eigval :       30.64    32.45    41.64    52.52    56.52    68.29
eigval :       74.46    92.05   107.19   113.81   122.99   146.22
eigval :      172.00   178.38   193.88   197.84   224.95   229.95
eigval :      254.39   263.96   291.51   293.94   339.79   346.84
eigval :      372.53   382.11   388.25   392.58   409.69   418.44
eigval :      432.49   457.11   458.29   471.18   486.21   502.19
eigval :      555.57   559.05   579.09   580.82   582.63   602.33
eigval :      605.70   614.79   662.32   668.16   692.95   705.31
eigval :      713.79   717.85   745.25   758.27   771.24   773.67
eigval :      806.70   809.91   834.96   844.02   879.15   883.99
eigval :      885.27   887.63   892.74   904.56   905.49   906.47
eigval :      911.07   915.78   917.61   926.46   927.91   941.19
eigval :      947.72   950.72  1060.71  1070.90  1089.08  1093.53
eigval :     1097.45  1099.29  1101.18  1109.82  1114.65  1142.35
eigval :     1150.11  1174.01  1179.61  1180.42  1181.00  1181.95
eigval :     1185.46  1186.61  1217.59  1220.30  1230.48  1246.76
eigval :     1251.87  1255.57  1258.67  1292.12  1294.30  1300.88
eigval :     1306.28  1308.57  1320.18  1334.56  1344.86  1354.54
eigval :     1374.34  1375.11  1384.67  1406.83  1428.72  1431.04
eigval :     1432.41  1455.20  1456.56  1464.50  1469.50  1479.02
eigval :     1482.16  1511.91  1533.02  1564.05  1565.08  1567.29
eigval :     1589.64  1590.13  2875.40  2883.32  2938.43  2943.19
eigval :     3068.73  3070.08  3072.08  3073.73  3075.66  3076.16
eigval :     3078.27  3081.37  3084.15  3085.07  3085.36  3091.40
eigval :     3092.02  3093.61  3094.89  3101.55  3504.88  3544.31

   temp. (K)  partition function   enthalpy   heat capacity  entropy
                                   cal/mol     cal/K/mol   cal/K/mol   J/K/mol
 298.15  VIB  0.741E+10            14364.023     93.039     87.911
         ROT  0.135E+08              888.752      2.981     35.608
         INT  0.100E+18            15252.776     96.020    123.519
         TR   0.747E+28             1481.254      4.968     43.759
         TOT                       16734.0295   100.9883   167.2777   699.8899

       T/K    H(0)-H(T)+PV         H(T)/Eh          T*S/Eh         G(T)/Eh
   ------------------------------------------------------------------------
    298.15    0.266674E-01    0.430760E+00    0.794790E-01    0.351281E+00
   ------------------------------------------------------------------------

         :::::::::::::::::::::::::::::::::::::::::::::::::::::
         ::                  THERMODYNAMIC                  ::
         :::::::::::::::::::::::::::::::::::::::::::::::::::::
         :: total free energy         -78.877811034451 Eh   ::
         ::.................................................::
         :: total energy              -79.229091542171 Eh   ::
         :: zero point energy           0.404092168060 Eh   ::
         :: G(RRHO) w/o ZPVE           -0.052811660340 Eh   ::
         :: G(RRHO) contrib.            0.351280507720 Eh   ::
         :::::::::::::::::::::::::::::::::::::::::::::::::::::

           -------------------------------------------------
          | TOTAL ENERGY              -79.229091542171 Eh   |
          | TOTAL ENTHALPY            -78.798332000612 Eh   |
          | TOTAL FREE ENERGY         -78.877811034451 Eh   |
          | GRADIENT NORM               0.000140520527 Eh/α |
           -------------------------------------------------

 * finished run on 2025/07/18 at 18:00:28.967
