   * xtb version 6.7.1 (edcfbbe) compiled by 'albert@albert-system' on 2024-07-22

   ID    Z sym.   atoms
    1    6 C      1-4, 6-23, 25-39, 41, 42, 44, 45, 47-52, 54-58
    2    7 N      5, 24, 40, 43
    3   16 S      46, 53
    4    1 H      59-92

          program call               : xtb data2507/gas/pDTPA-DTPZ/pDTPA-DTPZ_gas_T1_crest.xyz --gfn 2 --spinpol --tblite --uhf 2 --ohess vtight --parallel 40 --molden --ceasefiles --namespace data2507/gas/pDTPA-DTPZ/pDTPA-DTPZ_gas_T1_finalOpt
 * total energy  :  -146.8763920 Eh     change       -0.4778371E-08 Eh
 * total energy  :  -146.8764411 Eh     change       -0.4914151E-04 Eh
 * total energy  :  -146.8764622 Eh     change       -0.2105854E-04 Eh
 * total energy  :  -146.8764684 Eh     change       -0.6222181E-05 Eh
 * total energy  :  -146.8764740 Eh     change       -0.5535781E-05 Eh
 * total energy  :  -146.8764777 Eh     change       -0.3750981E-05 Eh
 * total energy  :  -146.8764827 Eh     change       -0.4950167E-05 Eh
 * total energy  :  -146.8764853 Eh     change       -0.2651462E-05 Eh
 * total energy  :  -146.8764876 Eh     change       -0.2306859E-05 Eh
 * total energy  :  -146.8764907 Eh     change       -0.3041470E-05 Eh
 * total energy  :  -146.8765295 Eh     change       -0.5521246E-06 Eh
 * total energy  :  -146.8765300 Eh     change       -0.4505109E-06 Eh
 * total energy  :  -146.8765305 Eh     change       -0.5150273E-06 Eh
 * total energy  :  -146.8765311 Eh     change       -0.6452272E-06 Eh
 * total energy  :  -146.8765318 Eh     change       -0.6906992E-06 Eh
 * total energy  :  -146.8765324 Eh     change       -0.5341171E-06 Eh
 * total energy  :  -146.8765328 Eh     change       -0.4066543E-06 Eh
 * total energy  :  -146.8765331 Eh     change       -0.3395972E-06 Eh
 * total energy  :  -146.8765331 Eh     change       -0.4384248E-08 Eh
   *** GEOMETRY OPTIMIZATION CONVERGED AFTER 44 ITERATIONS ***

 final structure:
================
92
 xtb: 6.7.1 (edcfbbe)
C           -9.00330098659072       -2.34235983036168        0.01984398539903
C           -7.80285732760410       -2.17170262249212        0.69029073969456
C           -7.16748019956419       -0.94575039060974        0.68786929617927
C           -7.72462055163704        0.13268496677209       -0.00039484047871
N           -7.07957435458630        1.37470494265008       -0.01447165130659
C           -7.82758474212309        2.55573733970645        0.00664012668997
C           -7.41140241813287        3.66832479136021       -0.72531366706769
C           -8.15042108250822        4.83466761887341       -0.69887957992249
C           -9.31505042572084        4.91133594568857        0.04756921778730
C           -9.73432616679691        3.80863854894181        0.77418681456504
C           -8.99877377142799        2.63991269875085        0.76029236334012
C           -5.68424631164408        1.43021852723873       -0.05101494451137
C           -4.98837813306242        2.42167014955663        0.64345187418285
C           -3.61138154036269        2.45280668048190        0.62640894972660
C           -2.87540850908255        1.48657715699610       -0.06460826275322
C           -1.41446811663264        1.48570752674367       -0.01580840374204
C           -0.68121321735393        2.67404895232751        0.00455919432576
C            0.69703255927891        2.67080788359512        0.00961344487111
C            1.42516492325502        1.47919577706419        0.02778979694535
C            2.88626646636245        1.47472537863532        0.07084761643209
C            3.59225219584944        0.50160119913138        0.78137107330298
C            4.96789601515455        0.46962917333510        0.77482852070906
C            5.69515858964605        1.41187724083945        0.04567575155269
N            7.09021576846267        1.35606150025317        0.00476813447616
C            7.83718409202345        2.53793316654437       -0.02459164554095
C            9.00177820408434        2.62173204373696       -0.78833462921479
C            9.73581620673436        3.79129636380860       -0.81103790000202
C            9.32144650353237        4.89501721348821       -0.08316517060569
C            8.16348480720445        4.81855472172636        0.67361329734182
C            7.42609086632865        3.65140418580416        0.70880168754510
C            7.73772472941231        0.11540573428530       -0.00679546865178
C            8.94841809381347       -0.05605613697187        0.66477064284122
C            9.58487976572050       -1.28179736672730        0.64941607465005
C            9.02464446898667       -2.35551153099592       -0.02320674954613
C            7.81967093498103       -2.19186504639164       -0.68723101872120
C            7.18013197320779       -0.96803524121919       -0.68674753980048
C            4.99846759338383        2.40480227053230       -0.64600989521719
C            3.62175760588132        2.43931220475167       -0.62305228895038
C            0.72486258511171        0.26003753601118        0.01749797303009
N            1.36007333179563       -0.91007419174762        0.00498471343459
C            0.71830102621930       -2.06743292094636        0.01617420075584
C           -0.72433764145710       -2.06389355824245       -0.00426501246762
N           -1.36040336118673       -0.90347713390449        0.00816260695341
C           -0.71953426339245        0.26350615008355       -0.00423387120168
C           -1.38232938671315       -3.29995186868335       -0.03121893796149
S           -3.10947872864943       -3.50272540793204       -0.09400277383349
C           -2.91764570851664       -5.22171843559570       -0.09673683696812
C           -1.62588672479927       -5.62218900001046       -0.05526776318983
C           -0.71556990563814       -4.53334620823386       -0.01889802639627
C            0.69679695878943       -4.53691238664434        0.02579788260894
C            1.60148493980734       -5.63051450355617        0.05937885477427
C            2.89530014529355       -5.23684331821179        0.10153427436563
S            3.09595812913680       -3.51886279772491        0.10296477641123
C            1.36988707179834       -3.30694668595443        0.04087491166146
C           -3.58069264519726        0.51609668289375       -0.77949824330865
C           -4.95629782169651        0.48712514360033       -0.77833788217917
C           -8.93078617161672       -0.04572127258364       -0.67814468748254
C           -9.56316504356771       -1.27359174464169       -0.66091618042801
H           -9.49871384624278       -3.30135265345866        0.02667670262152
H           -7.35915619034475       -2.99752385674430        1.22623719748213
H           -6.23640960881664       -0.81540556812889        1.21896951331542
H           -6.51027308211364        3.60629338478387       -1.31761356234514
H           -7.81900243325584        5.68746086533633       -1.27292897635640
H           -9.89178222855334        5.82356892536699        0.06291262626720
H          -10.63766931924686        3.86146495190152        1.36391815319669
H           -9.32149804224404        1.78537080368872        1.33679983997181
H           -5.53859266823365        3.15381212871519        1.21675520534852
H           -3.09559772917112        3.20733361026450        1.20143696149975
H           -1.20934590596133        3.61535259245699       -0.01322743655262
H            1.22941066357898        3.60969809813857        0.02823480379827
H            3.05292519711524       -0.23209508750668        1.35897264047296
H            5.49300721715043       -0.28775927949689        1.33779287698390
H            9.32054310138471        1.76624075661320       -1.36564677863357
H           10.63396487263649        3.84397078499032       -1.40865558667741
H            9.89682037934384        5.80796172029834       -0.10556509635824
H            7.83600572787295        5.67217847466611        1.24867826347963
H            6.53004301113760        3.58951975823379        1.30877941775970
H            9.38103112888798        0.77531495933120        1.20201955117583
H           10.52082992637242       -1.40123517982073        1.17518869986695
H            9.52330820329532       -3.31282454237408       -0.02874309335177
H            7.37563407318946       -3.02165592413888       -1.21673510134379
H            6.24568544334637       -0.84326446183995       -1.21323206371245
H            5.54779965585783        3.13583446321754       -1.22155094615139
H            3.10547027191760        3.19532474156417       -1.19565281744050
H           -3.79576899931471       -5.83643026370905       -0.13006183489570
H           -1.32077396398038       -6.65306509092133       -0.05126043826628
H            1.29100430795645       -6.65977473842752        0.05288831536753
H            3.77023941497415       -5.85616076674925        0.13319509156835
H           -3.04077281639921       -0.21794499668050       -1.35607301358205
H           -5.48102961858003       -0.26870250163233       -1.34374622696970
H           -9.36285650609155        0.78170796852335       -1.22188144707249
H          -10.49546978425490       -1.39870541549402       -1.19182211307417

 projected vibrational frequencies (cm⁻¹)
eigval :       -0.00    -0.00     0.00     0.00     0.00     0.00
eigval :        8.04     8.93    10.80    11.61    19.11    19.28
eigval :       35.65    38.59    45.19    47.00    48.78    53.03
eigval :       60.55    64.70    69.17    71.74    79.82    94.00
eigval :       95.86   103.22   106.59   116.45   126.83   136.61
eigval :      155.28   169.75   173.47   182.83   191.94   202.91
eigval :      224.96   233.71   234.14   236.21   253.09   280.95
eigval :      283.10   306.61   314.83   320.58   332.64   333.82
eigval :      342.06   350.59   357.33   362.14   377.62   377.89
eigval :      379.34   379.60   387.52   389.24   390.12   411.68
eigval :      416.11   419.67   424.70   430.16   431.74   458.82
eigval :      479.43   482.77   489.47   490.41   498.21   507.63
eigval :      511.17   535.92   547.54   570.37   576.10   577.01
eigval :      582.76   585.82   587.33   588.15   589.84   592.84
eigval :      595.16   598.41   611.86   619.33   622.32   640.58
eigval :      653.13   655.57   658.10   659.53   659.60   667.72
eigval :      669.17   678.70   688.34   693.06   701.09   729.67
eigval :      736.90   738.09   753.55   756.73   756.77   758.07
eigval :      760.92   760.97   803.12   809.64   810.59   824.15
eigval :      825.21   828.96   835.18   858.65   858.75   863.55
eigval :      873.27   873.35   875.16   875.71   890.54   892.23
eigval :      892.57   892.73   897.22   899.10   900.68   908.60
eigval :      908.64   910.58   910.65   920.46   920.67   927.05
eigval :      927.08   928.58   928.63   928.81   928.93   929.42
eigval :      929.53   941.44   942.08   951.83   985.87   986.26
eigval :     1004.64  1004.64  1016.12  1021.68  1034.76  1074.40
eigval :     1083.25  1083.38  1084.18  1084.19  1096.71  1120.72
eigval :     1122.18  1122.33  1124.81  1124.92  1142.12  1145.08
eigval :     1148.50  1152.49  1179.99  1180.01  1180.18  1180.19
eigval :     1184.26  1185.41  1193.39  1194.69  1194.74  1197.40
eigval :     1206.68  1213.36  1218.51  1226.34  1238.11  1254.51
eigval :     1268.59  1271.94  1275.07  1277.96  1278.01  1279.97
eigval :     1281.93  1287.82  1299.16  1301.41  1312.78  1315.63
eigval :     1318.63  1318.78  1323.28  1325.83  1327.67  1327.80
eigval :     1327.97  1334.86  1354.50  1360.34  1390.79  1401.18
eigval :     1413.96  1416.30  1432.36  1435.63  1435.70  1442.80
eigval :     1443.21  1468.46  1468.51  1472.19  1472.33  1473.62
eigval :     1475.89  1483.06  1485.61  1494.95  1504.06  1513.19
eigval :     1531.08  1535.17  1546.16  1546.74  1575.05  1575.07
eigval :     1579.01  1579.15  1586.32  1588.63  1591.68  1591.74
eigval :     1598.38  1598.48  3075.81  3075.83  3075.93  3076.20
eigval :     3076.78  3076.86  3077.98  3078.05  3080.48  3080.49
eigval :     3083.05  3085.14  3085.20  3086.65  3086.66  3087.58
eigval :     3087.66  3088.94  3089.71  3090.11  3090.33  3092.41
eigval :     3092.50  3095.86  3097.72  3098.01  3098.48  3098.92
eigval :     3103.17  3103.54  3128.62  3132.76  3157.72  3157.86

   temp. (K)  partition function   enthalpy   heat capacity  entropy
                                   cal/mol     cal/K/mol   cal/K/mol   J/K/mol
 298.15  VIB  0.785E+23            27786.002    173.046    175.580
         ROT  0.987E+08              888.752      2.981     39.562
         INT  0.775E+31            28674.754    176.027    215.142
         TR   0.210E+29             1481.254      4.968     45.816
         TOT                       30156.0081   180.9947   260.9583  1091.8495

       T/K    H(0)-H(T)+PV         H(T)/Eh          T*S/Eh         G(T)/Eh
   ------------------------------------------------------------------------
    298.15    0.480567E-01    0.737268E+00    0.123990E+00    0.613278E+00
   ------------------------------------------------------------------------

         :::::::::::::::::::::::::::::::::::::::::::::::::::::
         ::                  THERMODYNAMIC                  ::
         :::::::::::::::::::::::::::::::::::::::::::::::::::::
         :: total free energy        -146.263255315463 Eh   ::
         ::.................................................::
         :: total energy             -146.876533117963 Eh   ::
         :: zero point energy           0.689210852653 Eh   ::
         :: G(RRHO) w/o ZPVE           -0.075933050153 Eh   ::
         :: G(RRHO) contrib.            0.613277802500 Eh   ::
         :::::::::::::::::::::::::::::::::::::::::::::::::::::

           -------------------------------------------------
          | TOTAL ENERGY             -146.876533117963 Eh   |
          | TOTAL ENTHALPY           -146.139265607473 Eh   |
          | TOTAL FREE ENERGY        -146.263255315463 Eh   |
          | GRADIENT NORM               0.000050526818 Eh/α |
           -------------------------------------------------

 * finished run on 2025/09/11 at 07:30:20.066
