   * xtb version 6.7.1 (edcfbbe) compiled by 'albert@albert-system' on 2024-07-22

   ID    Z sym.   atoms
    1    6 C      1-4, 6-23, 25-39, 41, 42, 44, 45, 47-52, 54-58
    2    7 N      5, 24, 40, 43
    3   16 S      46, 53
    4    1 H      59-92

          program call               : xtb data2507/gas/pDTPA-DTPZ/pDTPA-DTPZ_gas_S0_crest.xyz --gfn 2 --ohess vtight --parallel 40 --molden --ceasefiles --namespace data2507/gas/pDTPA-DTPZ/pDTPA-DTPZ_gas_S0_finalOpt
          :  Hamiltonian                  GFN2-xTB          :
 * total energy  :  -146.9167051 Eh     change       -0.1092189E-08 Eh
 * total energy  :  -146.9167064 Eh     change       -0.1260712E-05 Eh
 * total energy  :  -146.9167085 Eh     change       -0.2085807E-05 Eh
 * total energy  :  -146.9167115 Eh     change       -0.3089724E-05 Eh
 * total energy  :  -146.9167134 Eh     change       -0.1824871E-05 Eh
 * total energy  :  -146.9167149 Eh     change       -0.1574822E-05 Eh
 * total energy  :  -146.9167174 Eh     change       -0.2477834E-05 Eh
 * total energy  :  -146.9167213 Eh     change       -0.3897610E-05 Eh
 * total energy  :  -146.9167256 Eh     change       -0.4240207E-05 Eh
 * total energy  :  -146.9167295 Eh     change       -0.3982527E-05 Eh
 * total energy  :  -146.9167726 Eh     change       -0.2497925E-06 Eh
 * total energy  :  -146.9167729 Eh     change       -0.2764228E-06 Eh
 * total energy  :  -146.9167732 Eh     change       -0.3012456E-06 Eh
 * total energy  :  -146.9167735 Eh     change       -0.3352129E-06 Eh
 * total energy  :  -146.9167738 Eh     change       -0.2984528E-06 Eh
 * total energy  :  -146.9167741 Eh     change       -0.2619671E-06 Eh
 * total energy  :  -146.9167744 Eh     change       -0.2763387E-06 Eh
 * total energy  :  -146.9167747 Eh     change       -0.2948486E-06 Eh
 * total energy  :  -146.9167747 Eh     change       -0.3228479E-08 Eh
   *** GEOMETRY OPTIMIZATION CONVERGED AFTER 44 ITERATIONS ***

 final structure:
================
92
 xtb: 6.7.1 (edcfbbe)
C           -8.92352928297535       -2.41232238016093       -0.20388225037338
C           -7.69836383670824       -2.26549064219674        0.42592362474042
C           -7.08834613679218       -1.02837173164117        0.49261977183485
C           -7.69612348717436        0.08676134164744       -0.08513182961475
N           -7.07861559526415        1.34185671042325       -0.02907516497064
C           -7.84964563996522        2.49865729911869        0.12591208588017
C           -7.49220556824328        3.67724076729042       -0.52918399398182
C           -8.25234958384022        4.81949141382315       -0.37155696115498
C           -9.38147009369545        4.80642013251203        0.43095820994779
C           -9.74301853457543        3.63773293975219        1.08105638094925
C           -8.98471553251608        2.49245018730378        0.93656117254761
C           -5.68660489032717        1.43247842061889       -0.10868596114430
C           -4.98678162635649        2.37673528798331        0.64364088057029
C           -3.61048364282933        2.43021903024373        0.58957679086808
C           -2.88672416892131        1.53838985427898       -0.20129312110234
C           -1.42380675860445        1.54948644459699       -0.19179528797469
C           -0.69320425705367        2.71614093671410       -0.19867071346113
C            0.70616955065907        2.71432740601299       -0.19798549548767
C            1.43359969343827        1.54573777721298       -0.18991452110150
C            2.89646397644128        1.53039795123377       -0.19916660350776
C            3.59971571896412        0.60684049955037       -0.97283283964865
C            4.97469260237056        0.55398488852485       -0.93550753520413
C            5.69606428279309        1.41659585703418       -0.10886518940357
N            7.08794039290897        1.32232075199816       -0.03074961060044
C            7.70194701643227        0.06564963010342       -0.08936759080063
C            8.93127633002372       -0.09152246843350       -0.72919113111192
C            9.53363930633454       -1.33337365065649       -0.78451440371563
C            8.92041470892328       -2.43749954324235       -0.21559549219614
C            7.69686483340764       -2.28773353652066        0.41665499688307
C            7.09138937842388       -1.04861547567496        0.48719259011170
C            7.86202447111054        2.47736362580800        0.12217378702416
C            7.50609064923066        3.65640271295275       -0.53294023972981
C            8.26911624199699        4.79700601242928       -0.37738429528475
C            9.39964994204314        4.78180765848365        0.42310083285320
C            9.75971960962714        3.61265880489344        1.07319515157798
C            8.99857226640797        2.46899191904622        0.93071623116472
C            4.99949677550766        2.36247785680724        0.64444307637054
C            3.62329002073506        2.41992365598664        0.59144298430815
C            0.71916328520325        0.31474479132768       -0.14196843639291
N            1.39631062020782       -0.83373554394222       -0.05117711526126
C            0.71989622235748       -1.96389384062132        0.01271540380460
C           -0.71939049891079       -1.96220361213071        0.00941437001622
N           -1.39287546676101       -0.83038561019457       -0.05605582970975
C           -0.71270296093907        0.31656026106515       -0.14361944941773
C           -1.38913276545929       -3.20858272611012        0.09278833867630
S           -3.10704382356494       -3.41557094169195        0.09830583254131
C           -2.91161155178470       -5.12497784799315        0.20834724904253
C           -1.61493060833260       -5.52006466977630        0.23983200084183
C           -0.71676768050859       -4.42481899412452        0.17316808200678
C            0.71077614220154       -4.42642516246880        0.17742925785754
C            1.60606067687523       -5.52365862949250        0.24990490092191
C            2.90378908535604       -5.13149631637279        0.22594796229581
S            3.10371325160214       -3.42258496941874        0.11614722236168
C            1.38633871001204       -3.21174155063528        0.10047656017462
C           -3.59320013824877        0.61671130635800       -0.97427264307765
C           -4.96831629993364        0.56764208828290       -0.93569525710940
C           -8.92682966846311       -0.06757915575315       -0.72301040943456
C           -9.53364337572791       -1.30740796253506       -0.77462480142718
H           -9.39942160867263       -3.38018400524462       -0.25037590942542
H           -7.21487713798329       -3.11946146102898        0.87711874468076
H           -6.13704405923310       -0.91873746541101        0.99178636607966
H           -6.61806337061869        3.68658146817326       -1.16377453568378
H           -7.96562066120874        5.72467730748297       -0.88665953989392
H           -9.97514598587701        5.70019006582725        0.54892114114807
H          -10.61847670929357        3.61962506424034        1.71357711032186
H           -9.26298555896604        1.58548245172351        1.45314691918126
H           -5.53048892531486        3.05365929433898        1.28657844713177
H           -3.08350843374788        3.14487014252869        1.20512700993159
H           -1.21215173645991        3.66312779832288       -0.23812352128931
H            1.22769268859910        3.65991644316027       -0.23706348942408
H            3.06009060357347       -0.06618132853083       -1.61912036404390
H            5.50489000619335       -0.16332423291946       -1.54446147307644
H            9.40665003617223        0.76476060037518       -1.18508959149747
H           10.48507776718093       -1.44073122547835       -1.28468068180027
H            9.39260698852794       -3.40700404573238       -0.26544221172529
H            7.21097019455468       -3.14101268419639        0.86656821778044
H            6.14128372616367       -0.93681984566051        0.98815063731405
H            6.63083415036413        3.66736747826464       -1.16596894960962
H            7.98351388234038        5.70253773499964       -0.89250847506447
H            9.99557333306993        5.67429316023696        0.53946327788338
H           10.63630240552756        3.59294887446247        1.70410974506095
H            9.27572253500192        1.56166794288195        1.44728098032827
H            5.54565304978588        3.03770013591821        1.28709948445322
H            3.09879757481093        3.13597208859761        1.20749170052101
H           -3.78536940337989       -5.74584411583777        0.24305587411706
H           -1.30341102446104       -6.54656307258589        0.30698220521071
H            1.29184483557296       -6.54942120940016        0.31573645534191
H            3.77591693644530       -5.75431121475927        0.26632018367607
H           -3.05599944195764       -0.05798212831458       -1.62082135608119
H           -5.50103680434680       -0.14846226156737       -1.54387368616820
H           -9.39983694094674        0.78939674799214       -1.18007315930537
H          -10.48620191733277       -1.41256006906602       -1.27312866584207

          :  Hamiltonian                  GFN2-xTB          :
         :: gradient norm              0.000039840549 Eh/a0 ::
         :: HOMO-LUMO gap              1.124480713310 eV    ::
         :: SCC energy              -149.570164281394 Eh    ::
         :: -> dispersion             -0.139825785050 Eh    ::
         :: repulsion energy           2.653389612027 Eh    ::

    * Orbital Energies and Occupations

         #    Occupation            Energy/Eh            Energy/eV
      -------------------------------------------------------------
         1        2.0000           -0.7320719             -19.9207
       ...           ...                  ...                  ...
       125        2.0000           -0.4034547             -10.9786
       126        2.0000           -0.4023951             -10.9497
       127        2.0000           -0.4023316             -10.9480
       128        2.0000           -0.4011478             -10.9158
       129        2.0000           -0.3998361             -10.8801
       130        2.0000           -0.3994762             -10.8703
       131        2.0000           -0.3985491             -10.8451
       132        2.0000           -0.3854882             -10.4897
       133        2.0000           -0.3842074             -10.4548
       134        2.0000           -0.3745648             -10.1924
       135        2.0000           -0.3472438              -9.4490
       136        2.0000           -0.3465976              -9.4314
       137        2.0000           -0.3425796              -9.3221 (HOMO)
       138                         -0.3012557              -8.1976 (LUMO)
       139                         -0.2658433              -7.2340
       140                         -0.2488385              -6.7712
       141                         -0.2275270              -6.1913
       142                         -0.2274426              -6.1890
       143                         -0.2267392              -6.1699
       144                         -0.2248500              -6.1185
       145                         -0.2236488              -6.0858
       146                         -0.2236373              -6.0855
       147                         -0.2190516              -5.9607
       148                         -0.2187017              -5.9512
       ...                                ...                  ...
       276                          0.7334773              19.9589
      -------------------------------------------------------------
                  HL-Gap            0.0413239 Eh            1.1245 eV

     #   Z          covCN         q      C6AA      α(0)
     1   6 C        2.919    -0.039    28.961     8.825
     2   6 C        2.920    -0.029    28.722     8.788
     3   6 C        2.922    -0.047    29.170     8.857
     4   6 C        2.924     0.065    26.541     8.448
     5   7 N        2.752    -0.072    22.646     7.068
     6   6 C        2.924     0.065    26.539     8.448
     7   6 C        2.923    -0.048    29.181     8.859
     8   6 C        2.919    -0.029    28.735     8.790
     9   6 C        2.919    -0.039    28.961     8.825
    10   6 C        2.920    -0.029    28.734     8.790
    11   6 C        2.922    -0.047    29.179     8.858
    12   6 C        2.925     0.064    26.559     8.451
    13   6 C        2.920    -0.049    29.211     8.863
    14   6 C        2.924    -0.034    28.839     8.807
    15   6 C        2.976     0.010    27.794     8.648
    16   6 C        2.974    -0.001    28.057     8.689
    17   6 C        2.919    -0.037    28.930     8.820
    18   6 C        2.919    -0.037    28.930     8.820
    19   6 C        2.974    -0.001    28.057     8.689
    20   6 C        2.976     0.010    27.793     8.648
    21   6 C        2.924    -0.025    28.616     8.773
    22   6 C        2.921    -0.047    29.167     8.856
    23   6 C        2.925     0.064    26.559     8.451
    24   7 N        2.752    -0.072    22.645     7.068
    25   6 C        2.924     0.065    26.541     8.449
    26   6 C        2.922    -0.048    29.189     8.860
    27   6 C        2.920    -0.030    28.742     8.792
    28   6 C        2.919    -0.039    28.961     8.825
    29   6 C        2.920    -0.029    28.722     8.788
    30   6 C        2.922    -0.047    29.170     8.857
    31   6 C        2.924     0.065    26.539     8.448
    32   6 C        2.923    -0.048    29.181     8.859
    33   6 C        2.919    -0.029    28.735     8.790
    34   6 C        2.919    -0.039    28.961     8.825
    35   6 C        2.920    -0.029    28.734     8.790
    36   6 C        2.922    -0.047    29.179     8.858
    37   6 C        2.920    -0.049    29.210     8.863
    38   6 C        2.924    -0.034    28.839     8.807
    39   6 C        2.967     0.079    26.233     8.401
    40   7 N        1.848    -0.238    27.083     7.713
    41   6 C        2.980     0.078    26.264     8.406
    42   6 C        2.980     0.078    26.264     8.406
    43   7 N        1.848    -0.238    27.083     7.713
    44   6 C        2.967     0.079    26.233     8.401
    45   6 C        3.011     0.003    27.940     8.671
    46  16 S        2.268     0.008   140.734    19.966
    47   6 C        2.942    -0.019    28.490     8.754
    48   6 C        3.082    -0.048    29.090     8.842
    49   6 C        3.152    -0.006    27.872     8.634
    50   6 C        3.152    -0.006    27.872     8.634
    51   6 C        3.082    -0.048    29.090     8.842
    52   6 C        2.942    -0.019    28.490     8.754
    53  16 S        2.268     0.008   140.733    19.966
    54   6 C        3.011     0.003    27.940     8.671
    55   6 C        2.924    -0.025    28.616     8.773
    56   6 C        2.921    -0.047    29.167     8.856
    57   6 C        2.922    -0.048    29.188     8.860
    58   6 C        2.920    -0.030    28.742     8.792
    59   1 H        0.926     0.029     2.601     2.522
    60   1 H        0.926     0.031     2.566     2.505
    61   1 H        0.926     0.036     2.503     2.474
    62   1 H        0.926     0.032     2.560     2.502
    63   1 H        0.926     0.031     2.574     2.509
    64   1 H        0.926     0.030     2.593     2.518
    65   1 H        0.926     0.031     2.573     2.508
    66   1 H        0.926     0.032     2.560     2.502
    67   1 H        0.926     0.032     2.556     2.500
    68   1 H        0.926     0.033     2.550     2.497
    69   1 H        0.926     0.038     2.478     2.462
    70   1 H        0.926     0.038     2.478     2.462
    71   1 H        0.926     0.045     2.382     2.413
    72   1 H        0.926     0.035     2.521     2.483
    73   1 H        0.926     0.031     2.572     2.508
    74   1 H        0.926     0.030     2.580     2.512
    75   1 H        0.926     0.029     2.601     2.522
    76   1 H        0.926     0.031     2.566     2.505
    77   1 H        0.926     0.036     2.503     2.474
    78   1 H        0.926     0.032     2.560     2.502
    79   1 H        0.926     0.031     2.574     2.509
    80   1 H        0.926     0.030     2.593     2.518
    81   1 H        0.926     0.031     2.573     2.508
    82   1 H        0.926     0.032     2.560     2.502
    83   1 H        0.926     0.032     2.556     2.500
    84   1 H        0.926     0.033     2.550     2.497
    85   1 H        0.926     0.050     2.314     2.379
    86   1 H        0.926     0.043     2.406     2.426
    87   1 H        0.926     0.043     2.406     2.426
    88   1 H        0.926     0.050     2.314     2.379
    89   1 H        0.926     0.045     2.380     2.412
    90   1 H        0.926     0.035     2.521     2.483
    91   1 H        0.926     0.031     2.572     2.508
    92   1 H        0.926     0.030     2.580     2.512

molecular dipole:
                 x           y           z       tot (Debye)
 q only:       -0.001      -0.323      -0.065
   full:       -0.001      -0.547      -0.005       1.391

 projected vibrational frequencies (cm⁻¹)
eigval :       -0.00    -0.00    -0.00    -0.00     0.00     0.00
eigval :        7.22     9.63    10.00    13.02    16.07    17.82
eigval :       35.37    41.36    41.90    46.34    53.43    56.77
eigval :       59.80    62.72    64.91    77.73    78.31    92.67
eigval :       95.39   105.98   109.12   114.11   129.13   132.74
eigval :      154.72   168.39   168.59   188.04   201.62   213.15
eigval :      223.11   233.18   234.21   247.10   256.49   269.06
eigval :      301.76   307.80   314.93   332.24   333.18   336.14
eigval :      347.28   354.60   361.21   372.90   378.35   378.97
eigval :      380.81   381.22   389.18   389.21   394.34   409.80
eigval :      419.23   423.27   423.38   428.68   439.16   463.04
eigval :      480.17   484.24   488.66   490.49   497.37   510.12
eigval :      516.04   539.79   558.50   576.64   578.03   580.96
eigval :      583.37   586.88   589.60   591.04   593.18   600.31
eigval :      602.08   606.18   615.99   632.05   645.36   648.64
eigval :      656.44   659.81   659.89   661.03   669.48   673.72
eigval :      687.87   689.45   697.10   712.44   731.45   740.51
eigval :      744.95   756.99   757.04   761.10   761.26   761.56
eigval :      761.71   767.85   809.27   815.99   820.03   826.60
eigval :      831.58   843.74   844.42   864.67   865.70   874.44
eigval :      874.48   876.56   876.65   877.16   891.37   891.87
eigval :      892.00   893.09   899.30   909.16   910.16   910.30
eigval :      911.24   913.05   916.14   923.19   923.93   927.33
eigval :      927.34   928.91   928.93   929.35   929.37   929.92
eigval :      929.93   945.65   959.13   959.18   987.30   988.74
eigval :     1004.83  1004.83  1019.20  1026.35  1038.50  1074.74
eigval :     1083.20  1083.20  1084.26  1084.27  1099.04  1122.12
eigval :     1122.13  1124.88  1124.92  1134.79  1139.30  1144.10
eigval :     1144.74  1150.70  1180.61  1180.62  1180.85  1180.85
eigval :     1187.35  1187.49  1195.77  1195.80  1196.73  1197.68
eigval :     1212.90  1216.44  1217.81  1241.26  1264.38  1265.62
eigval :     1271.75  1273.91  1278.38  1278.88  1279.00  1281.88
eigval :     1283.08  1306.76  1314.83  1315.77  1317.33  1320.95
eigval :     1321.20  1327.08  1327.36  1328.36  1328.92  1330.29
eigval :     1339.99  1350.17  1363.21  1381.13  1408.57  1409.93
eigval :     1417.53  1423.47  1436.50  1436.54  1443.37  1443.45
eigval :     1471.37  1471.86  1474.26  1474.40  1476.44  1476.55
eigval :     1480.03  1488.59  1491.03  1507.01  1514.36  1528.69
eigval :     1543.78  1553.02  1554.77  1576.54  1576.83  1579.25
eigval :     1580.79  1580.85  1591.34  1594.20  1594.79  1594.91
eigval :     1601.14  1601.42  3072.83  3074.39  3074.75  3074.77
eigval :     3075.28  3075.44  3076.22  3076.50  3076.62  3077.79
eigval :     3077.80  3084.89  3084.94  3085.23  3085.73  3085.82
eigval :     3086.43  3086.60  3087.49  3088.01  3089.18  3089.25
eigval :     3091.51  3091.59  3096.75  3096.78  3097.29  3097.31
eigval :     3110.07  3110.37  3132.34  3136.27  3158.91  3159.17

   temp. (K)  partition function   enthalpy   heat capacity  entropy
                                   cal/mol     cal/K/mol   cal/K/mol   J/K/mol
 298.15  VIB  0.738E+23            27593.586    171.913    174.678
         ROT  0.194E+09              888.752      2.981     40.907
         INT  0.143E+32            28482.338    174.894    215.585
         TR   0.210E+29             1481.254      4.968     45.816
         TOT                       29963.5919   179.8622   261.4013  1093.7030

       T/K    H(0)-H(T)+PV         H(T)/Eh          T*S/Eh         G(T)/Eh
   ------------------------------------------------------------------------
    298.15    0.477500E-01    0.739285E+00    0.124200E+00    0.615085E+00
   ------------------------------------------------------------------------

         :::::::::::::::::::::::::::::::::::::::::::::::::::::
         ::                  THERMODYNAMIC                  ::
         :::::::::::::::::::::::::::::::::::::::::::::::::::::
         :: total free energy        -146.301689852879 Eh   ::
         ::.................................................::
         :: total energy             -146.916774669365 Eh   ::
         :: zero point energy           0.691534980717 Eh   ::
         :: G(RRHO) w/o ZPVE           -0.076450164230 Eh   ::
         :: G(RRHO) contrib.            0.615084816486 Eh   ::
         :::::::::::::::::::::::::::::::::::::::::::::::::::::

           -------------------------------------------------
          | TOTAL ENERGY             -146.916774669365 Eh   |
          | TOTAL ENTHALPY           -146.177489665504 Eh   |
          | TOTAL FREE ENERGY        -146.301689852879 Eh   |
          | GRADIENT NORM               0.000039835923 Eh/α |
          | HOMO-LUMO GAP               1.124481402361 eV   |
           -------------------------------------------------

 * finished run on 2025/09/11 at 07:16:40.647
