   * xtb version 6.7.1 (edcfbbe) compiled by 'albert@albert-system' on 2024-07-22

   ID    Z sym.   atoms
    1    6 C      1-4, 6-23, 25-39, 41, 42, 44, 45, 47-52, 54-58
    2    7 N      5, 24, 40, 43
    3   16 S      46, 53
    4    1 H      59-92

          program call               : xtb data2507/gas/pDTPA-DTPZ/pDTPA-DTPZ.xyz --gfn 2 --ohess vtight --parallel 40 --molden --ceasefiles --namespace data2507/gas/pDTPA-DTPZ/pDTPA-DTPZ_gas_S0_preOpt
          :  Hamiltonian                  GFN2-xTB          :
 * total energy  :  -146.8789807 Eh     change       -0.1820951E-08 Eh
 * total energy  :  -146.8993046 Eh     change       -0.2032393E-01 Eh
 * total energy  :  -146.9073160 Eh     change       -0.8011421E-02 Eh
 * total energy  :  -146.9097766 Eh     change       -0.2460591E-02 Eh
 * total energy  :  -146.9114477 Eh     change       -0.1671039E-02 Eh
 * total energy  :  -146.9123851 Eh     change       -0.9374826E-03 Eh
 * total energy  :  -146.9129410 Eh     change       -0.5558906E-03 Eh
 * total energy  :  -146.9133084 Eh     change       -0.3673999E-03 Eh
 * total energy  :  -146.9135695 Eh     change       -0.2610245E-03 Eh
 * total energy  :  -146.9137805 Eh     change       -0.2110578E-03 Eh
 * total energy  :  -146.9156716 Eh     change       -0.1021880E-06 Eh
 * total energy  :  -146.9156716 Eh     change        0.3232981E-07 Eh
 * total energy  :  -146.9156717 Eh     change       -0.1327023E-06 Eh
 * total energy  :  -146.9156717 Eh     change        0.4009877E-08 Eh
 * total energy  :  -146.9156718 Eh     change       -0.1037160E-06 Eh
 * total energy  :  -146.9156720 Eh     change       -0.1725747E-06 Eh
 * total energy  :  -146.9156721 Eh     change       -0.1486500E-06 Eh
 * total energy  :  -146.9156723 Eh     change       -0.1246761E-06 Eh
 * total energy  :  -146.9156724 Eh     change       -0.8262265E-07 Eh
   *** GEOMETRY OPTIMIZATION CONVERGED AFTER 118 ITERATIONS ***

 final structure:
================
92
 xtb: 6.7.1 (edcfbbe)
C           -8.96277429447298       -2.60263868487714       -0.57258695757941
C           -7.74646669891124       -2.54544210634989        0.08815353133465
C           -7.11629911979383       -1.33383735899790        0.29283128979417
C           -7.69425293137529       -0.15333348806948       -0.17532652936869
N           -7.05514335894798        1.07695438821573        0.01946954699369
C           -7.80733391641764        2.22674982630710        0.28173846872224
C           -7.41729987043580        3.45919249503898       -0.24258656927335
C           -8.15899830700727        4.59405480828523        0.02081220587219
C           -9.30164449795198        4.52085749193385        0.80062735591941
C           -9.69551848154783        3.29884117698314        1.32093160736528
C           -8.95595995026224        2.15963750502921        1.07022788617239
C           -5.66063227375095        1.14678923955140       -0.03021894483381
C           -4.95484850018412        1.99419921306902        0.82487308565979
C           -3.57687359747133        2.02183868221707        0.79798229010414
C           -2.85839218544907        1.19787297771508       -0.06747961885854
C           -1.39618012824087        1.16965181924513       -0.03201116702957
C           -0.63394697189529        2.30953867728652        0.08007617578492
C            0.76404320835171        2.26253551516699        0.10331977142050
C            1.46141692438328        1.07770965302083        0.01710624152110
C            2.92551274017520        1.05078411375185        0.02396656882911
C            3.64140563910272        1.89666986032155        0.87160448913265
C            5.01931355437665        1.88641590365036        0.89020713547709
C            5.73055368184076        1.02516888195530        0.05385894739844
N            7.12853143266067        1.01268913202742        0.06959805150287
C            7.84104598327397        0.83297087872020       -1.12068087487347
C            9.02605973340962        0.09727590187843       -1.13272385401176
C            9.73002656300624       -0.06958502731958       -2.30924253755128
C            9.26430337330976        0.48306894246099       -3.49106710200965
C            8.08514422996468        1.21013898647420       -3.48582177318190
C            7.37835753104370        1.38996074546424       -2.31301842229009
C            7.81417239706482        1.18267009665736        1.27762035537439
C            9.00121895499830        1.91357855559938        1.32198553862404
C            9.67501453624979        2.07460507302615        2.51693795520370
C            9.17631082699069        1.52049283913624        3.68452441247403
C            7.99535141036138        0.79718950643275        3.64657237476582
C            7.31844975644288        0.62323476978228        2.45536601549901
C            5.01972675344676        0.17865502916974       -0.79741050748157
C            3.64201686297432        0.19329586989974       -0.81064972189054
C            0.71232564148937       -0.13073889576879       -0.06805981273878
N            1.34937503618173       -1.30580867445864       -0.09248757097684
C            0.63468340479154       -2.41316998326507       -0.14884184057305
C           -0.80380563128864       -2.36270896374985       -0.15377466510849
N           -1.43792244803243       -1.20775636188666       -0.11456803710182
C           -0.71939237643229       -0.08194860518438       -0.08754092225240
C           -1.51863108684841       -3.58584459579056       -0.19270208673014
S           -3.24289580878716       -3.72959646206700       -0.20455275939605
C           -3.10958637173287       -5.44750183047318       -0.26550711613263
C           -1.82813442321253       -5.89055865348648       -0.27637056687950
C           -0.89095591807082       -4.82718336445752       -0.23552503522238
C            0.53551516915723       -4.87869222738647       -0.23656455616979
C            1.38969118386227       -6.00955937146374       -0.27981690631381
C            2.70094045719346       -5.66488309006843       -0.26969142173870
S            2.96302577934154       -3.96239156356505       -0.20617106633404
C            1.25486396069764       -3.68734961366281       -0.19220573472478
C           -3.56993184860469        0.37700905245744       -0.94267613653716
C           -4.94610722362734        0.35583669195078       -0.93120586529256
C           -8.91630199688414       -0.21697591767642       -0.84451885746163
C           -9.54362901926832       -1.43293232133443       -1.03433826559833
H           -9.45442464643871       -3.55117742764075       -0.72734684749378
H           -7.28563571397219       -3.45065187424807        0.45533712313618
H           -6.17199254118474       -1.29508190748338        0.81525473542559
H           -6.53251283911713        3.51640933294843       -0.85967466306856
H           -7.84707585352311        5.54160137836412       -0.39363123234281
H           -9.88079568314626        5.40937405844980        1.00139919410229
H          -10.58179378165737        3.23312302165147        1.93495854397676
H           -9.25952530516353        1.20998181386291        1.48601772132729
H           -5.49566211187151        2.61427224503736        1.52503207115553
H           -3.04564766366263        2.65832861148331        1.49083041646483
H           -1.12397969205252        3.27178878743098        0.11940481599482
H            1.31174102735227        3.19238507175789        0.15755017786607
H            3.10935480485040        2.55884239017089        1.53915043670011
H            5.55734663647142        2.54760035095335        1.55406107098342
H            9.38661723038133       -0.34352101186329       -0.21479265788701
H           10.64542116436223       -0.64309294500248       -2.30443011411334
H            9.81600891019133        0.34819017485688       -4.40903422166096
H            7.71662252538801        1.64932897875128       -4.40136011917643
H            6.46467545894156        1.96615515028501       -2.31010945115132
H            9.38711445286317        2.35526971390253        0.41477457438525
H           10.59220989764928        2.64485781738877        2.53768802206640
H            9.70418480824201        1.65134926024620        4.61698844487546
H            7.60184524019059        0.35666489271949        4.55097156312846
H            6.40325203394087        0.05026550082943        2.42595089692823
H            5.55899544041242       -0.49560600287880       -1.44643571585944
H            3.11069916840415       -0.46731497325809       -1.47613256391420
H           -4.00529120215677       -6.03675292325341       -0.29077474884171
H           -1.55419824600996       -6.92924991101290       -0.31252705917751
H            1.03766127611288       -7.02439831907185       -0.31715591685759
H            3.54993345746198       -6.31956875257329       -0.29635165973356
H           -3.03543637956965       -0.23954866643883       -1.64702008532681
H           -5.48285881408872       -0.28169692551082       -1.61814805556899
H           -9.36631803366320        0.69169622423666       -1.21714692214986
H          -10.48907451518391       -1.46751927363900       -1.55574227168215

          :  Hamiltonian                  GFN2-xTB          :
         :: gradient norm              0.000028841868 Eh/a0 ::
         :: HOMO-LUMO gap              1.122209972567 eV    ::
         :: SCC energy              -149.568619079012 Eh    ::
         :: -> dispersion             -0.138658388022 Eh    ::
         :: repulsion energy           2.652946723227 Eh    ::

    * Orbital Energies and Occupations

         #    Occupation            Energy/Eh            Energy/eV
      -------------------------------------------------------------
         1        2.0000           -0.7321506             -19.9228
       ...           ...                  ...                  ...
       125        2.0000           -0.4037665             -10.9870
       126        2.0000           -0.4030655             -10.9680
       127        2.0000           -0.4024317             -10.9507
       128        2.0000           -0.4011137             -10.9149
       129        2.0000           -0.3999492             -10.8832
       130        2.0000           -0.3995959             -10.8736
       131        2.0000           -0.3987708             -10.8511
       132        2.0000           -0.3853759             -10.4866
       133        2.0000           -0.3842747             -10.4566
       134        2.0000           -0.3741421             -10.1809
       135        2.0000           -0.3477987              -9.4641
       136        2.0000           -0.3461601              -9.4195
       137        2.0000           -0.3427670              -9.3272 (HOMO)
       138                         -0.3015266              -8.2050 (LUMO)
       139                         -0.2659307              -7.2363
       140                         -0.2490489              -6.7770
       141                         -0.2276036              -6.1934
       142                         -0.2273217              -6.1857
       143                         -0.2268020              -6.1716
       144                         -0.2248912              -6.1196
       145                         -0.2237785              -6.0893
       146                         -0.2235019              -6.0818
       147                         -0.2192330              -5.9656
       148                         -0.2188051              -5.9540
       ...                                ...                  ...
       276                          0.7336590              19.9639
      -------------------------------------------------------------
                  HL-Gap            0.0412405 Eh            1.1222 eV

     #   Z          covCN         q      C6AA      α(0)
     1   6 C        2.919    -0.039    28.960     8.825
     2   6 C        2.920    -0.029    28.721     8.788
     3   6 C        2.922    -0.047    29.170     8.857
     4   6 C        2.925     0.065    26.541     8.449
     5   7 N        2.752    -0.072    22.644     7.067
     6   6 C        2.924     0.065    26.539     8.448
     7   6 C        2.923    -0.048    29.181     8.859
     8   6 C        2.919    -0.029    28.735     8.790
     9   6 C        2.919    -0.039    28.961     8.825
    10   6 C        2.920    -0.029    28.734     8.790
    11   6 C        2.922    -0.047    29.179     8.858
    12   6 C        2.925     0.064    26.557     8.451
    13   6 C        2.920    -0.049    29.210     8.863
    14   6 C        2.924    -0.034    28.835     8.806
    15   6 C        2.976     0.010    27.791     8.647
    16   6 C        2.975    -0.001    28.046     8.687
    17   6 C        2.918    -0.037    28.930     8.820
    18   6 C        2.920    -0.037    28.927     8.820
    19   6 C        2.973    -0.001    28.056     8.688
    20   6 C        2.975     0.010    27.794     8.648
    21   6 C        2.925    -0.034    28.850     8.808
    22   6 C        2.920    -0.049    29.210     8.863
    23   6 C        2.924     0.064    26.558     8.451
    24   7 N        2.752    -0.073    22.666     7.071
    25   6 C        2.924     0.065    26.535     8.448
    26   6 C        2.922    -0.048    29.182     8.859
    27   6 C        2.920    -0.029    28.734     8.790
    28   6 C        2.919    -0.039    28.964     8.825
    29   6 C        2.920    -0.029    28.732     8.790
    30   6 C        2.922    -0.048    29.183     8.859
    31   6 C        2.924     0.065    26.538     8.448
    32   6 C        2.922    -0.048    29.185     8.859
    33   6 C        2.920    -0.030    28.738     8.791
    34   6 C        2.919    -0.039    28.962     8.825
    35   6 C        2.920    -0.029    28.731     8.790
    36   6 C        2.922    -0.047    29.176     8.858
    37   6 C        2.921    -0.047    29.165     8.856
    38   6 C        2.924    -0.026    28.649     8.778
    39   6 C        2.965     0.079    26.235     8.401
    40   7 N        1.847    -0.238    27.075     7.712
    41   6 C        2.978     0.078    26.260     8.406
    42   6 C        2.980     0.078    26.263     8.406
    43   7 N        1.849    -0.238    27.074     7.712
    44   6 C        2.968     0.079    26.233     8.401
    45   6 C        3.011     0.003    27.940     8.671
    46  16 S        2.268     0.008   140.726    19.966
    47   6 C        2.942    -0.019    28.490     8.754
    48   6 C        3.082    -0.048    29.089     8.842
    49   6 C        3.152    -0.006    27.871     8.634
    50   6 C        3.153    -0.006    27.865     8.633
    51   6 C        3.083    -0.048    29.088     8.842
    52   6 C        2.942    -0.019    28.485     8.753
    53  16 S        2.269     0.008   140.732    19.966
    54   6 C        3.010     0.003    27.938     8.670
    55   6 C        2.924    -0.024    28.609     8.771
    56   6 C        2.921    -0.047    29.166     8.856
    57   6 C        2.922    -0.048    29.188     8.860
    58   6 C        2.920    -0.030    28.742     8.792
    59   1 H        0.926     0.029     2.600     2.522
    60   1 H        0.926     0.031     2.567     2.505
    61   1 H        0.926     0.036     2.501     2.473
    62   1 H        0.926     0.032     2.560     2.502
    63   1 H        0.926     0.031     2.573     2.509
    64   1 H        0.926     0.030     2.592     2.518
    65   1 H        0.926     0.031     2.572     2.508
    66   1 H        0.926     0.032     2.560     2.502
    67   1 H        0.926     0.032     2.554     2.499
    68   1 H        0.926     0.033     2.549     2.497
    69   1 H        0.926     0.038     2.478     2.462
    70   1 H        0.926     0.038     2.472     2.459
    71   1 H        0.926     0.032     2.552     2.498
    72   1 H        0.926     0.032     2.561     2.503
    73   1 H        0.926     0.032     2.565     2.504
    74   1 H        0.926     0.031     2.576     2.510
    75   1 H        0.926     0.029     2.596     2.520
    76   1 H        0.926     0.031     2.575     2.509
    77   1 H        0.926     0.032     2.564     2.504
    78   1 H        0.926     0.031     2.569     2.507
    79   1 H        0.926     0.031     2.577     2.510
    80   1 H        0.926     0.029     2.595     2.519
    81   1 H        0.926     0.031     2.570     2.507
    82   1 H        0.926     0.034     2.535     2.490
    83   1 H        0.926     0.034     2.523     2.484
    84   1 H        0.926     0.047     2.354     2.399
    85   1 H        0.926     0.051     2.313     2.378
    86   1 H        0.926     0.043     2.405     2.425
    87   1 H        0.926     0.043     2.404     2.424
    88   1 H        0.926     0.051     2.310     2.377
    89   1 H        0.926     0.045     2.388     2.416
    90   1 H        0.926     0.035     2.520     2.482
    91   1 H        0.926     0.031     2.571     2.508
    92   1 H        0.926     0.030     2.579     2.512

molecular dipole:
                 x           y           z       tot (Debye)
 q only:       -0.075      -0.315      -0.109
   full:       -0.072      -0.545      -0.066       1.408

 projected vibrational frequencies (cm⁻¹)
eigval :       -0.00    -0.00    -0.00    -0.00     0.00     0.00
eigval :        7.62     9.28    10.22    14.76    16.57    17.54
eigval :       32.66    40.94    44.21    49.93    50.82    56.25
eigval :       58.85    62.93    68.97    71.90    79.63    92.18
eigval :       99.78   105.93   109.44   113.32   127.83   133.21
eigval :      153.40   163.26   168.79   185.65   204.38   208.43
eigval :      226.27   231.43   234.47   245.89   252.09   274.01
eigval :      304.22   308.44   315.12   324.43   332.56   335.85
eigval :      349.10   355.30   359.35   377.60   378.20   378.71
eigval :      380.89   384.01   387.24   387.75   392.22   402.98
eigval :      420.07   422.18   425.00   430.26   438.46   463.68
eigval :      480.10   484.49   488.21   490.80   497.03   509.44
eigval :      516.45   540.31   557.39   576.73   577.30   581.77
eigval :      584.23   586.97   589.60   591.54   593.08   598.45
eigval :      602.02   607.49   617.36   630.54   645.20   648.64
eigval :      656.73   659.71   659.87   660.84   669.66   673.55
eigval :      687.62   688.92   697.11   712.53   731.65   740.33
eigval :      745.00   756.90   757.03   761.11   761.47   761.57
eigval :      761.71   768.06   809.14   816.11   820.24   826.62
eigval :      831.63   843.90   845.48   865.10   866.52   874.35
eigval :      874.48   876.34   876.65   877.19   891.06   891.69
eigval :      892.00   892.93   899.26   909.52   909.92   910.33
eigval :      911.29   913.26   916.55   923.34   924.63   927.27
eigval :      927.35   928.66   928.95   929.39   929.44   929.60
eigval :      929.94   945.74   959.20   959.35   987.35   988.76
eigval :     1004.82  1004.98  1019.24  1026.40  1038.40  1074.67
eigval :     1083.10  1083.16  1084.20  1084.24  1099.04  1121.96
eigval :     1122.13  1124.30  1124.91  1134.53  1140.89  1144.02
eigval :     1144.68  1150.67  1180.58  1180.81  1180.84  1180.90
eigval :     1187.28  1187.64  1195.69  1195.73  1196.38  1197.52
eigval :     1212.80  1216.36  1217.90  1241.12  1264.03  1265.44
eigval :     1271.72  1273.87  1278.48  1278.89  1279.01  1281.94
eigval :     1283.07  1306.39  1314.80  1315.71  1317.08  1321.02
eigval :     1321.49  1327.01  1327.29  1327.96  1328.74  1330.40
eigval :     1340.09  1349.19  1363.42  1380.60  1407.95  1409.83
eigval :     1417.20  1423.76  1436.50  1436.55  1443.36  1443.43
eigval :     1471.50  1472.11  1474.06  1474.73  1476.48  1476.81
eigval :     1480.18  1488.71  1490.89  1506.91  1514.67  1528.52
eigval :     1543.65  1553.02  1554.98  1576.50  1576.87  1578.77
eigval :     1580.80  1580.90  1591.83  1594.57  1594.87  1595.02
eigval :     1601.19  1601.49  3073.05  3074.51  3074.78  3074.88
eigval :     3075.34  3075.44  3076.29  3076.45  3076.66  3076.93
eigval :     3077.82  3084.49  3085.06  3085.45  3085.75  3085.83
eigval :     3086.49  3086.77  3087.47  3088.14  3089.13  3089.26
eigval :     3089.86  3091.63  3096.57  3096.80  3097.07  3097.32
eigval :     3109.49  3113.11  3132.49  3136.43  3158.98  3159.34

   temp. (K)  partition function   enthalpy   heat capacity  entropy
                                   cal/mol     cal/K/mol   cal/K/mol   J/K/mol
 298.15  VIB  0.653E+23            27603.899    171.953    174.641
         ROT  0.199E+09              888.752      2.981     40.952
         INT  0.130E+32            28492.651    174.934    215.593
         TR   0.210E+29             1481.254      4.968     45.816
         TOT                       29973.9053   179.9023   261.4096  1093.7379

       T/K    H(0)-H(T)+PV         H(T)/Eh          T*S/Eh         G(T)/Eh
   ------------------------------------------------------------------------
    298.15    0.477665E-01    0.739274E+00    0.124204E+00    0.615070E+00
   ------------------------------------------------------------------------

         :::::::::::::::::::::::::::::::::::::::::::::::::::::
         ::                  THERMODYNAMIC                  ::
         :::::::::::::::::::::::::::::::::::::::::::::::::::::
         :: total free energy        -146.300602293059 Eh   ::
         ::.................................................::
         :: total energy             -146.915672355773 Eh   ::
         :: zero point energy           0.691507756408 Eh   ::
         :: G(RRHO) w/o ZPVE           -0.076437693694 Eh   ::
         :: G(RRHO) contrib.            0.615070062714 Eh   ::
         :::::::::::::::::::::::::::::::::::::::::::::::::::::

           -------------------------------------------------
          | TOTAL ENERGY             -146.915672355773 Eh   |
          | TOTAL ENTHALPY           -146.176398140786 Eh   |
          | TOTAL FREE ENERGY        -146.300602293059 Eh   |
          | GRADIENT NORM               0.000028713260 Eh/α |
          | HOMO-LUMO GAP               1.122210211095 eV   |
           -------------------------------------------------

 * finished run on 2025/09/11 at 07:04:05.937
