   * xtb version 6.7.1 (edcfbbe) compiled by 'albert@albert-system' on 2024-07-22

   ID    Z sym.   atoms
    1    6 C      1-4, 6-23, 25-39, 41, 42, 44, 45, 47-52, 54-58
    2    7 N      5, 24, 40, 43
    3   16 S      46, 53
    4    1 H      59-92

          program call               : xtb data2507/gas/pDTPA-DTPZ/pDTPA-DTPZ_gas_S0_finalOpt.xtbopt.xyz --gfn 2 --spinpol --tblite --uhf 2 --ohess vtight --parallel 40 --molden --ceasefiles --namespace data2507/gas/pDTPA-DTPZ/pDTPA-DTPZ_gas_T1_preOpt
 * total energy  :  -146.8725417 Eh     change        0.2099938E-08 Eh
 * total energy  :  -146.8751149 Eh     change       -0.2573218E-02 Eh
 * total energy  :  -146.8759960 Eh     change       -0.8811028E-03 Eh
 * total energy  :  -146.8761175 Eh     change       -0.1214904E-03 Eh
 * total energy  :  -146.8761716 Eh     change       -0.5409345E-04 Eh
 * total energy  :  -146.8761810 Eh     change       -0.9334296E-05 Eh
 * total energy  :  -146.8761889 Eh     change       -0.7904684E-05 Eh
 * total energy  :  -146.8761973 Eh     change       -0.8472292E-05 Eh
 * total energy  :  -146.8762027 Eh     change       -0.5374401E-05 Eh
 * total energy  :  -146.8762050 Eh     change       -0.2307054E-05 Eh
 * total energy  :  -146.8762747 Eh     change       -0.1329342E-05 Eh
 * total energy  :  -146.8762764 Eh     change       -0.1649051E-05 Eh
 * total energy  :  -146.8762789 Eh     change       -0.2523920E-05 Eh
 * total energy  :  -146.8762825 Eh     change       -0.3666556E-05 Eh
 * total energy  :  -146.8762850 Eh     change       -0.2429560E-05 Eh
 * total energy  :  -146.8762875 Eh     change       -0.2569799E-05 Eh
 * total energy  :  -146.8762891 Eh     change       -0.1529746E-05 Eh
 * total energy  :  -146.8762901 Eh     change       -0.1064911E-05 Eh
 * total energy  :  -146.8762901 Eh     change       -0.6396192E-08 Eh
   *** GEOMETRY OPTIMIZATION CONVERGED AFTER 44 ITERATIONS ***

 final structure:
================
92
 xtb: 6.7.1 (edcfbbe)
C           -8.97298904935120       -2.36563522157104        0.02035183368587
C           -7.74644707871316       -2.20482755908074        0.64439974157945
C           -7.11858963687746       -0.97498745668364        0.64860325971250
C           -7.71027848008325        0.11768198030912        0.01356691401376
N           -7.07431560427933        1.36441644310948        0.00448638250189
C           -7.82959861698814        2.53723262668829        0.09834966000492
C           -7.45984829196305        3.67476479856752       -0.62006452987676
C           -8.20697411262380        4.83212862842425       -0.52275003922550
C           -9.33361995747217        4.87518496747077        0.28250796720305
C           -9.70677628937941        3.74763514505130        0.99599652812622
C           -8.96272061425877        2.58734491752142        0.91095267868576
C           -5.68174044108684        1.43102304416482       -0.08699943843460
C           -4.96403148115366        2.40998714087668        0.60210114816553
C           -3.58791409804491        2.44353151449305        0.53662171439864
C           -2.87738230934980        1.49653139798397       -0.20369600483198
C           -1.41447101880310        1.49982419272966       -0.21482609961842
C           -0.68375414981094        2.68815420470098       -0.22617981566554
C            0.69560707724197        2.68648688162022       -0.22615750466723
C            1.42338672318315        1.49638247309941       -0.21421229123142
C            2.88627964356609        1.48932540050141       -0.20350000539325
C            3.61015212043296        0.52803318692418       -0.91148556200450
C            4.98467437731495        0.49338680985598       -0.86315502178443
C            5.69055759355899        1.41655593686982       -0.08920335464671
N            7.08301163762299        1.34601661990792        0.00098233428196
C            7.71506070698555        0.09722460154032        0.00873662363715
C            8.94592412043380       -0.07518172387818       -0.62490990267125
C            9.56579763742197       -1.30944595597596       -0.61618834759878
C            8.96938589345339       -2.39031118172901        0.01256950166132
C            7.74491299579038       -2.22536167883671        0.63959385869152
C            7.12123087343008       -0.99340864397033        0.64526576018982
C            7.84218089220585        2.51636556595534        0.09350723606640
C            7.47448821098888        3.65543787967392       -0.62354038038125
C            8.22582064657644        4.81020338149434       -0.52772818277289
C            9.35474859823758        4.84910110209310        0.27453864650632
C            9.72585801248322        3.72002898287024        0.98669081549965
C            8.97753840167368        2.56237390303516        0.90325991979627
C            4.97599332233977        2.39746567073283        0.60038390884555
C            3.59988606826759        2.43457881345225        0.53606244569537
C            0.72564700723836        0.27598410875892       -0.18844938120673
N            1.35922920376334       -0.89294092271673       -0.12534320629113
C            0.72184623492383       -2.04941011696895       -0.05581039874788
C           -0.72162727595229       -2.04779714161926       -0.05836595940149
N           -1.35615899601676       -0.88979687205923       -0.12873309617169
C           -0.71974014159800        0.27771424727331       -0.18945875331514
C           -1.37803578340353       -3.28310482716049        0.00772450555680
S           -3.10612005174783       -3.48828567128942        0.01456876631161
C           -2.91192893610373       -5.20440034496880        0.11098170494236
C           -1.61889774681718       -5.60206836835897        0.13683256938174
C           -0.70946538574412       -4.51346064844828        0.07850669132537
C            0.70370992576480       -4.51497289919230        0.08222219059254
C            1.61050236171477       -5.60546535220629        0.14621246946801
C            2.90449298093622       -5.21055760013552        0.12686832287704
S            3.10284474195542       -3.49494952168441        0.02982886356515
C            1.37526375261446       -3.28610472250080        0.01401563060950
C           -3.60434887722844        0.53723972973709       -0.91121357075113
C           -4.97894793445035        0.50611884156878       -0.86166750099947
C           -8.94324114112047       -0.05057973056616       -0.61713400076692
C           -9.56725537114088       -1.28274113755767       -0.60694931449594
H           -9.46222335092232       -3.32781746277413        0.02181042881240
H           -7.27575590983774       -3.04151482650248        1.13882490148208
H           -6.16688632126489       -0.85293634247310        1.14387720791784
H           -6.58849488245294        3.63902914876321       -1.25737485027802
H           -7.91214320525916        5.70467270369196       -1.08698345544707
H           -9.91665951659189        5.78075165504548        0.35353051568330
H          -10.58009983367137        3.77407238738123        1.63098209931570
H           -9.24893879401741        1.71294015071838        1.47688066367784
H           -5.49418082776879        3.12974640553888        1.20894013514621
H           -3.05129813819551        3.18838183569374        1.10547269888879
H           -1.21485042208930        3.62720725964075       -0.26650885368364
H            1.22901083621660        3.62422667996759       -0.26662280375550
H            3.08634205254508       -0.19247499771730       -1.51899243024669
H            5.52616621009950       -0.25286692224594       -1.42547449861083
H            9.40682842234925        0.76226435789077       -1.12814927304916
H           10.51729892168920       -1.42986170835454       -1.11302556053090
H            9.45529243969020       -3.35417979177027        0.01272324539024
H            7.27251303827187       -3.06047578700220        1.13504516078973
H            6.17106831340179       -0.86814457430773        1.14269630217250
H            6.60147401788649        3.62292298040093       -1.25874403144319
H            7.93255004658097        5.68393577612569       -1.09093404049014
H            9.94108205380038        5.75263013942765        0.34434811182022
H           10.60086025646562        3.74326031912593        1.61948771030636
H            9.26221246743284        1.68682615219117        1.46819870263344
H            5.50853190248801        3.11595222463846        1.20663734837709
H            3.06567249191225        3.18091692751264        1.10522858923779
H           -3.78962114480608       -5.81982582217963        0.14220642913312
H           -1.31226991653628       -6.63083781968694        0.19538255134294
H            1.30138282425074       -6.63352060125271        0.20419668305779
H            3.78069129624369       -5.82781463692396        0.16348069566964
H           -3.08292326398966       -0.18461108735220       -1.51918126261742
H           -5.52285876673461       -0.23869880424792       -1.42356292268920
H           -9.40251945751900        0.78840854374411       -1.11928700277993
H          -10.52037704756876       -1.39991047582810       -1.10144970551515

 projected vibrational frequencies (cm⁻¹)
eigval :       -0.00    -0.00     0.00     0.00     0.00     0.00
eigval :        7.79     9.44     9.55    13.37    16.59    19.43
eigval :       35.54    40.86    41.79    45.54    53.51    53.72
eigval :       60.13    63.14    65.24    76.45    77.96    90.60
eigval :       93.97   101.88   106.29   110.55   131.21   134.03
eigval :      157.16   167.61   169.08   181.39   184.33   203.40
eigval :      223.00   229.92   233.99   245.59   256.31   263.36
eigval :      296.23   307.39   314.51   315.01   330.54   334.95
eigval :      338.11   353.33   357.12   361.95   377.78   377.96
eigval :      378.72   379.46   386.41   388.83   390.13   413.46
eigval :      414.37   420.09   421.60   422.25   431.13   460.61
eigval :      479.27   485.90   486.10   490.33   497.96   507.21
eigval :      512.84   534.86   544.22   569.55   575.71   578.82
eigval :      579.24   585.99   587.79   588.04   589.22   593.33
eigval :      596.84   597.04   611.28   618.45   621.11   639.48
eigval :      651.58   656.42   657.54   659.60   659.67   668.42
eigval :      669.08   682.90   685.39   693.18   699.52   729.35
eigval :      736.77   738.17   753.41   756.96   756.98   757.90
eigval :      761.15   761.18   803.89   810.88   813.95   824.28
eigval :      826.08   829.12   835.34   859.93   861.16   863.87
eigval :      873.57   873.58   875.93   876.34   890.91   892.38
eigval :      892.93   893.12   897.89   899.10   900.16   909.90
eigval :      910.07   912.15   912.60   921.86   922.36   927.31
eigval :      927.32   928.90   928.91   929.29   929.31   929.66
eigval :      929.77   939.95   942.15   951.92   985.64   986.43
eigval :     1004.50  1004.51  1016.34  1021.08  1034.49  1073.95
eigval :     1083.01  1083.08  1083.96  1083.96  1096.33  1120.53
eigval :     1122.19  1122.34  1124.85  1124.92  1142.33  1145.32
eigval :     1147.54  1148.74  1180.16  1180.17  1180.44  1180.45
eigval :     1183.74  1186.15  1193.08  1194.74  1194.78  1197.00
eigval :     1204.88  1212.95  1217.78  1223.90  1238.76  1249.18
eigval :     1269.11  1271.55  1274.05  1277.95  1278.04  1279.64
eigval :     1281.86  1287.64  1300.99  1301.57  1312.12  1315.66
eigval :     1318.12  1318.65  1323.43  1326.62  1327.00  1327.66
eigval :     1328.77  1333.64  1354.24  1359.21  1389.03  1400.88
eigval :     1413.77  1415.71  1433.43  1435.57  1435.67  1442.61
eigval :     1443.02  1468.49  1468.75  1472.00  1472.10  1473.65
eigval :     1477.70  1484.64  1484.78  1495.02  1504.44  1516.48
eigval :     1532.41  1535.00  1548.44  1548.99  1574.82  1574.83
eigval :     1578.72  1578.83  1586.44  1588.72  1591.28  1591.37
eigval :     1596.87  1598.47  3076.01  3076.21  3076.22  3076.39
eigval :     3077.09  3077.17  3078.18  3078.22  3080.74  3080.75
eigval :     3082.21  3085.40  3085.50  3086.88  3086.89  3087.84
eigval :     3087.99  3088.64  3089.53  3090.51  3090.55  3092.99
eigval :     3093.09  3094.60  3098.02  3098.19  3098.97  3099.15
eigval :     3106.30  3106.39  3128.23  3132.46  3157.27  3157.44

   temp. (K)  partition function   enthalpy   heat capacity  entropy
                                   cal/mol     cal/K/mol   cal/K/mol   J/K/mol
 298.15  VIB  0.994E+23            27827.184    173.076    176.073
         ROT  0.197E+09              888.752      2.981     40.930
         INT  0.195E+32            28715.937    176.057    217.003
         TR   0.210E+29             1481.254      4.968     45.816
         TOT                       30197.1906   181.0251   262.8195  1099.6367

       T/K    H(0)-H(T)+PV         H(T)/Eh          T*S/Eh         G(T)/Eh
   ------------------------------------------------------------------------
    298.15    0.481223E-01    0.737259E+00    0.124874E+00    0.612385E+00
   ------------------------------------------------------------------------

         :::::::::::::::::::::::::::::::::::::::::::::::::::::
         ::                  THERMODYNAMIC                  ::
         :::::::::::::::::::::::::::::::::::::::::::::::::::::
         :: total free energy        -146.263905390004 Eh   ::
         ::.................................................::
         :: total energy             -146.876290149862 Eh   ::
         :: zero point energy           0.689136486559 Eh   ::
         :: G(RRHO) w/o ZPVE           -0.076751726701 Eh   ::
         :: G(RRHO) contrib.            0.612384759858 Eh   ::
         :::::::::::::::::::::::::::::::::::::::::::::::::::::

           -------------------------------------------------
          | TOTAL ENERGY             -146.876290149862 Eh   |
          | TOTAL ENTHALPY           -146.139031376967 Eh   |
          | TOTAL FREE ENERGY        -146.263905390004 Eh   |
          | GRADIENT NORM               0.000066176164 Eh/α |
           -------------------------------------------------

 * finished run on 2025/09/11 at 07:16:56.517
