   * xtb version 6.7.1 (edcfbbe) compiled by 'albert@albert-system' on 2024-07-22

   ID    Z sym.   atoms
    1    6 C      1-10, 12-21, 23-25, 27-32, 34-39, 41-50, 52-61, 63-71
    2    5 B      11, 51
    3    8 O      22, 40, 62, 72
    4    7 N      26, 33
    5    1 H      73-132

          program call               : xtb data2507/gas/PzTDBA/PzTDBA_gas_S0_finalOpt.xtbopt.xyz --gfn 2 --spinpol --tblite --uhf 2 --ohess vtight --parallel 40 --molden --ceasefiles --namespace data2507/gas/PzTDBA/PzTDBA_gas_T1_preOpt
 * total energy  :  -192.3316105 Eh     change       -0.9154297E-07 Eh
 * total energy  :  -192.3321747 Eh     change       -0.5641197E-03 Eh
 * total energy  :  -192.3323160 Eh     change       -0.1413374E-03 Eh
 * total energy  :  -192.3323402 Eh     change       -0.2422538E-04 Eh
 * total energy  :  -192.3323711 Eh     change       -0.3088178E-04 Eh
 * total energy  :  -192.3323849 Eh     change       -0.1382815E-04 Eh
 * total energy  :  -192.3324171 Eh     change       -0.3221376E-04 Eh
 * total energy  :  -192.3324284 Eh     change       -0.1121556E-04 Eh
 * total energy  :  -192.3324435 Eh     change       -0.1515994E-04 Eh
 * total energy  :  -192.3324688 Eh     change       -0.2528627E-04 Eh
 * total energy  :  -192.3358813 Eh     change       -0.4053439E-06 Eh
 * total energy  :  -192.3358817 Eh     change       -0.4500430E-06 Eh
 * total energy  :  -192.3358821 Eh     change       -0.3610122E-06 Eh
 * total energy  :  -192.3358823 Eh     change       -0.2713508E-06 Eh
 * total energy  :  -192.3358827 Eh     change       -0.3194446E-06 Eh
 * total energy  :  -192.3358830 Eh     change       -0.3101814E-06 Eh
 * total energy  :  -192.3358832 Eh     change       -0.2041110E-06 Eh
 * total energy  :  -192.3358832 Eh     change        0.1958017E-07 Eh
 * total energy  :  -192.3358833 Eh     change       -0.9722669E-07 Eh
   *** GEOMETRY OPTIMIZATION CONVERGED AFTER 136 ITERATIONS ***

 final structure:
================
132
 xtb: 6.7.1 (edcfbbe)
C           -5.07111535148405       -2.07832763127392        4.25526432804254
C           -4.58635402103249       -2.33494392096625        2.82032020982544
C           -5.45013543290736       -1.50343965196849        1.86810692823085
C           -4.76080180508613       -3.82027556724370        2.47511758558420
C           -3.11314692589176       -1.97266164850823        2.73730177990362
C           -2.18736851930033       -2.72554037817009        3.46488715771556
C           -0.84955014509891       -2.39824818259178        3.45200248688273
C           -0.40542616813853       -1.28515734515744        2.74290095051252
C           -1.30134962286411       -0.49184999962710        1.99460732528074
C           -2.64151839030161       -0.89984415387925        2.00032781225164
B           -0.72216084363144        0.75486994805302        1.28795972047982
C           -1.37220309152072        2.03431874958995        0.70916864966117
C           -2.72045099356804        2.40216875703055        0.80887069283294
C           -3.22157179814066        3.61941671871202        0.37531513112476
C           -4.61386309244005        4.11182704159673        0.74615117690796
C           -5.36450497387110        4.69027219295514       -0.45907025500828
C           -4.41756845427141        5.22296028015673        1.79217246980574
C           -5.48863958688130        3.01988114997533        1.37072100121210
C           -2.34655059156327        4.47005258398839       -0.30965641478620
C           -1.00864240723726        4.16173519607706       -0.42513695550503
C           -0.50436111187358        2.99534576111059        0.14631973358389
O            0.85951596962720        2.90903803427100        0.15988310081531
C            1.49276768890875        1.96820608300740        0.89761830449619
C            2.87813548164581        2.08394930186313        1.01314706122824
C            3.59557213426163        1.13636027241995        1.74563477857260
N            5.00109484407457        1.17937111902015        1.79644155032623
C            5.63441356884823        1.79582597487074        0.67235773872678
C            6.07385751129521        3.10579846818604        0.67975302288859
C            6.70751865760612        3.60916033123987       -0.44638237921604
C            6.90677331697171        2.80947569596777       -1.55905771165953
C            6.47186829201920        1.49266482122606       -1.56823517758460
C            5.83043398344896        0.99085425953277       -0.45209086984692
N            5.35600284374338       -0.35693079346322       -0.36634744195596
C            3.98326537493220       -0.51157776999434       -0.63482019792424
C            3.25979111846759       -1.56277710682285       -0.06825483671756
C            1.88221463900179       -1.64533910648037       -0.27134996298764
C            1.18621716044284       -0.69282069135110       -1.02282359210400
C            1.93967457192824        0.33318109509657       -1.60227296531767
C            3.31909009249770        0.42313537058232       -1.42956171703457
O            1.35953331249096        1.30492520874654       -2.33935375660704
C            0.00756888244779        1.35749195199118       -2.52537686528167
C           -0.42910819687584        2.42881284800902       -3.29832986794539
C           -1.76767110446108        2.57513504935282       -3.60100015556911
C           -2.70910424211360        1.67007199784089       -3.11029766628399
C           -4.17633004633522        1.75320521752646       -3.49732579392269
C           -4.57326649159240        3.17312493432646       -3.91610663139179
C           -4.39876287552600        0.80567368057782       -4.68675125900792
C           -5.07066706893055        1.31494547259557       -2.32930622859833
C           -2.25461211626269        0.63245217552335       -2.31050505681785
C           -0.90753546438626        0.41607065619067       -2.00595622163876
B           -0.32907911174198       -0.75541231999834       -1.18405949259251
C           -0.90693251042204       -2.12170434085899       -0.75044069819643
C           -2.12279475387509       -2.67992053784344       -1.15460267603959
C           -2.54916821427248       -3.95252612171061       -0.79931773280183
C           -3.75400173089013       -4.56616990140159       -1.49992854667674
C           -3.35520923496142       -4.76458710000529       -2.97252609517247
C           -4.14735681261566       -5.93138146030001       -0.92758238843743
C           -4.98220991865471       -3.65013834844327       -1.43461643278407
C           -1.76270196139813       -4.66361561230633        0.10945675318346
C           -0.53851661885954       -4.16984384777084        0.51577428973782
C           -0.07231650792626       -2.95095674967737        0.03163927596413
O            1.23379483634329       -2.67325608686746        0.32477846926182
C            5.79996712835838       -0.89757066721583        0.88066799279607
C            6.40622904355249       -2.13417827514073        0.99269053214993
C            6.83505515929894       -2.56269476193866        2.23989409460361
C            6.66827188641466       -1.76044650214556        3.35606150640795
C            6.06492705043008       -0.51655498238711        3.24675750172180
C            5.62639131854762       -0.09095555021493        2.00762021083241
C            2.90532815797426        0.10843888845337        2.38768514300745
C            1.52384047326902        0.00169668539115        2.24199902229392
C            0.78372105232299        0.91483587106667        1.48408672170359
O            0.93410759176105       -1.04577791005964        2.85598915489251
H           -4.95676108458164       -1.02647151596454        4.50897587492910
H           -6.12177745474242       -2.34558870595060        4.35001833010684
H           -4.50117234279481       -2.66363461013804        4.97200836636714
H           -5.10756660500229       -1.60710902951280        0.84205815915529
H           -5.43089760146669       -0.45157815088524        2.14320874778049
H           -6.48353746191152       -1.84169922155390        1.92108012705138
H           -4.23838160811256       -4.04370276908982        1.54860236523765
H           -4.35544247284833       -4.45872505061891        3.25517139410478
H           -5.81580439349033       -4.06244744908947        2.35936839865202
H           -2.50671518336716       -3.57478590792924        4.04800250836827
H           -0.12774553140753       -2.98023760965774        4.00473589160720
H           -3.32134754746809       -0.32976894889344        1.39254130616613
H           -3.37319324538932        1.70872010167728        1.30919775905595
H           -5.54993850135308        3.91867201823686       -1.19976576436494
H           -4.80951581395686        5.49650904068408       -0.92980528730595
H           -6.32340610515098        5.09118395023846       -0.13574037287979
H           -3.87178884079268        4.83961952178743        2.65184333559235
H           -3.85404308250063        6.05343567996497        1.37470824744119
H           -5.38206095508310        5.59560687024612        2.13149938745949
H           -5.60728948584552        2.17461324386068        0.69683494704030
H           -5.06728287069117        2.66959785387207        2.30989739452707
H           -6.47727800942705        3.42437568708861        1.57948523175801
H           -2.69474016013731        5.40827153640490       -0.71293573622499
H           -0.32136326773270        4.84518212112431       -0.89987246932074
H            3.37740245621579        2.89905197494116        0.51432713711828
H            5.91040262388124        3.71999510353886        1.55179969613216
H            7.04909476261976        4.63314883367086       -0.45225985571528
H            7.40378010291314        3.21217316510781       -2.42856845608932
H            6.61340722278123        0.86223894711031       -2.43250211418891
H            3.74331114226147       -2.30635735028982        0.54474795410773
H            3.84762008041686        1.23933040961807       -1.89467789117319
H            0.30282330425160        3.12956148395657       -3.67059316362489
H           -2.06433926655985        3.40272799514103       -4.22329149157364
H           -4.26315803780193        3.89352817613111       -3.16367997815253
H           -5.65309932898159        3.23788919140598       -4.03655302947227
H           -4.12213218088167        3.44340310100049       -4.86743586745195
H           -4.12933939352175       -0.21369921219185       -4.41936990883171
H           -5.44332215513271        0.82175330497042       -4.99161020195100
H           -3.78478540066310        1.10695109765280       -5.53279110648602
H           -4.73378666376358        1.78266891335406       -1.40795752008368
H           -6.10395014146396        1.60076482472677       -2.51744200814142
H           -5.05110345567540        0.23651532193980       -2.19562860231756
H           -2.96338582590055       -0.05915968235845       -1.88952002850074
H           -2.72257827681635       -2.09810818925702       -1.83523000876801
H           -4.16839912227728       -5.23347404376443       -3.52315186321542
H           -2.47682795599144       -5.40281449919530       -3.04238565336136
H           -3.12112691619789       -3.81377208235613       -3.44410983929130
H           -4.39620039986687       -5.86210092697534        0.12864854065699
H           -3.34600817644977       -6.65487254699458       -1.05617364106927
H           -5.02267619351255       -6.30596522715328       -1.45493496775892
H           -5.31463295565043       -3.52938976487668       -0.40773568181591
H           -4.77125991408395       -2.66822893935838       -1.84823206747265
H           -5.79783902047361       -4.08661611440707       -2.00809586487800
H           -2.07094996380031       -5.62912526119746        0.47523776594984
H            0.10044285641709       -4.74879106080946        1.16490376111729
H            6.52836731737316       -2.75146087904769        0.11606861036727
H            7.30443572265675       -3.52977854432227        2.33834300447733
H            7.00893299346612       -2.10410361871348        4.32098490047536
H            5.92124572444149        0.11393203879822        4.11062920683140
H            3.42241344875683       -0.63091581373257        2.97745182918173

 projected vibrational frequencies (cm⁻¹)
eigval :       -0.00    -0.00    -0.00     0.00     0.00     0.00
eigval :        9.19    17.77    20.64    31.74    32.87    38.90
eigval :       43.09    45.80    51.23    53.04    53.70    59.17
eigval :       61.04    64.54    66.54    71.87    77.30    87.14
eigval :       91.67    93.28    98.80   106.30   108.30   119.69
eigval :      123.19   126.51   131.24   138.20   140.40   148.06
eigval :      152.31   167.21   169.95   175.40   185.20   190.79
eigval :      198.71   207.93   211.97   216.57   221.30   224.14
eigval :      226.17   232.01   232.44   236.73   241.83   245.36
eigval :      251.21   257.09   260.60   264.99   267.37   268.54
eigval :      270.95   278.22   287.54   294.61   296.71   305.37
eigval :      308.54   314.92   320.18   327.17   329.17   335.87
eigval :      342.37   346.03   349.76   360.41   361.56   362.99
eigval :      365.26   367.74   372.16   377.01   381.75   390.86
eigval :      394.93   398.80   412.27   412.99   423.96   424.55
eigval :      425.64   427.02   430.78   435.35   439.79   443.92
eigval :      452.66   458.92   460.73   466.75   473.08   479.84
eigval :      482.46   488.60   495.54   504.10   512.75   516.08
eigval :      516.35   517.61   519.69   542.08   565.61   567.49
eigval :      569.84   574.38   580.39   583.04   587.68   595.43
eigval :      596.69   600.27   600.56   607.17   613.39   642.03
eigval :      642.60   642.69   651.21   652.17   669.40   675.20
eigval :      683.93   685.14   695.56   696.40   696.85   698.09
eigval :      702.04   702.99   708.26   726.32   728.57   739.48
eigval :      778.48   781.09   798.37   802.07   803.95   805.96
eigval :      810.03   810.73   814.97   816.67   824.26   825.55
eigval :      834.86   835.54   845.51   849.51   856.26   859.71
eigval :      864.37   865.93   871.86   873.29   882.91   885.44
eigval :      888.73   889.93   890.81   894.65   896.89   898.87
eigval :      900.42   905.12   914.59   917.72   928.21   928.56
eigval :      936.71   938.28   956.11   957.46   957.73   958.40
eigval :      960.97   961.50   962.03   963.24   963.48   964.34
eigval :      965.36   965.45   965.73   967.19  1002.79  1021.18
eigval :     1029.18  1031.58  1032.20  1033.05  1035.98  1036.38
eigval :     1040.25  1041.42  1069.86  1071.87  1073.40  1073.63
eigval :     1074.10  1078.98  1095.95  1113.86  1129.54  1131.32
eigval :     1132.73  1134.20  1135.79  1138.42  1143.65  1150.74
eigval :     1168.72  1174.56  1174.99  1176.81  1183.97  1184.48
eigval :     1194.46  1199.15  1208.21  1210.56  1211.08  1213.89
eigval :     1217.90  1218.99  1222.58  1225.47  1230.50  1231.08
eigval :     1231.47  1232.65  1238.21  1240.72  1240.87  1241.60
eigval :     1244.94  1245.72  1246.52  1247.76  1250.80  1266.71
eigval :     1275.58  1277.72  1286.87  1288.05  1291.89  1295.10
eigval :     1298.92  1311.05  1315.72  1316.48  1325.70  1326.39
eigval :     1329.07  1330.39  1350.34  1355.52  1375.18  1376.54
eigval :     1386.70  1388.25  1390.37  1391.46  1400.18  1401.63
eigval :     1402.14  1402.41  1403.97  1404.92  1407.56  1407.92
eigval :     1419.81  1423.44  1425.00  1427.08  1427.25  1430.39
eigval :     1432.75  1435.84  1441.22  1444.01  1444.58  1458.55
eigval :     1460.44  1465.20  1481.78  1486.79  1488.77  1489.55
eigval :     1489.98  1492.57  1493.23  1494.93  1495.54  1497.33
eigval :     1499.70  1500.11  1503.08  1503.47  1504.60  1505.52
eigval :     1506.50  1510.42  1512.20  1512.82  1513.42  1513.68
eigval :     1515.41  1516.63  1519.75  1521.29  1522.33  1526.10
eigval :     1529.19  1529.38  1537.15  1538.52  1552.53  1556.33
eigval :     1569.53  1574.92  1579.53  1583.04  1585.79  1598.13
eigval :     3014.87  3015.19  3018.91  3019.02  3019.34  3019.53
eigval :     3019.71  3019.84  3024.83  3025.14  3026.68  3027.23
eigval :     3027.96  3028.00  3028.17  3028.54  3034.77  3035.45
eigval :     3036.57  3036.84  3038.20  3039.11  3039.74  3039.85
eigval :     3041.47  3042.10  3043.09  3044.90  3045.75  3047.10
eigval :     3048.37  3048.88  3050.09  3050.65  3060.06  3068.38
eigval :     3084.51  3085.10  3085.23  3085.75  3088.08  3090.24
eigval :     3091.68  3092.04  3096.44  3098.39  3098.83  3099.69
eigval :     3103.40  3104.11  3106.36  3109.57  3110.07  3113.01
eigval :     3114.21  3114.37  3116.37  3130.55  3134.61  3140.98

   temp. (K)  partition function   enthalpy   heat capacity  entropy
                                   cal/mol     cal/K/mol   cal/K/mol   J/K/mol
 298.15  VIB  0.797E+27            38661.956    246.600    236.267
         ROT  0.152E+09              888.752      2.981     40.413
         INT  0.121E+36            39550.708    249.581    276.680
         TR   0.280E+29             1481.254      4.968     46.385
         TOT                       41031.9623   254.5493   323.0646  1351.7024

       T/K    H(0)-H(T)+PV         H(T)/Eh          T*S/Eh         G(T)/Eh
   ------------------------------------------------------------------------
    298.15    0.653886E-01    0.112559E+01    0.153498E+00    0.972091E+00
   ------------------------------------------------------------------------

         :::::::::::::::::::::::::::::::::::::::::::::::::::::
         ::                  THERMODYNAMIC                  ::
         :::::::::::::::::::::::::::::::::::::::::::::::::::::
         :: total free energy        -191.363791873476 Eh   ::
         ::.................................................::
         :: total energy             -192.335883358473 Eh   ::
         :: zero point energy           1.060201324006 Eh   ::
         :: G(RRHO) w/o ZPVE           -0.088109839009 Eh   ::
         :: G(RRHO) contrib.            0.972091484997 Eh   ::
         :::::::::::::::::::::::::::::::::::::::::::::::::::::

           -------------------------------------------------
          | TOTAL ENERGY             -192.335883358473 Eh   |
          | TOTAL ENTHALPY           -191.210293440331 Eh   |
          | TOTAL FREE ENERGY        -191.363791873476 Eh   |
          | GRADIENT NORM               0.000087681936 Eh/α |
           -------------------------------------------------

 * finished run on 2025/07/18 at 13:07:13.382
