   * xtb version 6.7.1 (edcfbbe) compiled by 'albert@albert-system' on 2024-07-22

   ID    Z sym.   atoms
    1    6 C      1-10, 12-21, 23-25, 27-32, 34-39, 41-50, 52-61, 63-71
    2    5 B      11, 51
    3    8 O      22, 40, 62, 72
    4    7 N      26, 33
    5    1 H      73-132

          program call               : xtb data2507/gas/PzTDBA/PzTDBA_gas_S0_crest.xyz --gfn 2 --ohess vtight --parallel 40 --molden --ceasefiles --namespace data2507/gas/PzTDBA/PzTDBA_gas_S0_finalOpt
          :  Hamiltonian                  GFN2-xTB          :
 * total energy  :  -192.4269139 Eh     change       -0.1240460E-07 Eh
 * total energy  :  -192.4269154 Eh     change       -0.1593675E-05 Eh
 * total energy  :  -192.4269182 Eh     change       -0.2761635E-05 Eh
 * total energy  :  -192.4269206 Eh     change       -0.2394145E-05 Eh
 * total energy  :  -192.4269225 Eh     change       -0.1887271E-05 Eh
 * total energy  :  -192.4269246 Eh     change       -0.2079673E-05 Eh
 * total energy  :  -192.4269264 Eh     change       -0.1853252E-05 Eh
 * total energy  :  -192.4269277 Eh     change       -0.1240469E-05 Eh
 * total energy  :  -192.4269289 Eh     change       -0.1267043E-05 Eh
 * total energy  :  -192.4269306 Eh     change       -0.1710285E-05 Eh
 * total energy  :  -192.4269366 Eh     change       -0.7267710E-06 Eh
 * total energy  :  -192.4269372 Eh     change       -0.5605692E-06 Eh
 * total energy  :  -192.4269377 Eh     change       -0.5570626E-06 Eh
 * total energy  :  -192.4269383 Eh     change       -0.5420146E-06 Eh
 * total energy  :  -192.4269388 Eh     change       -0.4917946E-06 Eh
 * total energy  :  -192.4269391 Eh     change       -0.3664012E-06 Eh
 * total energy  :  -192.4269394 Eh     change       -0.2525868E-06 Eh
 * total energy  :  -192.4269396 Eh     change       -0.1924569E-06 Eh
 * total energy  :  -192.4269396 Eh     change       -0.3690332E-08 Eh
   *** GEOMETRY OPTIMIZATION CONVERGED AFTER 22 ITERATIONS ***

 final structure:
================
132
 xtb: 6.7.1 (edcfbbe)
C           -5.38330768069685       -1.17609668864158        3.73629136579769
C           -5.12883266122398       -1.90642222056050        2.40793304185197
C           -5.96886958311117       -1.24565918629768        1.30676379025575
C           -5.59861939742295       -3.35705082814163        2.55254015352565
C           -3.63659621290500       -1.79898803694965        2.11893377453334
C           -2.75120162158984       -2.85679086828573        2.33154148572868
C           -1.39215318580901       -2.68280254827964        2.19740925061910
C           -0.86460608070345       -1.43402278869558        1.87132667503660
C           -1.71870275342846       -0.34905667971793        1.60457791114729
C           -3.09158452859442       -0.58719706693751        1.72920342673301
B           -1.04980223258500        0.99593887836991        1.23083597899360
C           -1.60061825477404        2.42003618922710        0.97108803265490
C           -2.90357342349478        2.87327970457313        1.22047005592807
C           -3.34147568417238        4.15163397454610        0.93111016080874
C           -4.73271553955349        4.65663640745500        1.28796146328854
C           -5.46708150715104        5.11424187167034        0.02082820100700
C           -4.58185739002531        5.84215551992784        2.25302252805902
C           -5.59327063525058        3.59249444738506        1.97609694173116
C           -2.43268821868568        5.01632462603216        0.31287201769782
C           -1.13061564686636        4.63706586394327        0.09296655513595
C           -0.69335670782192        3.36395282003573        0.46271852906700
O            0.64685423292752        3.16128193159063        0.32920502760090
C            1.23485466269337        2.02778737688021        0.78055902684282
C            2.61902985675759        2.00710621396374        0.82515441092385
C            3.28274980386866        0.86661998842223        1.28044089090279
N            4.67325238955311        0.83405632925078        1.31643879654547
C            5.43478859402611        1.67799936751476        0.46557594103086
C            5.64977453913392        3.02240688604315        0.71422910469832
C            6.45996634100026        3.74741897373989       -0.14638638658023
C            7.06566412166135        3.13667708703507       -1.23106140497359
C            6.86715630882806        1.78606686932996       -1.47749553952865
C            6.04780331126580        1.06539219437029       -0.63312675402342
N            5.77878634135781       -0.33195925856703       -0.80430873176862
C            4.45276202882899       -0.59287596219892       -1.21187555367302
C            3.88797914973219       -1.83578035195916       -0.93329024349994
C            2.53105348934950       -2.03332260213232       -1.12961324598080
C            1.69552589653586       -1.01043047788751       -1.60314907400007
C            2.31324127201781        0.19765789378237       -1.95790700718573
C            3.67579295871684        0.40002636904155       -1.80301565131314
O            1.59401237634104        1.24572359451532       -2.41463493388164
C            0.23231842021993        1.22278583546811       -2.42718026863961
C           -0.35428207417490        2.42309083012959       -2.82319109586060
C           -1.72217726982368        2.54109493301672       -2.90770992200916
C           -2.54930769621834        1.46686144153693       -2.58330204729557
C           -4.06327476265126        1.52533603261244       -2.71968016279253
C           -4.55425512771570        2.89591938117754       -3.19266437685725
C           -4.50765553788482        0.47548448305749       -3.74878300514567
C           -4.70737494953151        1.22505594688480       -1.36175181195830
C           -1.94438197940547        0.29785923240485       -2.15293014859528
C           -0.55964202138160        0.11414108808458       -2.07556731222253
B            0.18616142921230       -1.18255778623453       -1.66409167434631
C           -0.27827177018798       -2.62074344466492       -1.31336908692729
C           -1.58315024433204       -3.12368146906727       -1.40295897145512
C           -1.93062613943541       -4.42700218065823       -1.10163299829219
C           -3.34614226842441       -4.95609530962828       -1.27675449887900
C           -3.39448735829023       -5.76196346176036       -2.58289657283420
C           -3.72943093861364       -5.86721824243083       -0.10251123298349
C           -4.37191666645415       -3.82102342878859       -1.35178507573734
C           -0.91343499693166       -5.28606886149194       -0.67892127273806
C            0.38278864780626       -4.84477127628907       -0.57288354722028
C            0.71113318281779       -3.52795686454926       -0.89703897345787
O            2.03634714737380       -3.24073337674248       -0.78116881983065
C            6.03848340447843       -0.94715710998078        0.46912821148478
C            6.85355490798010       -2.04717683819273        0.63652866163591
C            6.98339290351290       -2.59942385514676        1.90272415703294
C            6.30323297178935       -2.05477289532300        2.97894076093550
C            5.50469474672313       -0.93328314430769        2.81858376166572
C            5.37695744339825       -0.37234503217247        1.55937143237528
C            2.54258408739819       -0.25853444355679        1.64743359865875
C            1.15879141117300       -0.23163742033247        1.56450755631856
C            0.46513879494052        0.92245036265026        1.17133717822033
O            0.49738833126687       -1.37009808926656        1.87958709979364
H           -5.09269752692377       -0.13089691146505        3.66336799663613
H           -6.43818464886649       -1.22504138165754        3.99866475657107
H           -4.80546059791795       -1.63396345411544        4.53643357459090
H           -5.74451331307517       -1.68015802463108        0.33589369610416
H           -5.79452739445200       -0.17525642400391        1.25466083616711
H           -7.02675024581870       -1.39800807905839        1.51101230825052
H           -5.37600588073183       -3.92872577423147        1.65543964720163
H           -5.13359660327279       -3.84056388910281        3.40799152517725
H           -6.67546474826834       -3.37664221423438        2.70889465122780
H           -3.11327181830471       -3.82962697370893        2.62179420703883
H           -0.71062641771384       -3.50267917790296        2.36508423857965
H           -3.75249094320829        0.23642097295713        1.52216052972711
H           -3.57331503904586        2.18250658268344        1.70174301201670
H           -5.62176782144770        4.27247106308976       -0.64961557538806
H           -4.90644452690450        5.87845596148961       -0.51040943579413
H           -6.43927137983480        5.52749908670696        0.28208621483525
H           -4.03483516451534        5.53534323878431        3.14218491961820
H           -4.04300502294947        6.66343216611372        1.78880888405045
H           -5.56097603172719        6.20600924346059        2.55800966769432
H           -5.75393733564485        2.73523118914408        1.32631505636050
H           -5.13548466028396        3.25827243387578        2.90437375421186
H           -6.56678070334461        4.01573184086181        2.21592488732738
H           -2.73516827731588        6.01330534676067        0.02943278925214
H           -0.41652932640059        5.32253452652184       -0.33738040794547
H            3.16061379524321        2.87382885330321        0.48590899248949
H            5.19415514670106        3.49235857087403        1.57242646307926
H            6.62491000038229        4.79797863624722        0.03976280131425
H            7.69745991919327        3.71262469981519       -1.88989228008604
H            7.32572191996260        1.29623922156894       -2.32216702191639
H            4.47688464329173       -2.63231157207681       -0.50859306331387
H            4.09181854920160        1.35991244547287       -2.06296034106560
H            0.29152662305346        3.25320651351561       -3.06568911110292
H           -2.13433625950452        3.48340363772663       -3.22796298353727
H           -4.24863141562744        3.67670710779187       -2.50044255209437
H           -5.64157556751819        2.89489421634920       -3.24747260445092
H           -4.17039812863732        3.12830294768797       -4.18336694577755
H           -4.23422937002112       -0.52699037676391       -3.43149373670737
H           -5.58754241936432        0.51024883160723       -3.87908560652839
H           -4.03705167254760        0.66739968260194       -4.71083704450109
H           -4.36372452710449        1.95160084217561       -0.62963643304986
H           -5.79231281576874        1.28002039247986       -1.43754594011359
H           -4.43919779194059        0.23304354031848       -1.01094515555496
H           -2.56869288424403       -0.52900384403151       -1.85891265793100
H           -2.34189467087403       -2.44595359996998       -1.74956745512621
H           -4.39280552976701       -6.16472049267094       -2.74222266928924
H           -2.68839421296386       -6.58845296602563       -2.55077878388750
H           -3.13643425268260       -5.12781944242091       -3.42853675167819
H           -3.53250239417860       -5.36558534696050        0.84139542772793
H           -3.17286203456620       -6.79982617695171       -0.11992901816643
H           -4.78782620193396       -6.11622068053395       -0.15229664461422
H           -4.25158859826787       -3.15217024211419       -0.50240449804462
H           -4.26578050544068       -3.25157297479911       -2.27217387519993
H           -5.38029120589828       -4.23078435243875       -1.33441870079710
H           -1.12875020308283       -6.31575859926609       -0.44061986915546
H            1.17365766128506       -5.50725021396237       -0.25464837760047
H            7.35760318993943       -2.47461133595954       -0.21628500199853
H            7.61181620730664       -3.46525955488003        2.04545951859248
H            6.40239284837041       -2.49987943361935        3.95746692199849
H            4.98340922066124       -0.49591858211538        3.65637556013170
H            3.02933312475049       -1.16908151014602        1.95651840266694

          :  Hamiltonian                  GFN2-xTB          :
         :: gradient norm              0.000038639481 Eh/a0 ::
         :: HOMO-LUMO gap              2.516263900534 eV    ::
         :: SCC energy              -195.573604003845 Eh    ::
         :: -> dispersion             -0.214092918366 Eh    ::
         :: repulsion energy           3.146664410756 Eh    ::

    * Orbital Energies and Occupations

         #    Occupation            Energy/Eh            Energy/eV
      -------------------------------------------------------------
         1        2.0000           -0.7165192             -19.4975
       ...           ...                  ...                  ...
       166        2.0000           -0.3938492             -10.7172
       167        2.0000           -0.3915453             -10.6545
       168        2.0000           -0.3888804             -10.5820
       169        2.0000           -0.3818671             -10.3911
       170        2.0000           -0.3807125             -10.3597
       171        2.0000           -0.3777739             -10.2798
       172        2.0000           -0.3760365             -10.2325
       173        2.0000           -0.3741302             -10.1806
       174        2.0000           -0.3724925             -10.1360
       175        2.0000           -0.3655476              -9.9471
       176        2.0000           -0.3571167              -9.7176
       177        2.0000           -0.3529196              -9.6034
       178        2.0000           -0.3513316              -9.5602 (HOMO)
       179                         -0.2588607              -7.0440 (LUMO)
       180                         -0.2569033              -6.9907
       181                         -0.2388436              -6.4993
       182                         -0.2359779              -6.4213
       183                         -0.2309292              -6.2839
       184                         -0.2279367              -6.2025
       185                         -0.2213420              -6.0230
       186                         -0.2186900              -5.9509
       187                         -0.2149004              -5.8477
       188                         -0.2129734              -5.7953
       189                         -0.2119353              -5.7671
       ...                                ...                  ...
       348                          0.7136218              19.4186
      -------------------------------------------------------------
                  HL-Gap            0.0924709 Eh            2.5163 eV

     #   Z          covCN         q      C6AA      α(0)
     1   6 C        3.764    -0.105    22.555     6.769
     2   6 C        3.902     0.026    20.085     6.370
     3   6 C        3.761    -0.107    22.595     6.776
     4   6 C        3.761    -0.109    22.633     6.782
     5   6 C        2.968    -0.003    28.106     8.696
     6   6 C        2.927    -0.036    28.895     8.815
     7   6 C        2.914    -0.055    29.365     8.886
     8   6 C        2.876     0.136    25.038     8.203
     9   6 C        2.882    -0.093    30.332     9.029
    10   6 C        2.933    -0.043    29.060     8.841
    11   5 B        2.725     0.211    18.227     7.153
    12   6 C        2.883    -0.093    30.346     9.031
    13   6 C        2.931    -0.044    29.102     8.847
    14   6 C        2.968    -0.003    28.108     8.696
    15   6 C        3.902     0.026    20.087     6.371
    16   6 C        3.761    -0.107    22.587     6.775
    17   6 C        3.763    -0.106    22.567     6.772
    18   6 C        3.761    -0.106    22.581     6.774
    19   6 C        2.928    -0.034    28.843     8.808
    20   6 C        2.914    -0.055    29.376     8.888
    21   6 C        2.879     0.136    25.021     8.200
    22   8 O        1.711    -0.226    17.753     5.689
    23   6 C        2.876     0.140    24.949     8.188
    24   6 C        2.917    -0.095    30.389     9.040
    25   6 C        2.918     0.073    26.367     8.420
    26   7 N        2.753    -0.092    23.035     7.128
    27   6 C        2.959     0.055    26.757     8.485
    28   6 C        2.918    -0.042    29.053     8.839
    29   6 C        2.921    -0.033    28.813     8.803
    30   6 C        2.922    -0.034    28.840     8.807
    31   6 C        2.917    -0.040    29.005     8.832
    32   6 C        2.992     0.060    26.639     8.466
    33   7 N        2.748    -0.141    24.044     7.283
    34   6 C        2.961     0.077    26.276     8.408
    35   6 C        2.918    -0.093    30.348     9.034
    36   6 C        2.877     0.140    24.942     8.187
    37   6 C        2.888    -0.134    31.419     9.190
    38   6 C        2.878     0.138    24.983     8.194
    39   6 C        2.916    -0.093    30.329     9.031
    40   8 O        1.712    -0.226    17.751     5.689
    41   6 C        2.880     0.135    25.041     8.204
    42   6 C        2.915    -0.055    29.357     8.885
    43   6 C        2.926    -0.037    28.930     8.821
    44   6 C        2.970    -0.002    28.080     8.692
    45   6 C        3.903     0.025    20.101     6.373
    46   6 C        3.761    -0.107    22.600     6.777
    47   6 C        3.762    -0.105    22.549     6.769
    48   6 C        3.762    -0.108    22.610     6.778
    49   6 C        2.934    -0.040    29.000     8.832
    50   6 C        2.881    -0.096    30.416     9.041
    51   5 B        2.723     0.212    18.209     7.151
    52   6 C        2.881    -0.094    30.346     9.031
    53   6 C        2.932    -0.043    29.068     8.842
    54   6 C        2.970    -0.002    28.075     8.691
    55   6 C        3.903     0.025    20.097     6.372
    56   6 C        3.762    -0.105    22.547     6.769
    57   6 C        3.761    -0.106    22.565     6.772
    58   6 C        3.761    -0.104    22.532     6.767
    59   6 C        2.927    -0.034    28.850     8.809
    60   6 C        2.914    -0.056    29.381     8.888
    61   6 C        2.880     0.138    24.995     8.196
    62   8 O        1.712    -0.223    17.700     5.680
    63   6 C        3.004     0.060    26.644     8.467
    64   6 C        2.917    -0.040    29.000     8.831
    65   6 C        2.922    -0.034    28.852     8.809
    66   6 C        2.921    -0.032    28.803     8.801
    67   6 C        2.918    -0.043    29.056     8.839
    68   6 C        2.959     0.055    26.771     8.487
    69   6 C        2.917    -0.096    30.413     9.043
    70   6 C        2.873     0.139    24.969     8.191
    71   6 C        2.889    -0.135    31.440     9.193
    72   8 O        1.711    -0.230    17.806     5.697
    73   1 H        0.925     0.035     2.516     2.481
    74   1 H        0.925     0.037     2.484     2.465
    75   1 H        0.925     0.032     2.551     2.498
    76   1 H        0.925     0.036     2.507     2.476
    77   1 H        0.925     0.037     2.490     2.468
    78   1 H        0.925     0.035     2.514     2.480
    79   1 H        0.925     0.041     2.433     2.439
    80   1 H        0.925     0.034     2.536     2.491
    81   1 H        0.925     0.034     2.528     2.486
    82   1 H        0.926     0.036     2.497     2.471
    83   1 H        0.926     0.040     2.452     2.449
    84   1 H        0.926     0.042     2.427     2.436
    85   1 H        0.926     0.042     2.422     2.434
    86   1 H        0.925     0.039     2.457     2.451
    87   1 H        0.925     0.034     2.533     2.489
    88   1 H        0.925     0.035     2.515     2.480
    89   1 H        0.925     0.033     2.548     2.496
    90   1 H        0.925     0.036     2.502     2.474
    91   1 H        0.925     0.036     2.503     2.474
    92   1 H        0.925     0.035     2.516     2.481
    93   1 H        0.925     0.034     2.524     2.485
    94   1 H        0.925     0.036     2.508     2.477
    95   1 H        0.926     0.032     2.558     2.501
    96   1 H        0.926     0.041     2.437     2.441
    97   1 H        0.926     0.047     2.363     2.404
    98   1 H        0.926     0.047     2.356     2.400
    99   1 H        0.926     0.041     2.429     2.437
   100   1 H        0.926     0.042     2.428     2.437
   101   1 H        0.926     0.050     2.318     2.381
   102   1 H        0.926     0.043     2.407     2.426
   103   1 H        0.926     0.041     2.441     2.443
   104   1 H        0.926     0.042     2.423     2.434
   105   1 H        0.926     0.040     2.452     2.448
   106   1 H        0.925     0.038     2.479     2.462
   107   1 H        0.925     0.034     2.536     2.490
   108   1 H        0.925     0.034     2.526     2.486
   109   1 H        0.925     0.034     2.525     2.485
   110   1 H        0.925     0.036     2.499     2.472
   111   1 H        0.925     0.032     2.555     2.500
   112   1 H        0.925     0.039     2.462     2.454
   113   1 H        0.925     0.032     2.556     2.500
   114   1 H        0.925     0.039     2.458     2.452
   115   1 H        0.926     0.037     2.492     2.469
   116   1 H        0.926     0.039     2.459     2.452
   117   1 H        0.925     0.037     2.484     2.465
   118   1 H        0.925     0.035     2.522     2.484
   119   1 H        0.925     0.033     2.540     2.492
   120   1 H        0.925     0.037     2.488     2.467
   121   1 H        0.925     0.035     2.519     2.482
   122   1 H        0.925     0.033     2.540     2.492
   123   1 H        0.925     0.038     2.473     2.459
   124   1 H        0.925     0.032     2.560     2.502
   125   1 H        0.925     0.033     2.538     2.491
   126   1 H        0.926     0.035     2.520     2.483
   127   1 H        0.926     0.040     2.445     2.445
   128   1 H        0.926     0.050     2.320     2.382
   129   1 H        0.926     0.042     2.429     2.437
   130   1 H        0.926     0.042     2.427     2.436
   131   1 H        0.926     0.046     2.368     2.407
   132   1 H        0.926     0.042     2.421     2.433

molecular dipole:
                 x           y           z       tot (Debye)
 q only:       -0.391       0.150       0.398
   full:       -0.249       0.206       0.453       1.414

 projected vibrational frequencies (cm⁻¹)
eigval :       -0.00    -0.00     0.00     0.00     0.00     0.00
eigval :       17.24    18.94    23.15    29.75    33.38    35.36
eigval :       41.40    45.10    45.52    47.74    50.94    57.06
eigval :       58.14    61.84    63.37    67.99    75.26    77.00
eigval :       86.44    94.59    99.31   103.84   106.04   109.32
eigval :      118.01   126.31   131.82   134.49   146.47   149.48
eigval :      151.28   163.53   172.40   181.43   182.32   185.65
eigval :      194.80   206.84   211.27   212.24   220.48   224.17
eigval :      226.23   229.35   231.81   235.75   241.42   249.18
eigval :      255.86   256.94   260.04   264.08   266.38   273.23
eigval :      275.36   279.91   286.76   297.62   298.31   309.53
eigval :      313.06   317.32   324.89   326.34   332.38   334.12
eigval :      343.75   346.98   349.98   360.81   363.94   365.29
eigval :      367.34   373.57   379.24   381.67   387.98   393.93
eigval :      401.36   401.69   411.00   416.25   426.38   430.55
eigval :      433.50   434.72   436.51   438.62   440.57   445.34
eigval :      453.37   455.53   463.59   472.83   477.83   482.00
eigval :      497.09   501.86   502.24   506.87   516.65   518.40
eigval :      519.36   521.39   523.90   554.19   565.53   566.38
eigval :      571.64   578.59   584.79   589.77   593.92   595.45
eigval :      597.77   599.48   603.68   620.05   620.74   646.78
eigval :      647.98   652.54   656.30   659.32   681.33   684.51
eigval :      686.54   692.97   698.79   700.02   701.90   704.08
eigval :      707.20   714.50   716.28   731.80   732.52   738.34
eigval :      780.42   781.55   802.48   813.66   817.56   819.53
eigval :      822.27   824.27   825.41   829.95   833.44   833.99
eigval :      840.73   849.09   851.62   854.74   860.35   872.59
eigval :      874.43   875.12   876.37   881.56   882.69   886.02
eigval :      888.89   895.32   896.44   909.82   912.17   914.55
eigval :      914.80   915.51   919.75   920.44   927.37   929.39
eigval :      941.37   941.50   957.54   958.67   959.69   960.17
eigval :      960.98   961.61   962.96   963.12   964.09   964.45
eigval :      965.95   967.89   968.27   971.88  1008.31  1030.26
eigval :     1032.03  1032.80  1035.03  1036.09  1037.77  1038.24
eigval :     1041.58  1042.00  1072.65  1074.13  1075.09  1083.56
eigval :     1085.53  1087.01  1101.80  1114.70  1133.06  1135.04
eigval :     1141.21  1142.88  1147.29  1149.11  1149.84  1155.66
eigval :     1175.27  1176.65  1181.90  1183.86  1192.83  1193.84
eigval :     1197.98  1206.38  1220.61  1223.06  1224.89  1226.06
eigval :     1226.80  1227.17  1228.93  1231.41  1231.68  1233.05
eigval :     1235.02  1237.81  1242.73  1243.31  1244.74  1246.83
eigval :     1251.83  1252.48  1255.85  1268.99  1273.59  1275.32
eigval :     1285.18  1287.34  1295.92  1296.57  1297.26  1298.73
eigval :     1320.85  1324.66  1326.58  1328.06  1330.89  1335.21
eigval :     1342.01  1350.76  1356.75  1361.64  1398.55  1399.45
eigval :     1400.47  1400.57  1402.69  1405.01  1405.80  1406.16
eigval :     1407.59  1409.92  1411.55  1411.96  1412.43  1413.67
eigval :     1426.22  1428.49  1429.50  1430.56  1442.08  1442.93
eigval :     1444.74  1447.82  1449.08  1449.67  1451.69  1464.40
eigval :     1469.92  1477.70  1488.62  1489.36  1491.65  1492.10
eigval :     1493.82  1494.37  1495.43  1495.50  1499.83  1501.32
eigval :     1501.56  1503.12  1505.56  1505.72  1509.34  1511.18
eigval :     1514.10  1514.39  1515.89  1516.72  1521.45  1525.58
eigval :     1525.77  1528.43  1533.79  1539.09  1545.46  1549.01
eigval :     1549.29  1553.56  1574.12  1574.72  1580.98  1585.58
eigval :     1591.31  1595.30  1597.76  1599.64  1601.74  1603.69
eigval :     3012.85  3015.51  3018.29  3020.42  3020.57  3021.03
eigval :     3021.91  3022.37  3025.19  3026.04  3027.32  3027.51
eigval :     3028.27  3028.60  3028.85  3030.11  3033.43  3033.54
eigval :     3034.70  3035.55  3037.17  3037.98  3038.33  3039.83
eigval :     3040.05  3042.85  3043.11  3044.87  3045.71  3047.63
eigval :     3048.60  3048.79  3050.04  3051.17  3054.61  3055.63
eigval :     3079.64  3084.47  3084.73  3086.56  3091.38  3091.69
eigval :     3092.21  3092.30  3095.18  3098.40  3099.18  3100.94
eigval :     3104.17  3105.54  3109.50  3112.86  3115.03  3115.72
eigval :     3116.04  3118.30  3125.87  3129.43  3138.96  3149.37

   temp. (K)  partition function   enthalpy   heat capacity  entropy
                                   cal/mol     cal/K/mol   cal/K/mol   J/K/mol
 298.15  VIB  0.749E+27            38510.395    244.276    235.288
         ROT  0.156E+09              888.752      2.981     40.468
         INT  0.117E+36            39399.148    247.257    275.756
         TR   0.280E+29             1481.254      4.968     46.385
         TOT                       40880.4016   252.2253   322.1412  1347.8388

       T/K    H(0)-H(T)+PV         H(T)/Eh          T*S/Eh         G(T)/Eh
   ------------------------------------------------------------------------
    298.15    0.651471E-01    0.112963E+01    0.153060E+00    0.976575E+00
   ------------------------------------------------------------------------

         :::::::::::::::::::::::::::::::::::::::::::::::::::::
         ::                  THERMODYNAMIC                  ::
         :::::::::::::::::::::::::::::::::::::::::::::::::::::
         :: total free energy        -191.450364964761 Eh   ::
         ::.................................................::
         :: total energy             -192.426939593090 Eh   ::
         :: zero point energy           1.064487238417 Eh   ::
         :: G(RRHO) w/o ZPVE           -0.087912610088 Eh   ::
         :: G(RRHO) contrib.            0.976574628329 Eh   ::
         :::::::::::::::::::::::::::::::::::::::::::::::::::::

           -------------------------------------------------
          | TOTAL ENERGY             -192.426939593090 Eh   |
          | TOTAL ENTHALPY           -191.297305287964 Eh   |
          | TOTAL FREE ENERGY        -191.450364964761 Eh   |
          | GRADIENT NORM               0.000038624995 Eh/α |
          | HOMO-LUMO GAP               2.516261441678 eV   |
           -------------------------------------------------

 * finished run on 2025/07/18 at 13:06:21.390
