   * xtb version 6.7.1 (edcfbbe) compiled by 'albert@albert-system' on 2024-07-22

   ID    Z sym.   atoms
    1    6 C      1-10, 12-21, 23-25, 27-32, 34-39, 41-50, 52-61, 63-71
    2    5 B      11, 51
    3    8 O      22, 40, 62, 72
    4    7 N      26, 33
    5    1 H      73-132

          program call               : xtb data2507/gas/PzTDBA/PzTDBA_gas_T1_crest.xyz --gfn 2 --spinpol --tblite --uhf 2 --ohess vtight --parallel 40 --molden --ceasefiles --namespace data2507/gas/PzTDBA/PzTDBA_gas_T1_finalOpt
 * total energy  :  -192.3510260 Eh     change       -0.3074450E-07 Eh
 * total energy  :  -192.3510306 Eh     change       -0.4593200E-05 Eh
 * total energy  :  -192.3510326 Eh     change       -0.1993871E-05 Eh
 * total energy  :  -192.3510338 Eh     change       -0.1157651E-05 Eh
 * total energy  :  -192.3510370 Eh     change       -0.3187881E-05 Eh
 * total energy  :  -192.3510380 Eh     change       -0.1054819E-05 Eh
 * total energy  :  -192.3510408 Eh     change       -0.2801118E-05 Eh
 * total energy  :  -192.3510444 Eh     change       -0.3532053E-05 Eh
 * total energy  :  -192.3510479 Eh     change       -0.3576374E-05 Eh
 * total energy  :  -192.3510519 Eh     change       -0.4013786E-05 Eh
 * total energy  :  -192.3511035 Eh     change       -0.4519962E-06 Eh
 * total energy  :  -192.3511040 Eh     change       -0.4786242E-06 Eh
 * total energy  :  -192.3511046 Eh     change       -0.6195335E-06 Eh
 * total energy  :  -192.3511052 Eh     change       -0.6069501E-06 Eh
 * total energy  :  -192.3511056 Eh     change       -0.3750580E-06 Eh
 * total energy  :  -192.3511059 Eh     change       -0.2514962E-06 Eh
 * total energy  :  -192.3511061 Eh     change       -0.2669521E-06 Eh
 * total energy  :  -192.3511063 Eh     change       -0.1734381E-06 Eh
 * total energy  :  -192.3511063 Eh     change       -0.1548366E-07 Eh
   *** GEOMETRY OPTIMIZATION CONVERGED AFTER 56 ITERATIONS ***

 final structure:
================
132
 xtb: 6.7.1 (edcfbbe)
C           11.16247838667320        4.53745539054154        0.88979648489994
C           10.99748458610707        3.47196378808920       -0.20293746821433
C           11.89415276848306        2.28229492272498        0.15200459733063
C           11.46542474315111        4.03456418371143       -1.55249296379301
C            9.52754597286649        3.09271296274400       -0.30644680658605
C            8.58866602900940        4.07393600147010       -0.63153227008836
C            7.24714907129536        3.77043985725621       -0.70894784348082
C            6.80614297983128        2.47047486732367       -0.48007476626075
C            7.71428058503969        1.43796018441785       -0.18877654462081
C            9.06455845862547        1.80784911859360       -0.09235904773421
B            7.13417399569884        0.01742613256282        0.00688575588370
C            7.78069732472567       -1.37413005348253        0.20175224202331
C            9.14686961224516       -1.67969616332529        0.10400884309148
C            9.67032219907529       -2.94126283063418        0.31712058701409
C           11.15649245417739       -3.25036421187752        0.21203247387813
C           11.99543423199667       -2.01937327350952       -0.14318152829442
C           11.37078544579771       -4.30620041183177       -0.88152242784565
C           11.65201088405571       -3.79069233031582        1.56083666254269
C            8.77910839392682       -3.96594379874262        0.64236460610342
C            7.42480032937370       -3.72622635346921        0.72124365901339
C            6.92256997461568       -2.44842441445624        0.49369203781992
O            5.55711799844729       -2.35498184688402        0.57465051213851
C            4.91023087931614       -1.20405035902141        0.29207359269754
C            3.52072112804826       -1.24464802013657        0.30089715328343
C            2.81501137144028       -0.08341468810844        0.01315593875889
N            1.38821824587158       -0.11305447983368        0.01551482562152
C            0.71732837648317       -0.05930556889613        1.20878777720257
C            1.39462128805776        0.02074164567184        2.43020112924671
C            0.70188751784941        0.05280324000991        3.61610779541747
C           -0.70259215566794        0.00246748414652        3.61719825386635
C           -1.39397113188789       -0.05729385690155        2.43193269099251
C           -0.71517970816321       -0.07503368693902        1.20833347575319
N           -1.38575431202147       -0.10860732229455        0.01419906427300
C           -2.81227460822798       -0.07515288580544        0.01343100955499
C           -3.52081703784524       -1.25170505989260       -0.19516652140748
C           -4.91012836523423       -1.20698598418727       -0.19143556054265
C           -5.60537929479777       -0.00290040595037        0.00924507580241
C           -4.84950502473352        1.16359083518572        0.21379532590709
C           -3.45994550446622        1.13597515265535        0.22139594342986
O           -5.43810384423545        2.36140395573116        0.41859776715992
C           -6.79749635769219        2.51744801199213        0.32931503903498
C           -7.23670275620111        3.82806565444484        0.47362701420913
C           -8.57978055131022        4.13434106869616        0.37764771921989
C           -9.51656668367091        3.13786262363095        0.11553451110491
C          -11.00529631558056        3.41799790131986       -0.03051234208990
C          -11.45416841722199        3.01441396000146       -1.44210156570182
C          -11.77804774233269        2.59905241388347        1.01338143082694
C          -11.34948528849467        4.89557099718392        0.17551158624898
C           -9.05281613344309        1.83830269201629       -0.01699610598454
C           -7.70816156518304        1.46835710125882        0.10419049434990
B           -7.13065257003780        0.03678287772966        0.00540472434356
C           -7.78055656383552       -1.36272125907765       -0.09397926296757
C           -9.14770636278062       -1.65620422251922        0.02305299457543
C           -9.67575412323483       -2.92728425722613       -0.10420864613113
C          -11.16342994662140       -3.22247146905737        0.01833280534172
C          -11.99839877877725       -1.96583555012782        0.28174005644989
C          -11.65761495333898       -3.85612073312341       -1.28979824542345
C          -11.38498343789506       -4.19637737535789        1.18399136404903
C           -8.78752834353563       -3.97492469781486       -0.35638759065105
C           -7.43213716350179       -3.74592021262334       -0.44935149970716
C           -6.92560394534938       -2.45719500655050       -0.31020321952063
O           -5.55988263174115       -2.37307015422119       -0.39564233216144
C           -0.71466627647892       -0.15902337284304       -1.17928992085062
C           -1.39113099393091       -0.17925883259793       -2.40367134751536
C           -0.69792266613154       -0.25032849349776       -3.58759547500203
C            0.70634146697233       -0.30566673955167       -3.58386002025127
C            1.39712203584923       -0.26696232957842       -2.39737613587672
C            0.71775450183507       -0.17948833086101       -1.17717108793708
C            3.46533971979237        1.10897664794099       -0.27764595427156
C            4.85505067068180        1.13316787317932       -0.27355339964250
C            5.60844438208906       -0.01851878356737        0.00834728409541
O            5.44654591059709        2.31282977885247       -0.55882301109294
H           10.81491682316349        4.15114867569128        1.84581368981284
H           12.20997395838246        4.81500735260164        0.98929522786527
H           10.59358777891259        5.43361740147327        0.65816045865073
H           11.83494264566714        1.50670725844979       -0.60806641527033
H           11.62150769764217        1.86057906260776        1.11675035317332
H           12.92897567240752        2.61413995216637        0.21182311886875
H           12.52079076571458        4.29553923629521       -1.50511325741853
H           11.32773664359456        3.29254841987805       -2.33634416203560
H           10.90723748459242        4.92558945371557       -1.82584693374286
H            8.89873691198702        5.09125555962192       -0.81526320121428
H            6.51708290715771        4.53141525804610       -0.94017968411357
H            9.76122148435920        1.03629019511443        0.18080217220737
H            9.80591803825179       -0.87591212372588       -0.16954411405749
H           11.90047375955428       -1.24796124077654        0.61750678833125
H           11.70197354835247       -1.61038617745859       -1.10729681892839
H           13.04474957160032       -2.30177889915460       -0.20444303316829
H           10.84542142201656       -5.22848058461609       -0.64965658786102
H           11.00413526076735       -3.93643952529268       -1.83695798980628
H           12.43017353934230       -4.53361636631669       -0.98233466734152
H           11.48081595770859       -3.05614120434386        2.34512749295321
H           11.13653041056906       -4.70694890801480        1.83463363243132
H           12.71837335902699       -4.00195918711313        1.51194871369984
H            9.13709355116813       -4.96755022223525        0.82533626197708
H            6.73182832131196       -4.52101843506430        0.95287509060666
H            3.00608460903812       -2.16565803548565        0.52310662661036
H            2.47235582680179        0.05509762768895        2.42732832043781
H            1.23714361348735        0.11301154559513        4.54989819233262
H           -1.23883762459324        0.01465547671713        4.55230823437650
H           -2.47173153452379       -0.09123018582703        2.43037678851069
H           -3.00829460388826       -2.18710810701529       -0.35279879127491
H           -2.90019429600214        2.04349521048584        0.38147700701670
H           -6.50546320584232        4.60126326614351        0.65563014976033
H           -8.87833508555344        5.16244386371643        0.49874247539840
H          -10.90372949587498        3.58372701471259       -2.18830909901821
H          -12.51641458019472        3.21313219499394       -1.56987531427570
H          -11.28023399800490        1.95777886405853       -1.62585255922266
H          -11.43857355892169        2.85200618658566        2.01571615829604
H          -12.84283216456827        2.81276998606236        0.94494414138227
H          -11.63708570502349        1.53223379071029        0.86545890708833
H          -10.85187577706480        5.52027736610552       -0.56264420017670
H          -12.42299895788642        5.03710665167643        0.06543646428797
H          -11.06742236102874        5.22708197957621        1.17222170703412
H           -9.75983667959752        1.05777775875107       -0.24230996884684
H           -9.80312305510165       -0.83285223839471        0.24158721192146
H          -13.04935739763567       -2.23852733899494        0.35732206158830
H          -11.89619566828896       -1.25133595941301       -0.53211303064635
H          -11.70791221856357       -1.49068171200665        1.21608396636276
H          -11.14552617756994       -4.79188154054069       -1.49540546710954
H          -11.48081203617440       -3.18070453056137       -2.12443108853031
H          -12.72506598257545       -4.05877410171378       -1.22926255980314
H          -10.86182017733324       -5.13443267529558        1.02043515799711
H          -11.02020149417763       -3.76021546472587        2.11171477336284
H          -12.44545573017711       -4.41267472671980        1.29710382473005
H           -9.14880361692004       -4.98555548164188       -0.47019370659370
H           -6.74185689439619       -4.55740198777094       -0.62418839629167
H           -2.46866415266220       -0.13979550230477       -2.40480634237768
H           -1.23277940238683       -0.26694495713181       -4.52340532885872
H            1.24283331432188       -0.37430525912090       -4.51638109626832
H            2.47481085051199       -0.30331066741626       -2.39206136619271
H            2.90773803588001        2.00496488486221       -0.49851403111580

 projected vibrational frequencies (cm⁻¹)
eigval :       -0.00     0.00     0.00     0.00     0.00     0.00
eigval :       -1.13     3.03     7.26     7.95    18.55    18.91
eigval :       19.28    27.00    27.94    27.97    35.49    36.65
eigval :       44.64    54.05    55.23    59.89    63.07    74.50
eigval :       76.57    83.56    89.84    91.38    99.00   101.29
eigval :      106.86   109.78   123.00   129.10   131.48   133.83
eigval :      154.36   160.61   171.16   173.49   175.42   177.00
eigval :      208.46   209.12   214.65   214.98   216.10   218.74
eigval :      220.39   220.58   225.14   226.89   227.36   230.62
eigval :      239.06   250.43   255.10   261.73   263.61   266.10
eigval :      269.67   281.13   284.24   290.52   291.85   317.13
eigval :      318.86   321.26   321.29   321.85   328.98   331.65
eigval :      334.92   349.08   360.18   361.53   364.54   364.91
eigval :      364.93   366.73   375.60   381.31   383.71   387.96
eigval :      390.42   393.94   407.24   409.13   412.45   412.86
eigval :      418.18   422.34   433.39   433.47   433.66   434.23
eigval :      442.67   446.34   448.67   455.59   463.60   474.59
eigval :      480.98   488.88   492.83   499.53   506.05   516.24
eigval :      516.85   516.97   517.48   518.09   523.55   567.56
eigval :      568.70   569.08   581.08   581.52   585.74   593.09
eigval :      594.19   598.29   614.90   617.60   618.75   640.37
eigval :      640.90   644.68   650.79   651.82   655.47   655.98
eigval :      662.70   682.72   683.30   686.42   690.69   697.52
eigval :      697.71   697.82   710.35   710.54   728.68   729.02
eigval :      750.00   752.57   776.97   812.85   815.21   817.13
eigval :      817.92   819.38   821.38   823.07   827.87   828.52
eigval :      837.76   838.20   845.57   850.33   850.75   852.68
eigval :      861.07   861.57   866.30   872.21   873.46   873.81
eigval :      885.19   889.99   890.32   891.88   892.04   895.26
eigval :      895.49   904.82   910.11   910.19   910.78   915.31
eigval :      938.90   939.81   959.49   959.64   959.72   959.89
eigval :      960.24   960.40   961.86   962.27   962.29   962.39
eigval :      962.69   962.79   967.33   968.58  1000.02  1018.09
eigval :     1034.08  1034.14  1034.71  1034.90  1035.16  1035.22
eigval :     1035.31  1035.53  1067.10  1074.30  1074.82  1075.44
eigval :     1080.69  1081.78  1104.28  1132.96  1132.98  1133.45
eigval :     1135.02  1138.46  1139.61  1139.62  1140.98  1168.22
eigval :     1172.47  1173.52  1178.29  1178.42  1178.82  1181.26
eigval :     1214.54  1215.28  1215.92  1216.59  1218.54  1227.76
eigval :     1228.02  1228.17  1228.19  1230.06  1230.32  1231.19
eigval :     1231.85  1238.92  1240.67  1241.29  1244.99  1245.29
eigval :     1247.31  1250.01  1266.34  1280.72  1282.70  1285.56
eigval :     1293.70  1294.11  1296.56  1297.13  1312.48  1321.90
eigval :     1324.51  1326.86  1328.96  1329.22  1341.62  1349.68
eigval :     1349.95  1350.40  1365.18  1375.55  1383.09  1386.51
eigval :     1386.91  1389.88  1390.34  1397.65  1398.56  1403.97
eigval :     1404.07  1404.29  1404.31  1405.19  1405.29  1406.26
eigval :     1406.28  1414.35  1427.02  1427.34  1427.56  1427.89
eigval :     1430.58  1433.53  1444.86  1446.64  1450.24  1459.79
eigval :     1460.47  1469.63  1470.51  1472.62  1490.17  1490.48
eigval :     1490.49  1490.55  1492.86  1493.12  1493.53  1493.56
eigval :     1493.66  1498.54  1498.85  1500.24  1501.76  1503.03
eigval :     1503.12  1503.53  1503.65  1512.46  1512.66  1512.72
eigval :     1513.17  1513.50  1515.85  1516.88  1518.78  1519.65
eigval :     1521.93  1523.05  1523.99  1527.83  1547.40  1547.82
eigval :     1550.43  1551.81  1574.37  1576.68  1586.50  1591.07
eigval :     3018.81  3019.40  3019.89  3019.97  3021.28  3021.35
eigval :     3021.38  3021.39  3025.02  3026.29  3026.37  3026.57
eigval :     3027.63  3027.98  3028.24  3028.57  3030.12  3030.46
eigval :     3030.50  3030.68  3033.33  3034.46  3034.94  3035.02
eigval :     3035.73  3037.16  3037.35  3037.58  3046.53  3046.63
eigval :     3046.68  3046.77  3049.71  3049.92  3049.98  3051.62
eigval :     3081.69  3081.73  3081.76  3087.29  3093.20  3093.66
eigval :     3093.81  3100.17  3100.43  3105.06  3105.18  3107.36
eigval :     3107.51  3107.64  3108.19  3112.71  3112.84  3114.59
eigval :     3116.16  3116.64  3116.81  3144.15  3148.80  3152.70

   temp. (K)  partition function   enthalpy   heat capacity  entropy
                                   cal/mol     cal/K/mol   cal/K/mol   J/K/mol
 298.15  VIB  0.368E+33            39475.132    243.344    248.753
         ROT  0.399E+09              888.752      2.981     42.337
         INT  0.147E+42            40363.885    246.325    291.090
         TR   0.280E+29             1481.254      4.968     46.385
         TOT                       41845.1386   251.2935   337.4749  1411.9948

       T/K    H(0)-H(T)+PV         H(T)/Eh          T*S/Eh         G(T)/Eh
   ------------------------------------------------------------------------
    298.15    0.666845E-01    0.112557E+01    0.160345E+00    0.965222E+00
   ------------------------------------------------------------------------

         :::::::::::::::::::::::::::::::::::::::::::::::::::::
         ::                  THERMODYNAMIC                  ::
         :::::::::::::::::::::::::::::::::::::::::::::::::::::
         :: total free energy        -191.385883872842 Eh   ::
         ::.................................................::
         :: total energy             -192.351106304494 Eh   ::
         :: zero point energy           1.058883152714 Eh   ::
         :: G(RRHO) w/o ZPVE           -0.093660721061 Eh   ::
         :: G(RRHO) contrib.            0.965222431652 Eh   ::
         :::::::::::::::::::::::::::::::::::::::::::::::::::::

           -------------------------------------------------
          | TOTAL ENERGY             -192.351106304494 Eh   |
          | TOTAL ENTHALPY           -191.225538678842 Eh   |
          | TOTAL FREE ENERGY        -191.385883872842 Eh   |
          | GRADIENT NORM               0.000088744780 Eh/α |
           -------------------------------------------------

 * finished run on 2025/07/18 at 13:30:01.060
