   * xtb version 6.7.1 (edcfbbe) compiled by 'albert@albert-system' on 2024-07-22

   ID    Z sym.   atoms
    1    6 C      1-10, 12-21, 23-25, 27-32, 34-39, 41-50, 52-61, 63-71
    2    5 B      11, 51
    3    8 O      22, 40, 62, 72
    4    7 N      26, 33
    5    1 H      73-132

          program call               : xtb data2507/gas/PzTDBA/PzTDBA.xyz --gfn 2 --ohess vtight --parallel 40 --molden --ceasefiles --namespace data2507/gas/PzTDBA/PzTDBA_gas_S0_preOpt
          :  Hamiltonian                  GFN2-xTB          :
 * total energy  :  -192.2553497 Eh     change       -0.8711851E-08 Eh
 * total energy  :  -192.3314538 Eh     change       -0.7610415E-01 Eh
 * total energy  :  -192.3643432 Eh     change       -0.3288934E-01 Eh
 * total energy  :  -192.3782577 Eh     change       -0.1391455E-01 Eh
 * total energy  :  -192.3860643 Eh     change       -0.7806530E-02 Eh
 * total energy  :  -192.3914826 Eh     change       -0.5418352E-02 Eh
 * total energy  :  -192.3960223 Eh     change       -0.4539646E-02 Eh
 * total energy  :  -192.4001318 Eh     change       -0.4109526E-02 Eh
 * total energy  :  -192.4038727 Eh     change       -0.3740931E-02 Eh
 * total energy  :  -192.4071422 Eh     change       -0.3269473E-02 Eh
 * total energy  :  -192.4223580 Eh     change       -0.4543136E-06 Eh
 * total energy  :  -192.4223585 Eh     change       -0.5216540E-06 Eh
 * total energy  :  -192.4223592 Eh     change       -0.6180454E-06 Eh
 * total energy  :  -192.4223599 Eh     change       -0.6997732E-06 Eh
 * total energy  :  -192.4223606 Eh     change       -0.7148827E-06 Eh
 * total energy  :  -192.4223613 Eh     change       -0.7527460E-06 Eh
 * total energy  :  -192.4223622 Eh     change       -0.8973832E-06 Eh
 * total energy  :  -192.4223635 Eh     change       -0.1294159E-05 Eh
 * total energy  :  -192.4223635 Eh     change       -0.4746340E-08 Eh
   *** GEOMETRY OPTIMIZATION CONVERGED AFTER 185 ITERATIONS ***

 final structure:
================
132
 xtb: 6.7.1 (edcfbbe)
C          -11.38055337377978       -1.86409652674839        2.91971851624179
C          -10.86852735228272       -2.96592451788485        1.98118099410994
C          -11.63611504119019       -2.91404039285211        0.65232356565213
C          -11.14664475886034       -4.32043605005234        2.63833802359748
C           -9.38803765494065       -2.73953211226707        1.71199679258157
C           -8.40308513498683       -3.66484808082133        2.05798240540383
C           -7.07343056377246       -3.40164233103137        1.81696958298063
C           -6.68443097202580       -2.21055827609302        1.20609778243614
C           -7.64444109596969       -1.26482905662819        0.80169783840261
C           -8.97776300898167       -1.56831575742371        1.09810136122141
B           -7.12288262342571        0.00303290831889        0.08221372679725
C           -7.82950608209138        1.18323220703796       -0.62727427404216
C           -9.20125752495569        1.28911867719143       -0.89917377532729
C           -9.78070231054556        2.38496876041761       -1.50746110367614
C          -11.27146774875914        2.48453984534590       -1.79345139533954
C          -12.04927445644124        1.25353439481991       -1.31873125660407
C          -11.47957086732323        2.62760750738124       -3.30760816523177
C          -11.83957503449784        3.71446112179113       -1.07134137592424
C           -8.93917375382486        3.44119682975976       -1.87183843903504
C           -7.58433471781803        3.37553064057793       -1.65535076010656
C           -7.02018306684263        2.25161556973816       -1.04912916953526
O           -5.66382813331829        2.29574913186366       -0.92644323768931
C           -4.96010822280278        1.24979781956036       -0.44016951466270
C           -3.57480356988707        1.35639398027792       -0.45029060473616
C           -2.80691322231288        0.30248603794789        0.03117611723858
N           -1.39734800125992        0.39147173853015        0.01205285703703
C           -0.71549463294718        0.39994001960803       -1.20514777546036
C           -1.39398557701931        0.35069302224347       -2.41412700503516
C           -0.71012401083334        0.39869068350621       -3.62124445399114
C            0.66322110264975        0.50499208345678       -3.62714007938428
C            1.35815224030997        0.51884130584082       -2.42568622154029
C            0.69074031454965        0.43295189206557       -1.21259836567329
N            1.39291478527879        0.40370384108835       -0.00714368055878
C            2.80322683556995        0.32625761922962       -0.02560086850014
C            3.56172886758383        1.38917770381072        0.45133671708000
C            4.94779027033777        1.29376285287524        0.44408081422026
C            5.59903141577707        0.15564075845143       -0.05667787114606
C            4.80359788878308       -0.89336228554595       -0.54399063079810
C            3.41705806087044       -0.81861637849600       -0.52130552072619
O            5.35483476633193       -2.02413651961859       -1.03724264430354
C            6.70254380332459       -2.15588812827703       -1.19286916340406
C            7.10496730381198       -3.34269143505550       -1.80337094244215
C            8.43659750946976       -3.58491267116318       -2.05593564931648
C            9.41009628358014       -2.64228416037212       -1.72406387892382
C           10.89049714392496       -2.84254061455411       -2.01365994785785
C           11.36805431509540       -1.73376274104637       -2.96230579336902
C           11.67646053242569       -2.77334995029558       -0.69639921048681
C           11.18404066027115       -4.19339140016946       -2.67157056141773
C            8.98727619899940       -1.47759674436574       -1.10647249521324
C            7.65237548540542       -1.19691227047809       -0.79618816564693
B            7.11922085445235        0.06098864632229       -0.07000898224965
C            7.81598951118596        1.24103919462206        0.64803133662073
C            9.17992302151740        1.35133296922338        0.93849160055984
C            9.75416951253420        2.45119773364941        1.55258795751850
C           11.25204983951251        2.46283356857549        1.82046480169152
C           11.72285814379169        3.76426259159856        2.47496663945860
C           11.59958877914138        1.30010333100919        2.76107468224168
C           12.00410433694308        2.29864241739608        0.49187983204628
C            8.91105129127480        3.50636356394197        1.90213233801298
C            7.55601005742265        3.43387878021091        1.66869243098641
C            6.99937375989827        2.30958248991291        1.06100534705481
O            5.64341997743266        2.34746503241343        0.92577923506304
C            0.71107879169764        0.40895108245069        1.21003772813581
C            1.39025658472245        0.36858612108566        2.41895623832365
C            0.70624706960608        0.41328621283731        3.62609047240793
C           -0.66797309500166        0.50753934697216        3.63190455915278
C           -1.36320768934458        0.51262686982683        2.43055545295009
C           -0.69537386194474        0.42965286829823        1.21748155475661
C           -3.41155521862073       -0.84448508404012        0.53319061682773
C           -4.79742099407048       -0.93026223280449        0.55767485491827
C           -5.60284844067116        0.10954988220313        0.06670782750110
O           -5.33755639969134       -2.06290631342073        1.05783817807558
H          -12.43738605539973       -2.01293449149637        3.13130439007236
H          -10.83346689993994       -1.88704997948029        3.85989701666800
H          -11.25676747642590       -0.87851108862371        2.47942411841608
H          -11.25259468232907       -3.66697151901464       -0.03311186984123
H          -11.54364991742972       -1.94180016350043        0.17673579270972
H          -12.69304651108443       -3.10834921219844        0.82234329166109
H          -10.81886876411434       -5.13884561796836        2.00146230320531
H          -10.65058453533801       -4.39728329433686        3.60307195525502
H          -12.21675434328701       -4.43081591863855        2.80247036640152
H           -8.66127876128883       -4.59766335217708        2.53145315459682
H           -6.30778617709684       -4.10655650312778        2.10340267183790
H           -9.72013509162606       -0.83085738573172        0.84288014691073
H           -9.81659017800262        0.45058066329848       -0.62750639701390
H          -11.70530160717851        0.35320397288844       -1.82300416700414
H          -13.10524272709985        1.38232388935432       -1.54800314788755
H          -11.95484846565219        1.12254734116044       -0.24293293882365
H          -11.06219709008542        1.76744377824909       -3.82707173527489
H          -12.54152844453515        2.68771269488603       -3.53660736563456
H          -10.99788439494341        3.52294524745423       -3.69059578691779
H          -11.67141913006868        3.63233184506355        0.00056869287374
H          -11.37204701851539        4.63102323785243       -1.41974196971354
H          -12.91042420821871        3.79119569823947       -1.24804512017880
H           -9.34423791753170        4.32319773718495       -2.34399682459874
H           -6.93140353084753        4.18084054012618       -1.95568956864271
H           -3.10585544012490        2.24810293112918       -0.83447894679149
H           -2.46921908532174        0.27014114931374       -2.41825494157484
H           -1.26438202123350        0.36034876448142       -4.54632455542143
H            1.20798290847999        0.56885374767214       -4.55639532819309
H            2.43394890484716        0.59474846786049       -2.43524291728618
H            3.08456107372598        2.27868476244726        0.83048233057604
H            2.82644487129367       -1.64074562620804       -0.89274539022004
H            6.34841116462619       -4.06052328217359       -2.08171542860295
H            8.70540550505134       -4.51499697560778       -2.52888596270048
H           10.80848040418512       -1.77048833889327       -3.89463370074766
H           12.42453306677960       -1.86264072912553       -3.18826865978620
H           11.23120636249592       -0.74901884592888       -2.52382090662777
H           11.31758702768424       -3.53159643545810       -0.00350911448932
H           12.73437322085802       -2.94748124625373       -0.88148538026661
H           11.57218753020068       -1.80198621750298       -0.22121920667949
H           10.67441248748037       -4.28220948606907       -3.62813727760910
H           12.25332880500020       -4.28386104266728       -2.85236574574470
H           10.88186770063714       -5.01607449166323       -2.02756909246894
H            9.71817481256861       -0.72510207785804       -0.86124313450826
H            9.80709786603101        0.51431735717562        0.68040894253020
H           12.79811902195366        3.72042498147514        2.63666346282747
H           11.24514379379738        3.91226620441617        3.44063321189615
H           11.51406929990506        4.62046138635600        1.83764253629939
H           11.33620126925242        0.34152106556747        2.32234314187576
H           11.06014303038217        1.40275865889853        3.70031842172220
H           12.66652784742294        1.29599036111186        2.97424191005170
H           11.73582677661994        3.09941337412026       -0.19412275681599
H           13.07809595296492        2.33488511514412        0.66212497644427
H           11.76951414376242        1.35060614757636        0.01606984096145
H            9.30087083090141        4.39291854656633        2.37444896611417
H            6.89943006215214        4.23932133517183        1.96078587196477
H            2.46617350731431        0.29770490395994        2.42297333811692
H            1.26097600547786        0.38196263849124        4.55114979266546
H           -1.21315752018820        0.56869533001349        4.56108911164921
H           -2.43959817358863        0.57925888975966        2.44033580051550
H           -2.81449018778451       -1.66031706675111        0.90820098131360

          :  Hamiltonian                  GFN2-xTB          :
         :: gradient norm              0.000050521314 Eh/a0 ::
         :: HOMO-LUMO gap              1.307328826531 eV    ::
         :: SCC energy              -195.573550869504 Eh    ::
         :: -> dispersion             -0.176363360674 Eh    ::
         :: repulsion energy           3.151187350584 Eh    ::

    * Orbital Energies and Occupations

         #    Occupation            Energy/Eh            Energy/eV
      -------------------------------------------------------------
         1        2.0000           -0.7268498             -19.7786
       ...           ...                  ...                  ...
       166        2.0000           -0.3989546             -10.8561
       167        2.0000           -0.3987045             -10.8493
       168        2.0000           -0.3959414             -10.7741
       169        2.0000           -0.3908574             -10.6358
       170        2.0000           -0.3899796             -10.6119
       171        2.0000           -0.3862678             -10.5109
       172        2.0000           -0.3859020             -10.5009
       173        2.0000           -0.3813060             -10.3759
       174        2.0000           -0.3810274             -10.3683
       175        2.0000           -0.3678079             -10.0086
       176        2.0000           -0.3650454              -9.9334
       177        2.0000           -0.3646785              -9.9234
       178        2.0000           -0.3178333              -8.6487 (HOMO)
       179                         -0.2697899              -7.3414 (LUMO)
       180                         -0.2690800              -7.3220
       181                         -0.2311661              -6.2904
       182                         -0.2310426              -6.2870
       183                         -0.2286232              -6.2212
       184                         -0.2285516              -6.2192
       185                         -0.2219022              -6.0383
       186                         -0.2189556              -5.9581
       187                         -0.2186391              -5.9495
       188                         -0.2132730              -5.8035
       189                         -0.2109845              -5.7412
       ...                                ...                  ...
       348                          0.7049667              19.1831
      -------------------------------------------------------------
                  HL-Gap            0.0480434 Eh            1.3073 eV

     #   Z          covCN         q      C6AA      α(0)
     1   6 C        3.762    -0.106    22.571     6.772
     2   6 C        3.903     0.026    20.089     6.371
     3   6 C        3.762    -0.106    22.574     6.773
     4   6 C        3.761    -0.108    22.614     6.779
     5   6 C        2.969    -0.000    28.026     8.684
     6   6 C        2.925    -0.036    28.895     8.815
     7   6 C        2.914    -0.056    29.385     8.889
     8   6 C        2.877     0.135    25.058     8.206
     9   6 C        2.882    -0.092    30.316     9.027
    10   6 C        2.933    -0.040    28.991     8.830
    11   5 B        2.724     0.210    18.242     7.157
    12   6 C        2.882    -0.093    30.326     9.028
    13   6 C        2.931    -0.044    29.097     8.846
    14   6 C        2.969    -0.000    28.028     8.684
    15   6 C        3.903     0.025    20.090     6.371
    16   6 C        3.761    -0.106    22.578     6.774
    17   6 C        3.762    -0.106    22.577     6.773
    18   6 C        3.762    -0.106    22.575     6.773
    19   6 C        2.928    -0.032    28.789     8.799
    20   6 C        2.913    -0.055    29.370     8.887
    21   6 C        2.877     0.135    25.051     8.205
    22   8 O        1.711    -0.222    17.677     5.677
    23   6 C        2.874     0.140    24.952     8.189
    24   6 C        2.916    -0.081    30.015     8.984
    25   6 C        2.926     0.071    26.407     8.427
    26   7 N        2.753    -0.072    22.628     7.065
    27   6 C        2.925     0.049    26.897     8.505
    28   6 C        2.924    -0.061    29.527     8.911
    29   6 C        2.918    -0.041    29.027     8.835
    30   6 C        2.918    -0.041    29.031     8.836
    31   6 C        2.924    -0.060    29.503     8.908
    32   6 C        2.927     0.049    26.904     8.506
    33   7 N        2.753    -0.072    22.629     7.065
    34   6 C        2.926     0.071    26.406     8.427
    35   6 C        2.916    -0.080    30.011     8.983
    36   6 C        2.873     0.140    24.946     8.188
    37   6 C        2.888    -0.126    31.198     9.157
    38   6 C        2.873     0.140    24.943     8.187
    39   6 C        2.916    -0.080    30.005     8.982
    40   8 O        1.711    -0.222    17.683     5.678
    41   6 C        2.877     0.135    25.054     8.206
    42   6 C        2.914    -0.056    29.382     8.889
    43   6 C        2.926    -0.036    28.894     8.815
    44   6 C        2.969    -0.000    28.027     8.684
    45   6 C        3.903     0.026    20.089     6.371
    46   6 C        3.762    -0.106    22.571     6.772
    47   6 C        3.761    -0.105    22.544     6.768
    48   6 C        3.761    -0.108    22.615     6.779
    49   6 C        2.933    -0.039    28.976     8.828
    50   6 C        2.882    -0.092    30.317     9.027
    51   5 B        2.724     0.210    18.232     7.155
    52   6 C        2.882    -0.092    30.316     9.027
    53   6 C        2.933    -0.039    28.976     8.828
    54   6 C        2.969    -0.000    28.027     8.684
    55   6 C        3.903     0.026    20.089     6.371
    56   6 C        3.761    -0.108    22.615     6.779
    57   6 C        3.762    -0.106    22.571     6.772
    58   6 C        3.761    -0.105    22.544     6.768
    59   6 C        2.926    -0.036    28.894     8.815
    60   6 C        2.914    -0.056    29.382     8.889
    61   6 C        2.877     0.135    25.056     8.206
    62   8 O        1.711    -0.222    17.686     5.678
    63   6 C        2.925     0.049    26.897     8.505
    64   6 C        2.924    -0.061    29.527     8.911
    65   6 C        2.918    -0.041    29.026     8.835
    66   6 C        2.918    -0.041    29.031     8.836
    67   6 C        2.924    -0.060    29.503     8.907
    68   6 C        2.927     0.049    26.904     8.506
    69   6 C        2.916    -0.080    30.008     8.983
    70   6 C        2.874     0.140    24.944     8.187
    71   6 C        2.888    -0.126    31.197     9.157
    72   8 O        1.711    -0.222    17.684     5.678
    73   1 H        0.925     0.038     2.482     2.464
    74   1 H        0.925     0.034     2.532     2.488
    75   1 H        0.925     0.036     2.502     2.474
    76   1 H        0.925     0.034     2.534     2.489
    77   1 H        0.925     0.036     2.496     2.471
    78   1 H        0.925     0.037     2.485     2.465
    79   1 H        0.925     0.036     2.503     2.474
    80   1 H        0.925     0.036     2.505     2.475
    81   1 H        0.925     0.036     2.498     2.472
    82   1 H        0.926     0.042     2.425     2.435
    83   1 H        0.926     0.043     2.409     2.427
    84   1 H        0.926     0.039     2.463     2.454
    85   1 H        0.926     0.044     2.396     2.421
    86   1 H        0.925     0.036     2.509     2.477
    87   1 H        0.925     0.037     2.493     2.469
    88   1 H        0.925     0.034     2.530     2.488
    89   1 H        0.925     0.034     2.528     2.487
    90   1 H        0.925     0.037     2.484     2.464
    91   1 H        0.925     0.037     2.495     2.470
    92   1 H        0.925     0.034     2.532     2.489
    93   1 H        0.925     0.037     2.494     2.470
    94   1 H        0.925     0.037     2.484     2.465
    95   1 H        0.926     0.035     2.512     2.479
    96   1 H        0.926     0.043     2.406     2.426
    97   1 H        0.926     0.055     2.259     2.350
    98   1 H        0.926     0.030     2.591     2.517
    99   1 H        0.926     0.028     2.620     2.531
   100   1 H        0.926     0.028     2.620     2.531
   101   1 H        0.926     0.029     2.607     2.525
   102   1 H        0.926     0.055     2.257     2.349
   103   1 H        0.926     0.054     2.271     2.356
   104   1 H        0.926     0.043     2.407     2.426
   105   1 H        0.926     0.042     2.423     2.434
   106   1 H        0.925     0.034     2.530     2.487
   107   1 H        0.925     0.038     2.481     2.463
   108   1 H        0.925     0.036     2.499     2.472
   109   1 H        0.925     0.034     2.533     2.489
   110   1 H        0.925     0.037     2.484     2.465
   111   1 H        0.925     0.034     2.531     2.488
   112   1 H        0.925     0.036     2.502     2.474
   113   1 H        0.925     0.036     2.497     2.471
   114   1 H        0.925     0.036     2.503     2.474
   115   1 H        0.926     0.037     2.487     2.466
   116   1 H        0.926     0.037     2.486     2.466
   117   1 H        0.925     0.036     2.497     2.471
   118   1 H        0.925     0.036     2.502     2.474
   119   1 H        0.925     0.036     2.503     2.474
   120   1 H        0.925     0.036     2.499     2.472
   121   1 H        0.925     0.034     2.530     2.487
   122   1 H        0.925     0.038     2.481     2.463
   123   1 H        0.925     0.034     2.533     2.489
   124   1 H        0.925     0.037     2.484     2.465
   125   1 H        0.925     0.034     2.530     2.488
   126   1 H        0.926     0.042     2.423     2.434
   127   1 H        0.926     0.043     2.406     2.426
   128   1 H        0.926     0.030     2.592     2.517
   129   1 H        0.926     0.028     2.620     2.531
   130   1 H        0.926     0.028     2.620     2.531
   131   1 H        0.926     0.029     2.606     2.524
   132   1 H        0.926     0.054     2.271     2.357

molecular dipole:
                 x           y           z       tot (Debye)
 q only:       -0.015      -0.150      -0.007
   full:       -0.010      -0.136      -0.014       0.348

 projected vibrational frequencies (cm⁻¹)
eigval :       -0.00    -0.00    -0.00     0.00     0.00     0.00
eigval :        3.71     6.02     8.42    14.44    17.86    21.26
eigval :       21.88    23.99    26.58    28.64    37.29    38.03
eigval :       41.03    47.46    56.15    59.00    61.46    74.42
eigval :       75.95    83.21    93.89    94.89   106.07   108.82
eigval :      110.56   115.05   123.09   126.61   131.42   132.16
eigval :      158.94   164.37   170.10   171.13   171.97   175.07
eigval :      206.47   208.26   214.02   216.46   219.48   220.73
eigval :      222.64   224.19   225.77   231.04   237.16   243.22
eigval :      247.35   248.49   258.92   264.91   268.21   271.37
eigval :      272.94   282.76   289.53   292.20   297.89   311.81
eigval :      314.76   315.90   319.53   319.89   320.27   322.74
eigval :      329.25   350.89   356.12   359.31   360.80   361.04
eigval :      361.48   365.27   375.74   385.07   387.43   390.20
eigval :      393.41   393.89   403.45   414.62   415.72   419.19
eigval :      429.08   434.10   435.78   436.52   436.66   436.80
eigval :      446.25   448.67   451.55   456.09   477.75   478.76
eigval :      480.78   494.05   504.30   505.91   507.56   516.77
eigval :      517.05   517.47   518.89   519.97   527.15   569.20
eigval :      569.41   574.90   582.59   583.86   584.68   597.25
eigval :      597.73   612.54   618.01   624.98   633.38   645.11
eigval :      645.46   652.71   656.59   658.00   658.46   666.64
eigval :      669.48   689.59   691.10   692.01   695.36   702.60
eigval :      702.77   703.72   716.43   716.76   729.58   730.28
eigval :      770.70   771.74   783.13   815.28   825.30   825.65
eigval :      827.49   828.58   831.66   832.29   835.73   839.06
eigval :      849.83   853.48   855.97   858.27   867.23   870.53
eigval :      870.92   874.32   874.71   879.89   881.06   883.00
eigval :      888.86   890.74   891.86   894.23   895.13   910.14
eigval :      910.70   916.13   916.22   916.36   921.71   940.76
eigval :      941.18   943.81   960.03   960.15   960.21   960.66
eigval :      961.03   961.90   962.17   962.67   962.99   963.00
eigval :      963.10   963.65   966.30   968.36  1011.72  1034.55
eigval :     1034.71  1035.29  1035.37  1035.67  1035.79  1036.01
eigval :     1036.29  1038.66  1078.10  1078.65  1085.93  1086.90
eigval :     1107.62  1111.24  1112.95  1123.63  1133.22  1134.17
eigval :     1140.81  1141.99  1143.93  1145.39  1148.44  1175.29
eigval :     1179.28  1180.85  1182.36  1183.66  1183.98  1184.71
eigval :     1218.85  1220.65  1221.00  1222.62  1227.68  1227.97
eigval :     1227.98  1228.55  1229.02  1230.56  1230.59  1235.44
eigval :     1237.75  1238.43  1242.71  1242.82  1252.28  1256.28
eigval :     1256.86  1263.14  1270.66  1272.01  1273.65  1284.00
eigval :     1285.35  1295.03  1295.24  1297.74  1299.21  1316.56
eigval :     1325.79  1325.95  1327.95  1334.14  1339.81  1341.53
eigval :     1342.83  1353.28  1362.83  1367.10  1399.37  1400.05
eigval :     1401.17  1401.41  1401.95  1403.06  1405.85  1406.17
eigval :     1406.32  1406.53  1410.61  1410.67  1412.75  1413.15
eigval :     1425.98  1429.35  1429.48  1429.73  1429.96  1436.01
eigval :     1441.78  1446.53  1449.04  1449.15  1465.34  1466.70
eigval :     1491.70  1491.88  1491.92  1492.09  1494.24  1494.37
eigval :     1494.44  1494.60  1498.04  1499.37  1500.30  1501.41
eigval :     1501.56  1504.25  1505.10  1505.42  1506.27  1513.07
eigval :     1514.67  1514.69  1514.80  1515.44  1519.38  1519.60
eigval :     1519.95  1520.84  1534.42  1535.25  1545.78  1547.22
eigval :     1549.95  1550.34  1557.57  1569.57  1577.25  1578.25
eigval :     1589.84  1594.58  1595.68  1597.29  1598.67  1600.88
eigval :     3020.82  3022.36  3022.40  3022.44  3023.93  3023.99
eigval :     3024.03  3024.07  3025.71  3027.74  3027.82  3027.90
eigval :     3029.92  3030.37  3030.81  3031.25  3031.33  3032.03
eigval :     3032.11  3032.23  3034.38  3036.51  3036.57  3036.72
eigval :     3037.27  3039.21  3039.24  3039.56  3045.72  3045.73
eigval :     3046.68  3047.85  3049.40  3049.61  3051.21  3051.64
eigval :     3084.40  3084.90  3084.97  3091.75  3091.79  3091.90
eigval :     3094.22  3094.32  3097.28  3106.12  3106.43  3108.93
eigval :     3109.61  3109.90  3110.80  3110.87  3111.38  3111.57
eigval :     3115.46  3115.90  3116.04  3116.69  3118.59  3147.58

   temp. (K)  partition function   enthalpy   heat capacity  entropy
                                   cal/mol     cal/K/mol   cal/K/mol   J/K/mol
 298.15  VIB  0.191E+32            39217.819    241.639    244.472
         ROT  0.397E+09              888.752      2.981     42.326
         INT  0.757E+40            40106.571    244.620    286.798
         TR   0.280E+29             1481.254      4.968     46.385
         TOT                       41587.8250   249.5878   333.1829  1394.0371

       T/K    H(0)-H(T)+PV         H(T)/Eh          T*S/Eh         G(T)/Eh
   ------------------------------------------------------------------------
    298.15    0.662744E-01    0.112927E+01    0.158306E+00    0.970968E+00
   ------------------------------------------------------------------------

         :::::::::::::::::::::::::::::::::::::::::::::::::::::
         ::                  THERMODYNAMIC                  ::
         :::::::::::::::::::::::::::::::::::::::::::::::::::::
         :: total free energy        -191.451395843595 Eh   ::
         ::.................................................::
         :: total energy             -192.422363518919 Eh   ::
         :: zero point energy           1.062999186012 Eh   ::
         :: G(RRHO) w/o ZPVE           -0.092031510688 Eh   ::
         :: G(RRHO) contrib.            0.970967675324 Eh   ::
         :::::::::::::::::::::::::::::::::::::::::::::::::::::

           -------------------------------------------------
          | TOTAL ENERGY             -192.422363518919 Eh   |
          | TOTAL ENTHALPY           -191.293089915156 Eh   |
          | TOTAL FREE ENERGY        -191.451395843595 Eh   |
          | GRADIENT NORM               0.000050524694 Eh/α |
          | HOMO-LUMO GAP               1.307328298928 eV   |
           -------------------------------------------------

 * finished run on 2025/07/18 at 12:52:43.195
