   * xtb version 6.7.1 (edcfbbe) compiled by 'albert@albert-system' on 2024-07-22

   ID    Z sym.   atoms
    1    6 C      1-23, 25, 26, 28, 30-32, 34, 36, 38-61, 63, 65, 67
    2    7 N      24, 37
    3    9 F      27, 29, 33, 35, 62, 64, 66, 68
    4    1 H      69-128

          program call               : xtb data2507/gas/PFBP-2b/PFBP-2b_gas_T1_crest.xyz --gfn 2 --spinpol --tblite --uhf 2 --ohess vtight --parallel 40 --molden --ceasefiles --namespace data2507/gas/PFBP-2b/PFBP-2b_gas_T1_finalOpt
 * total energy  :  -198.5661984 Eh     change       -0.4441677E-07 Eh
 * total energy  :  -198.5662003 Eh     change       -0.1831934E-05 Eh
 * total energy  :  -198.5662020 Eh     change       -0.1696244E-05 Eh
 * total energy  :  -198.5662057 Eh     change       -0.3738085E-05 Eh
 * total energy  :  -198.5662112 Eh     change       -0.5444376E-05 Eh
 * total energy  :  -198.5662165 Eh     change       -0.5307165E-05 Eh
 * total energy  :  -198.5662199 Eh     change       -0.3429948E-05 Eh
 * total energy  :  -198.5662220 Eh     change       -0.2143684E-05 Eh
 * total energy  :  -198.5662253 Eh     change       -0.3233411E-05 Eh
 * total energy  :  -198.5662293 Eh     change       -0.4014160E-05 Eh
 * total energy  :  -198.5662673 Eh     change       -0.8034574E-06 Eh
 * total energy  :  -198.5662680 Eh     change       -0.6526191E-06 Eh
 * total energy  :  -198.5662689 Eh     change       -0.9328357E-06 Eh
 * total energy  :  -198.5662694 Eh     change       -0.4852115E-06 Eh
 * total energy  :  -198.5662700 Eh     change       -0.5655460E-06 Eh
 * total energy  :  -198.5662703 Eh     change       -0.3775217E-06 Eh
 * total energy  :  -198.5662708 Eh     change       -0.4789372E-06 Eh
 * total energy  :  -198.5662713 Eh     change       -0.4845125E-06 Eh
 * total energy  :  -198.5662713 Eh     change       -0.5675582E-07 Eh
   *** GEOMETRY OPTIMIZATION CONVERGED AFTER 44 ITERATIONS ***

 final structure:
================
128
 xtb: 6.7.1 (edcfbbe)
C           -9.13568599396665        3.97982803033536        3.01504963636100
C           -7.60705315080040        4.06328920073190        3.03930023012222
C           -7.14237839389866        3.93373277533736        4.49719795122846
C           -7.19255977542665        5.43257195497723        2.48106925936519
C           -6.94328672770273        2.97447731968025        2.21648183032140
C           -5.55047799253401        2.91826567524215        2.13938169835301
C           -4.91710430752107        1.94101391308632        1.41307761880188
C           -5.64991935279728        0.96085174512918        0.72986127060494
C           -7.04967665085309        1.01224267413629        0.76912298460485
C           -7.65679257613632        2.01355810470314        1.51350905203656
C           -7.90947256663384        0.02311296440286        0.01144301365953
C           -8.77153984961197        0.80032490876227       -1.00190127706483
C           -8.80636085909459       -0.72508456692841        1.01633717729372
C           -7.07563825530457       -0.99373135680845       -0.73844068665042
C           -7.70791611697176       -1.97342876214858       -1.49051523339432
C           -7.01932986749159       -2.95540143074577       -2.18927958452313
C           -7.71057903309724       -4.01893151237866       -3.02250282094666
C           -9.23473209497767       -3.87311914327769       -3.02887482935667
C           -7.21342724638497       -3.91389742775971       -4.47164285091055
C           -7.36255484673667       -5.40164564194786       -2.45216211743450
C           -5.62629428341436       -2.94656975920694       -2.09656596175688
C           -4.96836771493237       -1.99135077756893       -1.36282909308188
C           -5.67537404188128       -0.98756409088663       -0.68676447067601
N           -4.99332646128308       -0.02387338120389        0.02378333192820
C           -3.57845309209961       -0.03895883201704        0.01935932023261
C           -2.84465592867316        0.38822888767040       -1.10406373969229
F           -3.53513178461378        0.84662433450427       -2.16972584034926
C           -1.47509993804004        0.38349034498139       -1.10971086411975
F           -0.83086512026926        0.90231171090121       -2.17210577104528
C           -0.71426364704639       -0.04919658878876        0.01325096857888
C            0.71535429478425       -0.04635963222005        0.01064008874154
C            1.47741425577537        0.40139359139418        1.12663898712215
F            0.83389023012712        0.92326195424715        2.18788505101148
C            2.84706743836035        0.41764647987412        1.11457740699021
F            3.53814479288060        0.89147922716192        2.17305323457188
C            3.57930437152751       -0.01324315192488       -0.00840081420409
N            4.99386886297696        0.01973245786062       -0.02560951190394
C            5.62983133203391        1.00456632981831       -0.75029071262530
C            4.87696001046958        1.97524983158957       -1.42524193652274
C            5.48906936519291        2.95069584502369       -2.17187336988970
C            6.87958311256401        3.01429201852952       -2.27888575867915
C            7.51909845681225        4.09905323227490       -3.12590666824896
C            7.01787092659992        3.95838721884995       -4.57063763037946
C            9.04805047784332        4.01944966403413       -3.14044529588712
C            7.11500199567195        5.47096261955339       -2.56654052393568
C            7.61350814863894        2.06435689948288       -1.58199261679464
C            7.02814387554782        1.06521950030594       -0.81749856524466
C            7.90930147695245        0.08701569613120       -0.07024412811260
C            8.79169534938383       -0.66158239688295       -1.08757178142330
C            8.78541618192081        0.87680931306597        0.92109521253187
C            7.09723465137908       -0.93050765049029        0.70237360255369
C            7.75094726074522       -1.90239200748705        1.44623581578744
C            7.08307881649118       -2.88528324701898        2.16356833966728
C            7.79816093977522       -3.94204504394148        2.98527419142786
C            9.32186615701428       -3.79651730933936        2.94643781938877
C            7.34232730339865       -3.82469000519757        4.44698341775299
C            7.43465356367805       -5.32968923854719        2.43692750110465
C            5.68828702149128       -2.88354361443183        2.10217723418465
C            5.00943189176549       -1.93631807369182        1.37713906758495
C            5.69618799052505       -0.93364845810676        0.67899560533833
C            2.84263598620780       -0.46700277707731       -1.11939459588298
F            3.53100648601807       -0.92487818316905       -2.18659154971641
C            1.47318563524313       -0.48425156689913       -1.11248113361267
F            0.82708122607070       -1.02568093056812       -2.16237070681579
C           -1.47338222113626       -0.47984557825601        1.13812877020333
F           -0.82790330425726       -1.00325130039157        2.19740119025581
C           -2.84313078849441       -0.47416785848276        1.13860320600792
F           -3.53232210885288       -0.92649064280836        2.20762515539721
H           -9.55016492663534        4.78032126050141        3.62416370349428
H           -9.48355775752055        3.03435068157837        3.42504420641798
H           -9.51970263231633        4.09737841525907        2.00414995299990
H           -7.41360580056704        2.95738004724166        4.89315445062838
H           -6.06565640963128        4.04770073419016        4.58212594681389
H           -7.61546070734954        4.69868861280899        5.10899221036818
H           -6.11739082112643        5.57537499952653        2.53761176783528
H           -7.67161979595911        6.22704437034212        3.04898834552162
H           -7.49433787043779        5.52186124801857        1.43953254107789
H           -4.94477945944732        3.64846019407224        2.65212860378198
H           -3.83982498680823        1.93144056070255        1.36574538901606
H           -8.73259667496609        2.03913147421899        1.53989560239428
H           -9.38890864400599        1.53934349373247       -0.49945230581662
H           -9.42499223358650        0.12832160902849       -1.55061139402451
H           -8.12939327205056        1.31440111086541       -1.71416086894670
H           -9.44266985127195       -1.44359145769989        0.50778449782320
H           -9.44274742867314       -0.03181470669939        1.55862686385690
H           -8.18848450620009       -1.25978728231638        1.73485205426629
H           -8.78367463081423       -1.96382391034404       -1.52729578307421
H           -9.66898867877221       -4.65386385934245       -3.64973166642049
H           -9.53489573638153       -2.91266992224612       -3.44180898292202
H           -9.64423128120275       -3.97836107379435       -2.02667660724176
H           -6.14129977495454       -4.07439194320708       -4.53656485259622
H           -7.43513793035561       -2.92809418966984       -4.87490808100223
H           -7.70742864765776       -4.65979787273092       -5.09040487012812
H           -7.69074773591123       -5.47590151310441       -1.41744491681572
H           -7.85940558389833       -6.17862309665807       -3.02893248555964
H           -6.29264393902147       -5.58585475047576       -2.48414381063634
H           -5.04011065670972       -3.69671278754845       -2.60317414799701
H           -3.89184749356519       -2.01694203069846       -1.30379744440138
H            3.80095546756221        1.95943970721267       -1.35555257307454
H            4.86834047384365        3.67336683000208       -2.67724027766564
H            5.93929347506681        4.07104081723123       -4.62948737899014
H            7.47468843053236        4.71916027204527       -5.19976640592219
H            7.27993333216860        2.97935167786811       -4.96612060285621
H            9.45803542586248        4.14861661844584       -2.14123647661320
H            9.44448256139608        4.81438110827440       -3.76855332662654
H            9.38743387963093        3.07041028415287       -3.54933927068937
H            7.44480003191795        5.56901304772587       -1.53432585047895
H            7.57533366435300        6.26292394923013       -3.15314757984065
H            6.03810536780074        5.60926334574378       -2.59460053839251
H            8.68837838198392        2.09678460696946       -1.63020532038456
H            9.44224834287260       -1.37296776214378       -0.58711935363288
H            8.16359498569957       -1.20448136806736       -1.79090195324660
H            9.41317878780907        0.03233653663200       -1.64605615685798
H            8.15367709586103        1.39108178492660        1.64246265922291
H            9.38754628569014        1.61683642557596        0.40188893998078
H            9.45416703105793        0.21293829393127        1.46122426480640
H            8.82715838723913       -1.88606709269434        1.46064032348167
H            9.77402977987207       -4.57499668066789        3.55727311440566
H            9.63445343528096       -2.83468535240939        3.34671488388880
H            9.70150903218942       -3.90570732925351        1.93295455143516
H            6.27211596562698       -3.98259897217005        4.54298240430829
H            7.85236996143017       -4.56655602047175        5.05752470188298
H            7.57683332699825       -2.83611198393897        4.83598971630178
H            6.36663530276961       -5.51542168378219        2.50358410096680
H            7.73076625955689       -5.41174957683766        1.39317129945470
H            7.95037904963866       -6.10139330174974        3.00413760331715
H            5.11729417019539       -3.63323372261142        2.62650419431333
H            3.93202203746803       -1.96753501138988        1.34201100676167

 projected vibrational frequencies (cm⁻¹)
eigval :       -0.00    -0.00    -0.00     0.00     0.00     0.00
eigval :        3.91     6.54     8.05    13.49    15.76    17.33
eigval :       23.87    25.14    29.30    29.79    35.39    35.51
eigval :       41.35    49.47    52.45    54.06    56.98    65.28
eigval :       80.93    82.65    84.55   102.51   103.82   108.73
eigval :      112.71   114.79   115.29   116.10   120.04   138.36
eigval :      138.57   142.00   149.79   157.59   163.06   164.01
eigval :      169.42   170.45   171.16   174.82   174.93   190.32
eigval :      190.35   202.49   202.65   205.49   205.74   218.89
eigval :      220.07   220.22   220.31   224.19   224.77   228.60
eigval :      246.61   248.06   248.30   248.90   254.78   261.28
eigval :      262.79   269.57   278.08   280.60   310.02   312.98
eigval :      313.90   313.97   314.15   314.28   317.58   321.39
eigval :      322.42   324.89   335.43   335.44   342.16   343.13
eigval :      343.29   344.08   345.25   355.14   355.51   361.92
eigval :      373.34   374.92   384.45   387.86   392.36   393.65
eigval :      397.52   397.89   411.35   411.45   414.85   419.93
eigval :      430.68   434.69   440.43   440.99   448.13   448.16
eigval :      450.56   453.73   454.23   478.05   479.78   485.52
eigval :      485.63   491.86   502.26   504.13   509.82   520.66
eigval :      533.95   535.70   555.80   567.31   569.32   574.79
eigval :      577.68   583.46   588.49   588.89   596.20   598.15
eigval :      611.40   611.46   632.00   632.01   668.61   670.86
eigval :      677.13   679.17   694.49   694.82   694.99   696.54
eigval :      703.68   704.20   739.08   743.47   767.03   818.53
eigval :      824.34   824.45   826.23   827.18   827.48   848.88
eigval :      848.91   883.48   883.56   884.92   884.96   898.94
eigval :      900.83   904.84   906.65   919.32   919.59   919.86
eigval :      919.88   926.30   937.87   939.49   949.20   949.97
eigval :      955.69   958.47   958.49   960.29   960.30   960.34
eigval :      960.35   962.78   963.24   963.41   963.43   963.88
eigval :      963.88   963.89   963.90   965.24  1013.10  1013.11
eigval :     1028.99  1034.16  1034.19  1034.20  1034.21  1035.21
eigval :     1035.22  1035.38  1035.74  1045.15  1057.17  1073.96
eigval :     1096.57  1096.58  1097.99  1139.50  1146.43  1146.45
eigval :     1150.14  1150.17  1155.60  1158.21  1169.50  1171.76
eigval :     1171.80  1196.10  1200.19  1222.10  1224.78  1224.79
eigval :     1224.93  1224.93  1226.21  1229.46  1230.04  1230.05
eigval :     1235.31  1237.18  1251.31  1251.39  1259.03  1262.70
eigval :     1267.90  1267.91  1278.28  1279.57  1293.07  1293.10
eigval :     1302.82  1308.09  1317.69  1318.13  1318.58  1321.14
eigval :     1330.69  1341.75  1341.82  1344.92  1345.15  1378.68
eigval :     1389.66  1399.15  1399.84  1400.91  1400.91  1403.03
eigval :     1403.04  1405.49  1405.86  1405.91  1405.92  1405.93
eigval :     1406.33  1417.65  1417.90  1418.60  1418.64  1423.11
eigval :     1423.15  1429.00  1429.01  1429.01  1429.05  1455.27
eigval :     1455.28  1467.44  1478.06  1480.79  1486.68  1486.69
eigval :     1487.16  1487.17  1490.28  1490.28  1490.34  1490.34
eigval :     1492.47  1492.68  1492.68  1492.68  1493.17  1495.05
eigval :     1497.43  1497.44  1499.65  1499.66  1500.56  1500.56
eigval :     1500.75  1501.10  1503.21  1503.21  1503.98  1504.30
eigval :     1515.59  1515.60  1515.74  1515.75  1518.94  1518.95
eigval :     1519.18  1519.22  1537.04  1537.06  1538.48  1552.69
eigval :     1553.72  1581.46  1581.48  1594.05  1596.52  1620.92
eigval :     3024.06  3024.07  3024.12  3024.13  3027.16  3027.16
eigval :     3027.19  3027.20  3027.86  3027.88  3027.90  3027.90
eigval :     3032.71  3032.72  3032.74  3032.90  3033.10  3033.13
eigval :     3033.15  3033.16  3033.17  3033.23  3034.72  3034.77
eigval :     3036.36  3036.38  3036.44  3036.45  3039.81  3039.87
eigval :     3039.87  3040.12  3043.67  3043.68  3046.31  3046.32
eigval :     3051.77  3051.83  3051.84  3051.86  3052.43  3052.44
eigval :     3055.30  3055.31  3055.37  3055.45  3055.99  3056.17
eigval :     3097.09  3097.13  3097.43  3097.48  3109.47  3109.62
eigval :     3110.19  3110.39  3126.18  3126.26  3126.37  3126.49

   temp. (K)  partition function   enthalpy   heat capacity  entropy
                                   cal/mol     cal/K/mol   cal/K/mol   J/K/mol
 298.15  VIB  0.422E+34            41915.138    247.086    263.677
         ROT  0.313E+09              888.752      2.981     41.856
         INT  0.132E+43            42803.891    250.067    305.533
         TR   0.278E+29             1481.254      4.968     46.367
         TOT                       44285.1446   255.0354   351.8999  1472.3492

       T/K    H(0)-H(T)+PV         H(T)/Eh          T*S/Eh         G(T)/Eh
   ------------------------------------------------------------------------
    298.15    0.705729E-01    0.109235E+01    0.167199E+00    0.925155E+00
   ------------------------------------------------------------------------

         :::::::::::::::::::::::::::::::::::::::::::::::::::::
         ::                  THERMODYNAMIC                  ::
         :::::::::::::::::::::::::::::::::::::::::::::::::::::
         :: total free energy        -197.641115973928 Eh   ::
         ::.................................................::
         :: total energy             -198.566271165659 Eh   ::
         :: zero point energy           1.021781322714 Eh   ::
         :: G(RRHO) w/o ZPVE           -0.096626130982 Eh   ::
         :: G(RRHO) contrib.            0.925155191732 Eh   ::
         :::::::::::::::::::::::::::::::::::::::::::::::::::::

           -------------------------------------------------
          | TOTAL ENERGY             -198.566271165659 Eh   |
          | TOTAL ENTHALPY           -197.473916972946 Eh   |
          | TOTAL FREE ENERGY        -197.641115973928 Eh   |
          | GRADIENT NORM               0.000120962281 Eh/α |
           -------------------------------------------------

 * finished run on 2025/09/04 at 07:53:53.342
