   * xtb version 6.7.1 (edcfbbe) compiled by 'albert@albert-system' on 2024-07-22

   ID    Z sym.   atoms
    1    6 C      1-23, 25, 26, 28, 30-32, 34, 36, 38-61, 63, 65, 67
    2    7 N      24, 37
    3    9 F      27, 29, 33, 35, 62, 64, 66, 68
    4    1 H      69-128

          program call               : xtb data2507/gas/PFBP-2b/PFBP-2b_gas_S0_crest.xyz --gfn 2 --ohess vtight --parallel 40 --molden --ceasefiles --namespace data2507/gas/PFBP-2b/PFBP-2b_gas_S0_finalOpt
          :  Hamiltonian                  GFN2-xTB          :
 * total energy  :  -198.6300731 Eh     change       -0.2131856E-08 Eh
 * total energy  :  -198.6300740 Eh     change       -0.8564134E-06 Eh
 * total energy  :  -198.6300752 Eh     change       -0.1180032E-05 Eh
 * total energy  :  -198.6300768 Eh     change       -0.1633562E-05 Eh
 * total energy  :  -198.6300779 Eh     change       -0.1127631E-05 Eh
 * total energy  :  -198.6300790 Eh     change       -0.1111439E-05 Eh
 * total energy  :  -198.6300804 Eh     change       -0.1376163E-05 Eh
 * total energy  :  -198.6300817 Eh     change       -0.1325233E-05 Eh
 * total energy  :  -198.6300826 Eh     change       -0.9219266E-06 Eh
 * total energy  :  -198.6300833 Eh     change       -0.6387307E-06 Eh
 * total energy  :  -198.6300851 Eh     change       -0.4199298E-06 Eh
 * total energy  :  -198.6300854 Eh     change       -0.3244767E-06 Eh
 * total energy  :  -198.6300856 Eh     change       -0.2538739E-06 Eh
 * total energy  :  -198.6300859 Eh     change       -0.2739459E-06 Eh
 * total energy  :  -198.6300862 Eh     change       -0.2858447E-06 Eh
 * total energy  :  -198.6300865 Eh     change       -0.2988696E-06 Eh
 * total energy  :  -198.6300868 Eh     change       -0.2840982E-06 Eh
 * total energy  :  -198.6300871 Eh     change       -0.2598656E-06 Eh
 * total energy  :  -198.6300871 Eh     change       -0.6588010E-08 Eh
   *** GEOMETRY OPTIMIZATION CONVERGED AFTER 22 ITERATIONS ***

 final structure:
================
128
 xtb: 6.7.1 (edcfbbe)
C           -8.58262859144909        5.03207237346364        1.38614822102200
C           -7.80004488628615        4.31076281953131        2.49260198141121
C           -8.77354717836169        3.75270776593609        3.54035736833494
C           -6.89305266381860        5.33454107424883        3.18008373257150
C           -7.01631622153380        3.16426805164857        1.87557008444065
C           -5.63554207038686        3.05339862387423        1.95322558760530
C           -4.97506389182715        2.00307108901012        1.34973535097186
C           -5.66306946192963        1.02934769849363        0.62872924017281
C           -7.05675551852788        1.08054111384601        0.59521747914885
C           -7.69157952653731        2.15014906624722        1.20848981345722
C           -7.89686171367122       -0.00665708771267       -0.04436797637065
C           -8.75155499953248        0.61840261624531       -1.16191761197046
C           -8.79553120827684       -0.62653439626727        1.04116210197032
C           -7.04008080514715       -1.09897896698639       -0.65258827841824
C           -7.65906943916740       -2.16681273278619       -1.28490774496516
C           -6.96674356000472       -3.18679006712925       -1.92497986559879
C           -7.73458873942775       -4.33044953370193       -2.56669101625986
C           -8.57286539891432       -5.03556797276221       -1.49104004235524
C           -8.65481533132671       -3.77005878296377       -3.66031038986881
C           -6.80888419028199       -5.36893089690107       -3.20548476496364
C           -5.58364493175194       -3.08314072725578       -1.95546442057080
C           -4.93877836983906       -2.03380694042214       -1.33361983507798
C           -5.64568969310436       -1.05425505210366       -0.63931936843543
N           -4.96837565359585       -0.01262986487672        0.00460542789221
C           -3.57490168639524       -0.00772727481126        0.01681953334502
C           -2.84155284374647        1.02580028304692       -0.58217818448823
F           -3.49726477931538        2.01336472025048       -1.20387487171880
C           -1.45660417847748        1.03470565960532       -0.56072264507388
F           -0.79295509032315        2.02534178679004       -1.16730989687189
C           -0.73648515044339       -0.00169639882930        0.03250746447230
C            0.73635058970758       -0.00057523482852        0.03435701511050
C            1.45830447562192       -1.03720569068526       -0.55620772562638
F            0.79659002245361       -2.02877806099033       -1.16337576069341
C            2.84329918912710       -1.02755661117569       -0.57469997922207
F            3.50072986972109       -2.01515943270933       -1.19454886399377
C            3.57496992278837        0.00678890203272        0.02496188775975
N            4.96841504853483        0.01273169002837        0.01523923088461
C            5.66316691628141       -1.02891229428532        0.63991797138957
C            4.97502808730187       -2.00453447622675        1.35823059600685
C            5.63566939346769       -3.05490449423002        1.96148148492310
C            7.01678465028565       -3.16357224335363        1.88690056559505
C            7.80090023048470       -4.30961060073499        2.50427442707256
C            6.89344458606811       -5.33923827403111        3.18233788112967
C            8.76586430103382       -3.75156935600689        3.55989333990515
C            8.59295570470901       -5.02426382330838        1.40022985759301
C            7.69206245444774       -2.14715037576098        1.22336638313927
C            7.05702023818045       -1.07794020102004        0.60964737801294
C            7.89708321439418        0.01128712858298       -0.02653693260136
C            8.79165949215254        0.63148315937242        1.06215151011620
C            8.75597672712066       -0.61107804919071       -1.14240817353425
C            7.04013939667056        1.10235549253638       -0.63672059910450
C            7.65902486183576        2.17083944568392       -1.26804810706038
C            6.96676611538849        3.18861747539589       -1.91166862762881
C            7.73448832363848        4.33301433733080       -2.55220317901528
C            8.56266954426208        5.04465190872493       -1.47303777664713
C            8.66429764659317        3.77290248511561       -3.63785169981662
C            6.80916021984300        5.36569506413325       -3.20085756644827
C            5.58395545168595        3.08232342587565       -1.94624268952313
C            4.93918631139543        2.03261343039485       -1.32494547763397
C            5.64581338449957        1.05506707426894       -0.62752390709963
C            2.84194458815692        1.03575130040104        0.63217934045721
F            3.49830101055779        2.02656726428599        1.24805258126481
C            1.45671711048117        1.03843668773597        0.62241999442732
F            0.79377086924445        2.02702187956307        1.23302809173075
C           -1.45853250421108       -1.03989690870300        0.61990839864296
F           -0.79727964360196       -2.02809010941456        1.23296625955731
C           -2.84380573563397       -1.03653046823888        0.62652672405609
F           -3.50226247387527       -2.02622324670757        1.24195594593698
H           -9.13438735348341        5.87180645765546        1.80335199534382
H           -9.29217895854586        4.36653900869774        0.90233330557793
H           -7.89906271706055        5.40934878525601        0.62862630779557
H           -9.32008407805406        4.56538827931896        4.01411005661798
H           -9.49526318901483        3.07541573999876        3.09214438535254
H           -8.22775814149227        3.20916996512800        4.30871589852228
H           -6.34174191445364        4.88048147927229        4.00014263415450
H           -7.49950135483054        6.14018513572208        3.58904720536485
H           -6.18940748991007        5.76856847997384        2.47376952905016
H           -5.04598460400158        3.77887627490276        2.48796685440618
H           -3.90259116614051        1.94495781447714        1.45882768699723
H           -8.76817637846203        2.19159472792430        1.16502952387034
H           -9.40010855755714        1.39528486658525       -0.76706297274371
H           -9.37450062561798       -0.13059630302974       -1.64249158558047
H           -8.10462747111230        1.06203711466744       -1.91610703884221
H           -8.17913887347850       -1.07395956486433        1.81833344499560
H           -9.43403004322043       -1.39950326555708        0.62300551365339
H           -9.43105649603736        0.12617815156499        1.49887728097780
H           -8.73675686089835       -2.20174950186283       -1.27962058814868
H           -9.11076498990616       -5.87543682815591       -1.92569202781260
H           -9.29953154539724       -4.36096801082332       -1.04689022966804
H           -7.92791610426116       -5.41033009469815       -0.69918603575334
H           -8.06933392156487       -3.24181685667101       -4.40989946180108
H           -9.38492410995254       -3.07821218506803       -3.24939487090720
H           -9.19217141096782       -4.57995226146143       -4.14909596815343
H           -6.13951434631565       -5.80155174133825       -2.46575024435585
H           -7.40487890057769       -6.17342052880384       -3.63171723470310
H           -6.21945349700394       -4.92835315750524       -4.00612377800368
H           -4.97977700254025       -3.81352346108791       -2.46704132879540
H           -3.86310419713796       -1.98195120418492       -1.40754020108697
H            3.90226927210117       -1.94805200468637        1.46528033042880
H            5.04595305940178       -3.78216248305011        2.49362572167089
H            6.19480179883750       -5.77200542119252        2.47029480718722
H            7.50018830309927       -6.14493402292897        3.59075473658815
H            6.33648637458895       -4.89073887997911        4.00162845675788
H            9.48597423835949       -3.06795117089084        3.11872992555245
H            9.31444633884980       -4.56358714692870        4.03241811306291
H            8.21309225803057       -3.21490136893687        4.32809107531434
H            9.14399581761077       -5.86428047114136        1.81781330012396
H            7.91562666325439       -5.40021235970864        0.63647242757248
H            9.30423723354316       -4.35509376787479        0.92406315836009
H            8.76886468297400       -2.18641000052710        1.18315555154107
H            8.17241752786440        1.07208251399270        1.84095552412971
H            9.43118346166357       -0.11969105819537        1.51683388178655
H            9.42602117607672        1.40985126962118        0.64770970665061
H            9.40059298379278       -1.39130487307191       -0.74772762413394
H            9.38320581862912        0.13845423152568       -1.61653329709819
H            8.11179110183533       -1.04985908853397       -1.90176992080295
H            8.73661541793718        2.20796675309481       -1.25928687960285
H            9.10219847780521        5.88384745885532       -1.90697449614521
H            9.28711248474577        4.37339100892170       -1.02024980669707
H            7.91064788748672        5.42133942804688       -0.68791532061172
H            8.08608060884286        3.23903846240240       -4.38909387851758
H            9.20076871801015        4.58357023672461       -4.12632883720855
H            9.39528670085252        3.08623693914435       -3.21990632812437
H            6.22620409166247        4.91963062812225       -4.00321027729487
H            6.13374722037530        5.79917030723743       -2.46715510472168
H            7.40502309409746        6.17045492791225       -3.62676292127565
H            4.98023226795631        3.81079960929229       -2.46070157478252
H            3.86383079899823        1.97867352302718       -1.40202159871746

          :  Hamiltonian                  GFN2-xTB          :
         :: gradient norm              0.000053106418 Eh/a0 ::
         :: HOMO-LUMO gap              1.458461523325 eV    ::
         :: SCC energy              -201.420454866347 Eh    ::
         :: -> dispersion             -0.168194389979 Eh    ::
         :: repulsion energy           2.790367809162 Eh    ::

    * Orbital Energies and Occupations

         #    Occupation            Energy/Eh            Energy/eV
      -------------------------------------------------------------
         1        2.0000           -0.8552768             -23.2733
       ...           ...                  ...                  ...
       167        2.0000           -0.4156429             -11.3102
       168        2.0000           -0.4089116             -11.1271
       169        2.0000           -0.4086840             -11.1209
       170        2.0000           -0.4076859             -11.0937
       171        2.0000           -0.4076550             -11.0929
       172        2.0000           -0.4003844             -10.8950
       173        2.0000           -0.4003621             -10.8944
       174        2.0000           -0.3984693             -10.8429
       175        2.0000           -0.3984515             -10.8424
       176        2.0000           -0.3944470             -10.7334
       177        2.0000           -0.3944303             -10.7330
       178        2.0000           -0.3565076              -9.7011
       179        2.0000           -0.3551723              -9.6647 (HOMO)
       180                         -0.3015748              -8.2063 (LUMO)
       181                         -0.2766345              -7.5276
       182                         -0.2759764              -7.5097
       183                         -0.2720432              -7.4027
       184                         -0.2268897              -6.1740
       185                         -0.2268658              -6.1733
       186                         -0.2218819              -6.0377
       187                         -0.2218043              -6.0356
       188                         -0.2208656              -6.0101
       189                         -0.2208478              -6.0096
       190                         -0.1975658              -5.3760
       ...                                ...                  ...
       332                          0.6678311              18.1726
      -------------------------------------------------------------
                  HL-Gap            0.0535975 Eh            1.4585 eV

     #   Z          covCN         q      C6AA      α(0)
     1   6 C        3.762    -0.106    22.566     6.772
     2   6 C        3.903     0.026    20.078     6.369
     3   6 C        3.761    -0.105    22.558     6.771
     4   6 C        3.761    -0.109    22.622     6.780
     5   6 C        2.972     0.001    27.993     8.679
     6   6 C        2.927    -0.040    28.987     8.829
     7   6 C        2.923    -0.054    29.329     8.881
     8   6 C        2.928     0.055    26.763     8.484
     9   6 C        2.980    -0.009    28.239     8.717
    10   6 C        2.938    -0.041    29.026     8.836
    11   6 C        3.910     0.022    20.143     6.379
    12   6 C        3.761    -0.103    22.522     6.765
    13   6 C        3.761    -0.104    22.524     6.765
    14   6 C        2.980    -0.009    28.240     8.717
    15   6 C        2.938    -0.041    29.026     8.836
    16   6 C        2.972     0.001    27.994     8.679
    17   6 C        3.903     0.026    20.078     6.369
    18   6 C        3.762    -0.106    22.566     6.772
    19   6 C        3.761    -0.105    22.558     6.770
    20   6 C        3.761    -0.109    22.622     6.780
    21   6 C        2.927    -0.040    28.987     8.829
    22   6 C        2.923    -0.054    29.332     8.882
    23   6 C        2.927     0.055    26.764     8.484
    24   7 N        2.751    -0.039    22.002     6.967
    25   6 C        2.923     0.044    27.011     8.523
    26   6 C        2.781     0.137    24.999     8.189
    27   9 F        0.787    -0.173    10.963     3.911
    28   6 C        2.781     0.150    24.738     8.147
    29   9 F        0.787    -0.175    10.982     3.915
    30   6 C        2.975    -0.012    28.299     8.726
    31   6 C        2.975    -0.012    28.299     8.726
    32   6 C        2.781     0.150    24.738     8.147
    33   9 F        0.787    -0.175    10.982     3.915
    34   6 C        2.781     0.137    25.000     8.190
    35   9 F        0.787    -0.173    10.963     3.911
    36   6 C        2.923     0.044    27.012     8.523
    37   7 N        2.751    -0.039    22.001     6.966
    38   6 C        2.928     0.055    26.763     8.484
    39   6 C        2.923    -0.053    29.328     8.881
    40   6 C        2.927    -0.040    28.987     8.829
    41   6 C        2.972     0.001    27.993     8.679
    42   6 C        3.903     0.026    20.078     6.369
    43   6 C        3.761    -0.109    22.622     6.780
    44   6 C        3.761    -0.105    22.558     6.771
    45   6 C        3.762    -0.106    22.566     6.772
    46   6 C        2.938    -0.041    29.026     8.836
    47   6 C        2.980    -0.009    28.239     8.717
    48   6 C        3.910     0.022    20.143     6.379
    49   6 C        3.761    -0.103    22.523     6.765
    50   6 C        3.761    -0.103    22.523     6.765
    51   6 C        2.980    -0.009    28.239     8.717
    52   6 C        2.938    -0.041    29.026     8.836
    53   6 C        2.972     0.001    27.994     8.679
    54   6 C        3.903     0.026    20.078     6.369
    55   6 C        3.762    -0.106    22.566     6.772
    56   6 C        3.761    -0.105    22.558     6.771
    57   6 C        3.761    -0.109    22.622     6.780
    58   6 C        2.927    -0.040    28.987     8.829
    59   6 C        2.923    -0.054    29.332     8.882
    60   6 C        2.927     0.055    26.765     8.484
    61   6 C        2.781     0.137    25.000     8.190
    62   9 F        0.787    -0.173    10.962     3.911
    63   6 C        2.781     0.150    24.737     8.146
    64   9 F        0.787    -0.175    10.981     3.914
    65   6 C        2.781     0.150    24.737     8.146
    66   9 F        0.787    -0.175    10.981     3.914
    67   6 C        2.781     0.137    24.999     8.189
    68   9 F        0.787    -0.173    10.962     3.911
    69   1 H        0.925     0.037     2.485     2.465
    70   1 H        0.925     0.035     2.516     2.481
    71   1 H        0.925     0.036     2.505     2.475
    72   1 H        0.925     0.038     2.482     2.464
    73   1 H        0.925     0.035     2.522     2.484
    74   1 H        0.925     0.034     2.528     2.486
    75   1 H        0.925     0.036     2.502     2.473
    76   1 H        0.925     0.037     2.496     2.470
    77   1 H        0.925     0.038     2.480     2.463
    78   1 H        0.926     0.041     2.432     2.439
    79   1 H        0.926     0.020     2.728     2.583
    80   1 H        0.926     0.037     2.494     2.469
    81   1 H        0.925     0.040     2.448     2.447
    82   1 H        0.925     0.040     2.452     2.449
    83   1 H        0.925     0.035     2.511     2.478
    84   1 H        0.925     0.035     2.512     2.478
    85   1 H        0.925     0.040     2.448     2.447
    86   1 H        0.925     0.040     2.452     2.449
    87   1 H        0.926     0.037     2.494     2.469
    88   1 H        0.925     0.037     2.486     2.465
    89   1 H        0.925     0.035     2.516     2.481
    90   1 H        0.925     0.036     2.505     2.475
    91   1 H        0.925     0.034     2.528     2.486
    92   1 H        0.925     0.035     2.522     2.484
    93   1 H        0.925     0.038     2.481     2.463
    94   1 H        0.925     0.038     2.479     2.462
    95   1 H        0.925     0.037     2.496     2.470
    96   1 H        0.925     0.036     2.502     2.473
    97   1 H        0.926     0.041     2.432     2.439
    98   1 H        0.926     0.021     2.724     2.581
    99   1 H        0.926     0.020     2.727     2.582
   100   1 H        0.926     0.041     2.432     2.439
   101   1 H        0.925     0.038     2.480     2.462
   102   1 H        0.925     0.037     2.495     2.470
   103   1 H        0.925     0.036     2.502     2.474
   104   1 H        0.925     0.035     2.522     2.483
   105   1 H        0.925     0.038     2.482     2.463
   106   1 H        0.925     0.034     2.528     2.486
   107   1 H        0.925     0.037     2.485     2.465
   108   1 H        0.925     0.036     2.505     2.475
   109   1 H        0.925     0.035     2.516     2.481
   110   1 H        0.926     0.037     2.494     2.469
   111   1 H        0.925     0.035     2.512     2.478
   112   1 H        0.925     0.040     2.452     2.449
   113   1 H        0.925     0.040     2.448     2.447
   114   1 H        0.925     0.040     2.448     2.447
   115   1 H        0.925     0.040     2.452     2.449
   116   1 H        0.925     0.035     2.511     2.478
   117   1 H        0.926     0.037     2.494     2.469
   118   1 H        0.925     0.037     2.485     2.465
   119   1 H        0.925     0.035     2.516     2.481
   120   1 H        0.925     0.036     2.505     2.475
   121   1 H        0.925     0.034     2.528     2.486
   122   1 H        0.925     0.038     2.481     2.463
   123   1 H        0.925     0.035     2.522     2.484
   124   1 H        0.925     0.036     2.502     2.473
   125   1 H        0.925     0.038     2.480     2.462
   126   1 H        0.925     0.037     2.495     2.470
   127   1 H        0.926     0.041     2.431     2.438
   128   1 H        0.926     0.021     2.724     2.581

molecular dipole:
                 x           y           z       tot (Debye)
 q only:        0.002       0.001      -0.032
   full:        0.002       0.001      -0.031       0.078

 projected vibrational frequencies (cm⁻¹)
eigval :       -0.00    -0.00     0.00     0.00     0.00     0.00
eigval :        6.27     7.87     7.89    15.39    17.34    24.85
eigval :       26.42    26.85    28.85    32.21    35.06    36.04
eigval :       40.76    50.52    52.10    55.52    66.68    76.03
eigval :       84.34    86.82    87.17   101.26   105.17   109.07
eigval :      109.56   113.90   119.42   124.54   127.05   128.81
eigval :      133.62   134.85   153.04   153.60   163.42   164.02
eigval :      169.30   170.99   171.46   174.01   174.73   183.30
eigval :      183.34   203.31   204.04   204.12   206.70   215.80
eigval :      218.06   218.06   219.93   226.27   235.18   235.54
eigval :      251.78   252.17   256.33   261.02   262.61   266.73
eigval :      273.78   274.50   278.02   278.23   295.46   295.86
eigval :      307.01   308.18   311.42   311.45   311.79   312.18
eigval :      325.98   328.98   343.78   344.28   344.32   345.14
eigval :      348.81   355.00   355.23   355.34   355.36   366.44
eigval :      368.46   370.98   388.28   399.10   399.27   411.90
eigval :      413.20   413.90   420.26   421.45   422.02   424.82
eigval :      434.33   439.45   444.05   444.63   446.84   460.28
eigval :      461.10   464.06   464.92   476.50   482.55   482.73
eigval :      484.77   497.80   498.32   500.25   523.52   537.11
eigval :      571.79   572.05   580.78   581.32   583.46   584.61
eigval :      587.68   587.84   599.22   610.97   611.05   620.40
eigval :      630.43   630.50   644.78   648.12   670.02   671.51
eigval :      686.65   689.26   689.26   694.37   696.50   696.63
eigval :      697.52   716.58   740.99   743.42   769.53   819.02
eigval :      823.49   823.66   823.73   824.32   827.83   850.40
eigval :      850.45   893.26   893.65   895.15   895.19   899.97
eigval :      902.52   905.79   907.62   914.29   914.31   914.78
eigval :      914.89   936.01   938.54   951.37   951.92   956.86
eigval :      957.69   957.73   960.39   960.40   960.41   960.42
eigval :      962.63   962.77   962.81   962.89   962.93   963.17
eigval :      963.25   963.32   971.22   971.71  1014.58  1014.59
eigval :     1035.09  1035.15  1035.16  1035.18  1035.75  1035.98
eigval :     1035.99  1036.44  1045.75  1074.19  1097.13  1097.47
eigval :     1099.57  1108.26  1109.85  1151.31  1157.11  1157.12
eigval :     1160.85  1160.86  1166.03  1166.24  1183.22  1183.26
eigval :     1188.02  1208.67  1214.52  1227.79  1228.17  1228.18
eigval :     1228.21  1228.22  1236.35  1236.37  1236.41  1236.73
eigval :     1237.17  1243.80  1261.74  1261.91  1267.14  1268.16
eigval :     1268.18  1269.70  1282.53  1283.02  1291.30  1292.42
eigval :     1304.12  1305.22  1310.67  1311.04  1325.16  1325.28
eigval :     1331.75  1331.86  1344.24  1344.58  1377.70  1401.44
eigval :     1401.45  1403.14  1403.15  1403.35  1403.36  1405.82
eigval :     1405.85  1406.08  1406.09  1414.06  1414.41  1419.24
eigval :     1419.33  1421.86  1421.87  1429.70  1429.72  1429.73
eigval :     1429.73  1447.53  1449.91  1454.09  1460.55  1479.63
eigval :     1485.48  1485.56  1488.31  1488.32  1488.97  1488.98
eigval :     1492.08  1492.08  1492.32  1492.33  1494.84  1494.84
eigval :     1495.61  1495.61  1496.08  1496.75  1499.10  1499.40
eigval :     1501.65  1501.68  1503.62  1503.63  1504.51  1504.71
eigval :     1506.07  1506.08  1507.64  1508.32  1514.24  1514.24
eigval :     1514.25  1514.27  1519.64  1519.65  1519.74  1519.78
eigval :     1522.13  1532.95  1556.47  1564.15  1570.35  1570.38
eigval :     1584.73  1584.75  1599.78  1599.80  1605.90  1605.95
eigval :     3023.25  3023.26  3023.28  3023.30  3024.84  3024.84
eigval :     3024.86  3024.87  3028.84  3028.84  3028.87  3028.87
eigval :     3030.86  3030.88  3031.75  3031.75  3031.86  3032.00
eigval :     3032.90  3032.94  3033.37  3033.37  3033.63  3033.64
eigval :     3037.76  3037.79  3037.82  3037.84  3040.39  3040.41
eigval :     3040.56  3040.57  3040.61  3040.62  3043.55  3043.56
eigval :     3045.67  3045.69  3045.76  3045.78  3049.24  3049.26
eigval :     3049.33  3049.37  3050.74  3050.75  3055.05  3055.12
eigval :     3085.42  3085.48  3086.70  3086.74  3098.24  3098.25
eigval :     3098.62  3098.71  3122.14  3122.17  3122.44  3122.46

   temp. (K)  partition function   enthalpy   heat capacity  entropy
                                   cal/mol     cal/K/mol   cal/K/mol   J/K/mol
 298.15  VIB  0.532E+33            41566.906    245.787    260.455
         ROT  0.157E+09              888.752      2.981     40.482
         INT  0.834E+41            42455.658    248.768    300.938
         TR   0.278E+29             1481.254      4.968     46.367
         TOT                       43936.9119   253.7362   347.3046  1453.1224

       T/K    H(0)-H(T)+PV         H(T)/Eh          T*S/Eh         G(T)/Eh
   ------------------------------------------------------------------------
    298.15    0.700179E-01    0.109521E+01    0.165016E+00    0.930199E+00
   ------------------------------------------------------------------------

         :::::::::::::::::::::::::::::::::::::::::::::::::::::
         ::                  THERMODYNAMIC                  ::
         :::::::::::::::::::::::::::::::::::::::::::::::::::::
         :: total free energy        -197.699888485366 Eh   ::
         ::.................................................::
         :: total energy             -198.630087057180 Eh   ::
         :: zero point energy           1.025196265162 Eh   ::
         :: G(RRHO) w/o ZPVE           -0.094997693348 Eh   ::
         :: G(RRHO) contrib.            0.930198571815 Eh   ::
         :::::::::::::::::::::::::::::::::::::::::::::::::::::

           -------------------------------------------------
          | TOTAL ENERGY             -198.630087057180 Eh   |
          | TOTAL ENTHALPY           -197.534872866088 Eh   |
          | TOTAL FREE ENERGY        -197.699888485366 Eh   |
          | GRADIENT NORM               0.000053105625 Eh/α |
          | HOMO-LUMO GAP               1.458461259762 eV   |
           -------------------------------------------------

 * finished run on 2025/09/04 at 07:15:33.214
