   * xtb version 6.7.1 (edcfbbe) compiled by 'albert@albert-system' on 2024-07-22

   ID    Z sym.   atoms
    1    6 C      1-23, 25, 26, 28, 30-32, 34, 36, 38-61, 63, 65, 67
    2    7 N      24, 37
    3    9 F      27, 29, 33, 35, 62, 64, 66, 68
    4    1 H      69-128

          program call               : xtb data2507/gas/PFBP-2b/PFBP-2b_gas_S0_finalOpt.xtbopt.xyz --gfn 2 --spinpol --tblite --uhf 2 --ohess vtight --parallel 40 --molden --ceasefiles --namespace data2507/gas/PFBP-2b/PFBP-2b_gas_T1_preOpt
 * total energy  :  -198.5548147 Eh     change       -0.7160367E-08 Eh
 * total energy  :  -198.5601256 Eh     change       -0.5310843E-02 Eh
 * total energy  :  -198.5616683 Eh     change       -0.1542690E-02 Eh
 * total energy  :  -198.5620001 Eh     change       -0.3317993E-03 Eh
 * total energy  :  -198.5623808 Eh     change       -0.3807717E-03 Eh
 * total energy  :  -198.5626033 Eh     change       -0.2225022E-03 Eh
 * total energy  :  -198.5627986 Eh     change       -0.1952401E-03 Eh
 * total energy  :  -198.5628988 Eh     change       -0.1001668E-03 Eh
 * total energy  :  -198.5629562 Eh     change       -0.5744417E-04 Eh
 * total energy  :  -198.5630092 Eh     change       -0.5299906E-04 Eh
 * total energy  :  -198.5658115 Eh     change       -0.6372973E-06 Eh
 * total energy  :  -198.5658122 Eh     change       -0.6893221E-06 Eh
 * total energy  :  -198.5658127 Eh     change       -0.5316481E-06 Eh
 * total energy  :  -198.5658135 Eh     change       -0.7851396E-06 Eh
 * total energy  :  -198.5658141 Eh     change       -0.6242493E-06 Eh
 * total energy  :  -198.5658146 Eh     change       -0.4622690E-06 Eh
 * total energy  :  -198.5658153 Eh     change       -0.7844478E-06 Eh
 * total energy  :  -198.5658161 Eh     change       -0.7054111E-06 Eh
 * total energy  :  -198.5658161 Eh     change       -0.6310444E-08 Eh
   *** GEOMETRY OPTIMIZATION CONVERGED AFTER 940 ITERATIONS ***

 final structure:
================
128
 xtb: 6.7.1 (edcfbbe)
C           -8.55695194830341        4.57596615775017        2.49557602163991
C           -7.75392173820137        3.63450070579960        3.40537316547544
C           -8.70805089007552        2.86198657655931        4.32801538168655
C           -6.82952691552677        4.48745499498064        4.27774425504852
C           -6.98950147538767        2.64947792129402        2.53973741527765
C           -5.60267844322779        2.53038767730251        2.56077985450982
C           -4.95660360030160        1.64114822605655        1.73345099790716
C           -5.66677974270664        0.83567974678908        0.83513039220397
C           -7.06834602619823        0.89663405705533        0.83815454073351
C           -7.68600165944357        1.80393504526432        1.68148835344099
C           -7.91317707516850       -0.01499630095543       -0.02546600852465
C           -8.79294165327216        0.84745799652841       -0.95049534018518
C           -8.79102595814083       -0.88096853200316        0.89809549207435
C           -7.06326218749003       -0.92323463110313       -0.88767113739455
C           -7.67587146357514       -1.83299731141350       -1.73203316281634
C           -6.97455955748778       -2.67574233874856       -2.58911491952309
C           -7.73358378226751       -3.66381304865197       -3.45602435923365
C           -8.53435897157411       -4.60848861402316       -2.54756813530109
C           -8.68925379154173       -2.89511981505066       -4.38026174310285
C           -6.80432611686649       -4.51305727867191       -4.32684727774149
C           -5.58819104753236       -2.55110243305367       -2.60784027801533
C           -4.94706378755104       -1.65928745654619       -1.77943553028204
C           -5.66195810833664       -0.85667113120069       -0.88230528529323
N           -4.99276721773847       -0.00915175071605       -0.02302625869821
C           -3.58065054834941       -0.00632569216670       -0.02184658353837
C           -2.84516619926925        1.10749437449192       -0.47549253843678
F           -3.53267049167968        2.16199767058703       -0.96264446854676
C           -1.47599618111387        1.11584011741932       -0.46700323206285
F           -0.83039240724532        2.17077141201214       -0.99854750461485
C           -0.71441296825023       -0.00058955271954       -0.01945234621822
C            0.71469869504097        0.00227050879992       -0.01825858673199
C            1.47703595302247       -1.11403650752346       -0.46484265652499
F            0.83233896433601       -2.16884528706549       -0.99773690267162
C            2.84620766325409       -1.10568747819564       -0.47104171941675
F            3.53454054682810       -2.16005050091332       -0.95733399384621
C            3.58093645173175        0.00800669228717       -0.01586436238242
N            4.99304254649596        0.01083264908587       -0.01468466996590
C            5.66561011586520       -0.83424709087317        0.84436120409601
C            4.95392566360899       -1.63997142520665        1.74125990062356
C            5.59861642031177       -2.52945606024810        2.56940266058436
C            6.98547188495312       -2.64855302810908        2.55063534633959
C            7.74845540559304       -3.63381979432631        3.41726386450624
C            6.82260885157123       -4.48694034752833        4.28792029693931
C            8.70110931831120       -2.86158467777784        4.34166066731170
C            8.55292504294625       -4.57511468423280        2.50856532442001
C            7.68340448232796       -1.80277412710947        1.69379137216828
C            7.06716503035810       -0.89521749957397        0.84969802422490
C            7.91342496040907        0.01667666061205       -0.01224518433957
C            8.78974391397987        0.88236145619052        0.91303460484166
C            8.79474504319814       -0.84549142732971       -0.93605733555666
C            7.06496340346060        0.92517989334829       -0.87560362035362
C            7.67897501399985        1.83519873747179       -1.71866892932331
C            6.97909548495569        2.67818077909539       -2.57668022418595
C            7.73957639354651        3.66649690043397       -3.44203533870865
C            8.53875172968594        4.61100107400066       -2.53199623629919
C            8.69685758668752        2.89808482664937       -4.36483628793956
C            6.81177881576962        4.51590776531920       -4.31424057737601
C            5.59276108676974        2.55353416398853       -2.59776431081912
C            4.95025276214765        1.66147328445692       -1.77069722628167
C            5.66365677243173        0.85860051531765       -0.87260827286735
C            2.84099650517095        1.11874961403946        0.43808118508209
F            3.52429032854912        2.17585764758884        0.92551925818171
C            1.47181461204734        1.12161839685270        0.42959470752463
F            0.82201147842423        2.17383650030731        0.96140764228647
C           -1.47226816448030       -1.12006004162484        0.42682931866555
F           -0.82333607598594       -2.17240061348765        0.95945493658490
C           -2.84147289468023       -1.11719455254197        0.43303118472342
F           -3.52556389325201       -2.17444280724642        0.91903734552388
H           -9.09215717627117        5.30819540999770        3.09606604964611
H           -9.28300332196198        4.03122128444101        1.89845545972635
H           -7.88833967698661        5.10503788886072        1.82008712549088
H           -9.24104696865621        3.55409997765871        4.97611562794205
H           -9.44191771141655        2.29647850022873        3.76043433318238
H           -8.14857947950547        2.16702267490595        4.95052546906357
H           -6.26142078557034        3.86876632879453        4.96832842000041
H           -7.42546690843065        5.18365140316202        4.86423480149102
H           -6.14113316534964        5.06662306737174        3.66711931881403
H           -5.00444246972582        3.13080544383164        3.22476599575112
H           -3.88220997273057        1.56567232795117        1.78535036648558
H           -8.76302475036683        1.85578011962436        1.67127837758170
H           -9.45064897736903        1.49030467981773       -0.37269570901071
H           -9.40709015702813        0.22377305916468       -1.59371147480557
H           -8.16359402211735        1.47442576102212       -1.57870932277560
H           -8.16022373643854       -1.50541398177724        1.52736194329667
H           -9.44518856683174       -1.52644106148893        0.31920025065954
H           -9.40873971610381       -0.25974918002130        1.54028278827828
H           -8.75269397398920       -1.88915280079353       -1.72362257269212
H           -9.06562517344148       -5.34285143619914       -3.14894992450601
H           -9.26358154872370       -4.06665637714360       -1.95166311016281
H           -7.86476441948011       -5.13488307689910       -1.87096151481973
H           -8.13152867442785       -2.19791974842818       -5.00183768766751
H           -9.42632550527049       -2.33255571965828       -3.81390931720070
H           -9.21839179521095       -3.58935808015455       -5.02925011929994
H           -6.11464132512912       -5.08946815810236       -3.71507132979361
H           -7.39649408782985       -5.21163074414083       -4.91433113485627
H           -6.23754739336547       -3.89209702741749       -5.01648266993287
H           -4.98644810067563       -3.14911849293071       -3.27082412987670
H           -3.87289562151971       -1.57951188956715       -1.82953973000461
H            3.87944579239064       -1.56450256448814        1.79137871112564
H            4.99926654643477       -3.13006976744668        3.23221025047311
H            6.13519155515600       -5.06593369458232        3.67603381504612
H            7.41757242461517       -5.18329644388416        4.87521007684347
H            6.25340756702699       -3.86838608167178        4.97772054136090
H            9.43599771748734       -2.29603856467656        3.77544418152970
H            9.23293452096371       -3.55388863829622        4.99051909148816
H            8.14066010137352       -2.16669191170459        4.96336788697742
H            9.08716088834567       -5.30745910744313        3.10977930103094
H            7.88538366599419       -5.10405699355578        1.83191896119912
H            9.27993366989649       -4.03027600869565        1.91269854104481
H            8.76044200187303       -1.85465331929858        1.68536302466507
H            8.15790893781800        1.50661491985462        1.54145413691427
H            9.40639169494225        0.26092712846220        1.55603945154009
H            9.44485958046590        1.52800387293517        0.33540599693205
H            9.45147340109206       -1.48850918480877       -0.35733329785293
H            9.40997416807474       -0.22159230900970       -1.57803347849771
H            8.16646349066750       -1.47226606735945       -1.56552915925463
H            8.75578068880795        1.89138804963767       -1.70844135298944
H            9.07105614221089        5.34548021585399       -3.13231860044058
H            9.26693829734773        4.06907461593213       -1.93491333499862
H            7.86796833344244        5.13726469731593       -1.85646829979688
H            8.14023440873074        2.20095633466428       -4.98747715545662
H            9.22699085435831        3.59251451410306       -5.01280712275312
H            9.43305672441138        2.33548305356744       -3.79739065694621
H            6.24621161737158        3.89508250450350       -5.00498915805429
H            6.12102782100702        5.09214278992881       -3.70350564384600
H            7.40493097029096        5.21464182882257       -4.90053741532331
H            4.99212040227619        3.15174674039128       -3.26157413294338
H            3.87616878725030        1.58170477371627       -1.82261097522936

 projected vibrational frequencies (cm⁻¹)
eigval :       -0.00    -0.00    -0.00     0.00     0.00     0.00
eigval :        5.51     6.08     7.22    14.66    17.27    20.86
eigval :       25.12    25.92    27.70    29.42    33.93    34.66
eigval :       43.11    51.81    53.96    54.40    62.16    73.65
eigval :       80.48    82.90    86.08   100.09   105.93   108.07
eigval :      108.92   113.66   115.90   115.98   121.83   130.99
eigval :      131.45   141.56   150.20   155.36   160.83   161.86
eigval :      165.00   168.41   168.93   171.36   171.66   186.57
eigval :      186.58   199.52   199.90   203.50   204.75   215.63
eigval :      216.07   216.19   218.64   228.46   232.03   232.71
eigval :      245.95   246.06   254.35   260.87   261.85   269.53
eigval :      272.99   276.60   279.73   280.42   300.82   302.86
eigval :      304.89   307.37   310.19   310.28   312.80   315.07
eigval :      320.96   323.72   339.28   339.90   342.13   342.30
eigval :      342.67   350.38   350.73   352.59   352.64   363.12
eigval :      370.22   372.79   384.47   387.99   391.23   392.04
eigval :      396.02   396.83   411.84   412.08   415.00   418.43
eigval :      432.81   437.48   441.60   447.53   448.28   448.56
eigval :      453.78   456.46   457.20   475.36   477.50   483.36
eigval :      483.38   491.61   501.83   505.39   512.91   522.25
eigval :      533.83   536.12   556.07   566.69   568.63   573.77
eigval :      578.56   583.45   588.65   590.13   592.41   595.63
eigval :      610.32   610.40   630.80   630.81   667.74   669.94
eigval :      676.83   678.77   692.97   694.64   694.93   697.13
eigval :      703.56   704.09   740.04   743.20   767.45   819.00
eigval :      820.84   820.97   823.44   823.68   826.92   849.81
eigval :      849.88   890.92   891.22   892.55   892.59   896.67
eigval :      899.91   903.48   905.69   914.67   914.73   915.16
eigval :      915.23   927.66   936.92   941.22   947.80   948.74
eigval :      956.65   956.77   957.71   959.03   959.09   959.10
eigval :      959.11   960.50   961.74   961.81   961.84   962.00
eigval :      962.30   962.31   962.34   965.63  1011.72  1011.89
eigval :     1028.75  1031.99  1032.03  1032.04  1032.05  1034.41
eigval :     1034.42  1034.90  1035.96  1045.96  1057.03  1073.48
eigval :     1096.60  1096.69  1097.19  1139.71  1148.28  1148.30
eigval :     1150.99  1151.01  1156.07  1159.23  1172.02  1175.32
eigval :     1175.34  1201.64  1206.33  1224.04  1224.10  1224.17
eigval :     1224.17  1224.58  1230.02  1232.17  1232.30  1232.38
eigval :     1234.05  1235.46  1252.73  1252.79  1254.89  1262.79
eigval :     1265.47  1265.56  1273.91  1275.78  1292.38  1292.43
eigval :     1304.43  1309.52  1318.12  1319.40  1321.15  1323.32
eigval :     1331.43  1332.86  1334.51  1337.41  1337.45  1375.96
eigval :     1386.86  1395.14  1397.26  1399.87  1400.64  1401.50
eigval :     1401.55  1402.36  1403.27  1403.44  1403.71  1403.77
eigval :     1404.05  1415.88  1416.73  1418.16  1418.18  1421.84
eigval :     1422.32  1425.91  1425.94  1426.03  1426.06  1455.85
eigval :     1455.87  1464.16  1479.88  1481.54  1481.86  1483.56
eigval :     1483.71  1483.96  1486.68  1486.68  1486.96  1487.01
eigval :     1489.71  1490.04  1490.30  1490.70  1493.21  1493.36
eigval :     1493.50  1493.87  1495.11  1496.79  1497.15  1497.54
eigval :     1497.63  1497.80  1499.72  1499.76  1500.04  1500.24
eigval :     1509.25  1509.37  1509.39  1510.06  1514.17  1514.27
eigval :     1514.30  1514.55  1536.80  1538.17  1538.18  1551.13
eigval :     1552.41  1578.86  1578.87  1593.22  1593.55  1617.44
eigval :     3024.88  3024.89  3024.90  3025.15  3027.14  3027.17
eigval :     3027.17  3027.18  3029.64  3029.65  3029.65  3029.66
eigval :     3032.35  3032.36  3032.86  3032.86  3032.89  3033.10
eigval :     3033.47  3033.49  3033.64  3033.64  3033.81  3034.02
eigval :     3038.17  3038.26  3038.28  3038.43  3039.58  3039.71
eigval :     3039.79  3040.02  3042.08  3042.20  3043.79  3043.97
eigval :     3044.03  3044.22  3044.68  3044.79  3047.39  3047.39
eigval :     3047.55  3047.66  3050.47  3050.91  3054.24  3054.87
eigval :     3098.83  3098.84  3099.16  3099.44  3105.83  3105.85
eigval :     3105.87  3105.88  3127.23  3127.42  3127.45  3127.53

   temp. (K)  partition function   enthalpy   heat capacity  entropy
                                   cal/mol     cal/K/mol   cal/K/mol   J/K/mol
 298.15  VIB  0.244E+34            41938.295    247.468    263.538
         ROT  0.785E+08              888.752      2.981     39.107
         INT  0.191E+42            42827.047    250.449    302.645
         TR   0.278E+29             1481.254      4.968     46.367
         TOT                       44308.3009   255.4175   349.0117  1460.2648

       T/K    H(0)-H(T)+PV         H(T)/Eh          T*S/Eh         G(T)/Eh
   ------------------------------------------------------------------------
    298.15    0.706098E-01    0.109166E+01    0.165827E+00    0.925833E+00
   ------------------------------------------------------------------------

         :::::::::::::::::::::::::::::::::::::::::::::::::::::
         ::                  THERMODYNAMIC                  ::
         :::::::::::::::::::::::::::::::::::::::::::::::::::::
         :: total free energy        -197.639983310660 Eh   ::
         ::.................................................::
         :: total energy             -198.565816058364 Eh   ::
         :: zero point energy           1.021049673791 Eh   ::
         :: G(RRHO) w/o ZPVE           -0.095216926088 Eh   ::
         :: G(RRHO) contrib.            0.925832747704 Eh   ::
         :::::::::::::::::::::::::::::::::::::::::::::::::::::

           -------------------------------------------------
          | TOTAL ENERGY             -198.565816058364 Eh   |
          | TOTAL ENTHALPY           -197.474156612557 Eh   |
          | TOTAL FREE ENERGY        -197.639983310660 Eh   |
          | GRADIENT NORM               0.000067528722 Eh/α |
           -------------------------------------------------

 * finished run on 2025/09/04 at 07:18:27.140
