   * xtb version 6.7.1 (edcfbbe) compiled by 'albert@albert-system' on 2024-07-22

   ID    Z sym.   atoms
    1    6 C      1-23, 25, 26, 28, 30-32, 34, 36, 38-61, 63, 65, 67
    2    7 N      24, 37
    3    9 F      27, 29, 33, 35, 62, 64, 66, 68
    4    1 H      69-128

          program call               : xtb data2507/gas/PFBP-2b/PFBP-2b.xyz --gfn 2 --ohess vtight --parallel 40 --molden --ceasefiles --namespace data2507/gas/PFBP-2b/PFBP-2b_gas_S0_preOpt
          :  Hamiltonian                  GFN2-xTB          :
 * total energy  :  -198.5945209 Eh     change       -0.2696311E-08 Eh
 * total energy  :  -198.6123091 Eh     change       -0.1778823E-01 Eh
 * total energy  :  -198.6196627 Eh     change       -0.7353563E-02 Eh
 * total energy  :  -198.6225610 Eh     change       -0.2898300E-02 Eh
 * total energy  :  -198.6242383 Eh     change       -0.1677331E-02 Eh
 * total energy  :  -198.6249106 Eh     change       -0.6722994E-03 Eh
 * total energy  :  -198.6252321 Eh     change       -0.3214568E-03 Eh
 * total energy  :  -198.6255130 Eh     change       -0.2808727E-03 Eh
 * total energy  :  -198.6257727 Eh     change       -0.2597732E-03 Eh
 * total energy  :  -198.6259284 Eh     change       -0.1557120E-03 Eh
 * total energy  :  -198.6297935 Eh     change       -0.7085495E-06 Eh
 * total energy  :  -198.6297942 Eh     change       -0.7079332E-06 Eh
 * total energy  :  -198.6297949 Eh     change       -0.7052762E-06 Eh
 * total energy  :  -198.6297956 Eh     change       -0.7041895E-06 Eh
 * total energy  :  -198.6297963 Eh     change       -0.7024372E-06 Eh
 * total energy  :  -198.6297970 Eh     change       -0.7016885E-06 Eh
 * total energy  :  -198.6297977 Eh     change       -0.7008410E-06 Eh
 * total energy  :  -198.6297984 Eh     change       -0.6978395E-06 Eh
 * total energy  :  -198.6297984 Eh     change       -0.7009533E-08 Eh
   *** GEOMETRY OPTIMIZATION CONVERGED AFTER 780 ITERATIONS ***

 final structure:
================
128
 xtb: 6.7.1 (edcfbbe)
C           -8.61226257735270       -2.19164797629667        4.75864902734966
C           -7.76210811807237       -3.14096388996819        3.90273650481839
C           -8.67179767829280       -4.13628402274892        3.16848436073194
C           -6.84417397697769       -3.93283860084953        4.83751342716864
C           -6.98592224646066       -2.32767063906929        2.88007372813669
C           -5.60134391918227       -2.33173852229175        2.79286263112267
C           -4.94970048517002       -1.56811911906193        1.84615974774943
C           -5.65254571770171       -0.75691238370776        0.95803966492049
C           -7.04701874537198       -0.76830454544082        0.99642264653089
C           -7.67228796707268       -1.54590303614068        1.95933829306101
C           -7.89585841717832        0.00595472815387        0.00742713419538
C           -8.77130400048187        1.00501487037051        0.78560572070840
C           -8.77414590315592       -0.99185276511752       -0.76915640833680
C           -7.04771408811119        0.77898870533202       -0.98312180969548
C           -7.67361891055759        1.55755786929232       -1.94483940457819
C           -6.98780674187787        2.33831935202895       -2.86684010599755
C           -7.76468639491630        3.15284955158242       -3.88799025591469
C           -8.61806559986965        2.20491528984749       -4.74222275458632
C           -8.67131084476853        4.14964305484530       -3.15194749703371
C           -6.84731243458701        3.94322772249573       -4.82458216461561
C           -5.60306209837735        2.34029266097723       -2.78223536450592
C           -4.95079269806320        1.57566201127547       -1.83678092753881
C           -5.65319049501744        0.76549406415569       -0.94735957343607
N           -4.96951236262861        0.00376575636013        0.00468919728194
C           -3.57374733946939        0.00271105387351        0.00336966688675
C           -2.84241683774207        0.54707401867610        1.06636162849220
F           -3.50130984077061        1.09917401305142        2.09141256465411
C           -1.45687947048306        0.54326111176391        1.06528596763970
F           -0.79733716262558        1.11905032964904        2.07604722202581
C           -0.73578717860057        0.00055259809348        0.00068505321230
C            0.73578876461117       -0.00057000150797       -0.00070624821624
C            1.45770592528365        0.54073918388539       -1.06546077352040
F            0.79904050064597        1.11724497524256       -2.07638539031369
C            2.84324693911243        0.54244764945879       -1.06653514195682
F            3.50297831808582        1.09325763019745       -2.09174113764839
C            3.57374964529283       -0.00272141468288       -0.00338634594439
N            4.96951344550357       -0.00377869185469       -0.00470741642343
C            5.65138879788750       -0.76573249614151       -0.95786815198093
C            4.94731196538108       -1.57613952676808       -1.84574273135328
C            5.59778997215620       -2.34096312718723       -2.79227467485274
C            6.98236788208807       -2.33893110619004       -2.87956574324716
C            7.75730961232981       -3.15356543050498       -3.90210445211543
C            6.83817997280725       -3.94462080640969       -4.83640003753506
C            8.66592467156016       -4.14977561740853       -3.16772915177876
C            8.60845158083760       -2.20559061919017       -4.75852196664172
C            7.66992353661192       -1.55793042046497       -1.95906717780011
C            7.04584175210142       -0.77919680448967       -0.99629851294130
C            7.89585994307788       -0.00597951262681       -0.00750041715000
C            8.77274365805311       -1.00491171686591        0.76922225505407
C            8.77270926499670        0.99166256002920       -0.78591893475097
C            7.04889415115786        0.76849214209992        0.98293424510172
C            7.67598387545522        1.54626653889298        1.94452301892902
C            6.99136309867630        2.32828701445112        2.86634230367863
C            7.76948052098744        3.14171193244860        3.88743109349296
C            8.67827737998096        4.13651169742970        3.15137088048257
C            6.85333021978579        3.93419273622805        4.82344320167597
C            8.62073813838057        2.19240067124144        4.74225235734840
C            5.60662618062395        2.33241311879359        2.78168714273955
C            4.95319207084899        1.56858939661676        1.83638443204602
C            5.65435153728196        0.75713304496298        0.94716066035304
C            2.84443061637369       -0.54678710854917        1.06113945985885
F            3.50526102949931       -1.09859796050446        2.08509872358583
C            1.45889393806226       -0.54297969315161        1.06268121705049
F            0.80126519865881       -1.11848350939591        2.07485082147386
C           -1.45971687106475       -0.54105206468544       -1.06255149296426
F           -0.80296491286786       -1.11784362596991       -2.07455729494892
C           -2.84525767125453       -0.54275461770783       -1.06100660369605
F           -3.50692816795318       -1.09385043041496       -2.08480806818622
H           -9.15741033065694       -2.75429652893528        5.51356477294407
H           -9.33343794702734       -1.64885034940699        4.15391597446215
H           -7.97479688018075       -1.46695846649473        5.26054457804452
H           -9.21451218476505       -4.74783837929803        3.88617027391132
H           -9.39724690171770       -3.62465844712261        2.54202300250786
H           -8.07759631093716       -4.79183967608631        2.53531787762626
H           -6.24409669858906       -4.64952828426618        4.28173963626807
H           -7.44665124227733       -4.48542208219878        5.55567959239845
H           -6.18509046981243       -3.26888447297175        5.39175287851860
H           -5.00167220133330       -2.93377114994230        3.45456752424331
H           -3.87244232278401       -1.62235114841873        1.79878028099462
H           -8.75016130302725       -1.54421004802646        1.98899477637688
H           -9.40208395978304        0.49037098808802        1.50491122912465
H           -9.41345789958905        1.56802792998516        0.11432583060234
H           -8.13854330062611        1.70697940210197        1.32503574043168
H           -8.14337111437971       -1.69471458321254       -1.30974302658015
H           -9.40550028528110       -0.47630334920537       -1.48730929213190
H           -9.41587209124365       -1.55395576026509       -0.09670511875982
H           -8.75154732812699        1.55748798894787       -1.97247213668598
H           -9.16373662040319        2.76844373276231       -5.49610337040871
H           -9.33897529800934        1.66333556430481       -4.13608323148398
H           -7.98277367813675        1.47915396845241       -5.24532406369917
H           -8.07479262357388        4.80427208670189       -2.52000190239046
H           -9.39630657459251        3.63919022775475       -2.52400536419711
H           -9.21449461476634        4.76203735631605       -3.86856128142596
H           -6.19036537774033        3.27820222798827       -5.38007279865166
H           -7.45030485156120        4.49674291336186       -5.54159741636895
H           -6.24501546900022        4.65898414949853       -4.27000848897205
H           -5.00372799363585        2.94143835656596       -3.44505153732051
H           -3.87336645915058        1.62826386863999       -1.79142727514313
H            3.86997744793331       -1.62877729272083       -1.79829740099394
H            4.99720523392316       -2.94229732941228       -3.45378642286153
H            6.17986754798255       -3.28003793637039       -5.39080128332293
H            7.43981076221911       -4.49828308469851       -5.55444495183320
H            6.23726459474144       -4.66029614746637       -4.28022370604317
H            9.39222666982216       -3.63885589325139       -2.54168147920247
H            9.20763727741640       -4.76230733757658       -3.88533850693863
H            8.07106121803890       -4.80431909912725       -2.53413757495155
H            9.15280513538150       -2.76917268449314       -5.51331441445499
H            7.97176462373239       -1.48033327563329       -5.26058611843739
H            9.33036349212414       -1.66341890211287       -4.15410487559558
H            8.74779615664434       -1.55779703213946       -1.98879847629433
H            8.14098146808962       -1.70671249133413        1.31003407602838
H            9.41356508033484       -1.56812134729113        0.09683469385974
H            9.40494150041787       -0.49013910274454        1.48718980945231
H            8.14093573178456        1.69439324261646       -1.32550877166445
H            9.40275747724780        0.47595992722982       -1.50510802328469
H            9.41565664651135        1.55392779988706       -0.11477129638959
H            8.75390978488038        1.54450705438535        1.97219945030444
H            9.22227365223664        4.74819554480517        3.86797518506548
H            8.08325686739625        4.79198377242680        2.51888770411604
H            9.40262197790438        3.62446894257478        2.52397465349160
H            6.19503505929243        3.27063276065118        5.37908870703355
H            7.45716318851636        4.48693123018000        5.54035037206377
H            6.25247696572875        4.65078980240828        4.26838758736966
H            7.98385716208639        1.46813623387736        5.24550270543522
H            9.34066728997741        1.64910423158226        4.13648158523954
H            9.16738370230387        2.75512409841058        5.49602821835646
H            5.00821140507765        2.93464271340964        3.44434995372395
H            3.87584998260196        1.62285631520373        1.79099106951528

          :  Hamiltonian                  GFN2-xTB          :
         :: gradient norm              0.000068143143 Eh/a0 ::
         :: HOMO-LUMO gap              1.330183920206 eV    ::
         :: SCC energy              -201.420395838462 Eh    ::
         :: -> dispersion             -0.168066959680 Eh    ::
         :: repulsion energy           2.790597398337 Eh    ::

    * Orbital Energies and Occupations

         #    Occupation            Energy/Eh            Energy/eV
      -------------------------------------------------------------
         1        2.0000           -0.8567104             -23.3123
       ...           ...                  ...                  ...
       167        2.0000           -0.4156287             -11.3098
       168        2.0000           -0.4087751             -11.1233
       169        2.0000           -0.4085313             -11.1167
       170        2.0000           -0.4075404             -11.0897
       171        2.0000           -0.4075111             -11.0889
       172        2.0000           -0.4004211             -10.8960
       173        2.0000           -0.4004198             -10.8960
       174        2.0000           -0.3984068             -10.8412
       175        2.0000           -0.3984065             -10.8412
       176        2.0000           -0.3944680             -10.7340
       177        2.0000           -0.3944624             -10.7339
       178        2.0000           -0.3557998              -9.6818
       179        2.0000           -0.3545586              -9.6480 (HOMO)
       180                         -0.3056752              -8.3178 (LUMO)
       181                         -0.2781616              -7.5692
       182                         -0.2777110              -7.5569
       183                         -0.2714707              -7.3871
       184                         -0.2265686              -6.1652
       185                         -0.2265680              -6.1652
       186                         -0.2218076              -6.0357
       187                         -0.2217254              -6.0335
       188                         -0.2208028              -6.0084
       189                         -0.2208023              -6.0083
       190                         -0.1970919              -5.3631
       ...                                ...                  ...
       332                          0.6681285              18.1807
      -------------------------------------------------------------
                  HL-Gap            0.0488834 Eh            1.3302 eV

     #   Z          covCN         q      C6AA      α(0)
     1   6 C        3.762    -0.106    22.564     6.771
     2   6 C        3.903     0.026    20.079     6.369
     3   6 C        3.762    -0.105    22.559     6.771
     4   6 C        3.761    -0.109    22.620     6.780
     5   6 C        2.972     0.001    28.004     8.680
     6   6 C        2.926    -0.040    28.990     8.830
     7   6 C        2.923    -0.055    29.356     8.885
     8   6 C        2.928     0.056    26.755     8.483
     9   6 C        2.979    -0.009    28.244     8.718
    10   6 C        2.938    -0.041    29.022     8.835
    11   6 C        3.910     0.022    20.143     6.379
    12   6 C        3.761    -0.103    22.523     6.765
    13   6 C        3.761    -0.103    22.523     6.765
    14   6 C        2.979    -0.009    28.244     8.718
    15   6 C        2.938    -0.041    29.022     8.835
    16   6 C        2.972     0.001    28.004     8.680
    17   6 C        3.903     0.026    20.079     6.369
    18   6 C        3.762    -0.106    22.564     6.771
    19   6 C        3.762    -0.105    22.559     6.771
    20   6 C        3.761    -0.109    22.620     6.780
    21   6 C        2.926    -0.040    28.990     8.830
    22   6 C        2.923    -0.055    29.356     8.885
    23   6 C        2.928     0.056    26.755     8.483
    24   7 N        2.751    -0.042    22.048     6.974
    25   6 C        2.924     0.045    26.983     8.519
    26   6 C        2.781     0.138    24.976     8.186
    27   9 F        0.787    -0.172    10.947     3.908
    28   6 C        2.781     0.150    24.734     8.146
    29   9 F        0.787    -0.173    10.961     3.911
    30   6 C        2.974    -0.011    28.293     8.725
    31   6 C        2.974    -0.011    28.293     8.725
    32   6 C        2.781     0.150    24.734     8.146
    33   9 F        0.787    -0.173    10.961     3.911
    34   6 C        2.781     0.138    24.976     8.186
    35   9 F        0.787    -0.172    10.948     3.908
    36   6 C        2.924     0.045    26.983     8.519
    37   7 N        2.751    -0.042    22.048     6.974
    38   6 C        2.928     0.056    26.755     8.483
    39   6 C        2.923    -0.055    29.356     8.885
    40   6 C        2.926    -0.040    28.990     8.830
    41   6 C        2.972     0.001    28.004     8.680
    42   6 C        3.903     0.026    20.079     6.369
    43   6 C        3.761    -0.109    22.620     6.780
    44   6 C        3.762    -0.105    22.559     6.771
    45   6 C        3.762    -0.106    22.564     6.771
    46   6 C        2.938    -0.041    29.022     8.835
    47   6 C        2.979    -0.009    28.244     8.718
    48   6 C        3.910     0.022    20.143     6.379
    49   6 C        3.761    -0.103    22.523     6.765
    50   6 C        3.761    -0.103    22.523     6.765
    51   6 C        2.979    -0.009    28.244     8.718
    52   6 C        2.938    -0.041    29.022     8.835
    53   6 C        2.972     0.001    28.004     8.680
    54   6 C        3.903     0.026    20.079     6.369
    55   6 C        3.762    -0.105    22.559     6.771
    56   6 C        3.761    -0.109    22.620     6.780
    57   6 C        3.762    -0.106    22.564     6.771
    58   6 C        2.926    -0.040    28.990     8.830
    59   6 C        2.923    -0.055    29.356     8.885
    60   6 C        2.928     0.056    26.755     8.483
    61   6 C        2.781     0.138    24.976     8.186
    62   9 F        0.787    -0.172    10.948     3.908
    63   6 C        2.781     0.150    24.734     8.146
    64   9 F        0.787    -0.173    10.961     3.911
    65   6 C        2.781     0.150    24.734     8.146
    66   9 F        0.787    -0.173    10.961     3.911
    67   6 C        2.781     0.138    24.976     8.186
    68   9 F        0.787    -0.172    10.947     3.908
    69   1 H        0.925     0.037     2.486     2.466
    70   1 H        0.925     0.035     2.517     2.481
    71   1 H        0.925     0.036     2.508     2.476
    72   1 H        0.925     0.037     2.483     2.464
    73   1 H        0.925     0.035     2.520     2.483
    74   1 H        0.925     0.034     2.528     2.486
    75   1 H        0.925     0.036     2.503     2.474
    76   1 H        0.925     0.036     2.496     2.471
    77   1 H        0.925     0.037     2.483     2.464
    78   1 H        0.926     0.041     2.439     2.442
    79   1 H        0.926     0.019     2.752     2.594
    80   1 H        0.926     0.037     2.495     2.470
    81   1 H        0.925     0.040     2.449     2.447
    82   1 H        0.925     0.040     2.454     2.450
    83   1 H        0.925     0.035     2.511     2.478
    84   1 H        0.925     0.035     2.511     2.478
    85   1 H        0.925     0.040     2.449     2.447
    86   1 H        0.925     0.040     2.454     2.450
    87   1 H        0.926     0.037     2.495     2.470
    88   1 H        0.925     0.037     2.486     2.466
    89   1 H        0.925     0.035     2.517     2.481
    90   1 H        0.925     0.036     2.508     2.476
    91   1 H        0.925     0.034     2.528     2.486
    92   1 H        0.925     0.035     2.520     2.483
    93   1 H        0.925     0.037     2.483     2.464
    94   1 H        0.925     0.037     2.483     2.464
    95   1 H        0.925     0.036     2.496     2.471
    96   1 H        0.925     0.036     2.503     2.474
    97   1 H        0.926     0.041     2.439     2.442
    98   1 H        0.926     0.019     2.752     2.594
    99   1 H        0.926     0.019     2.752     2.594
   100   1 H        0.926     0.041     2.439     2.442
   101   1 H        0.925     0.037     2.483     2.464
   102   1 H        0.925     0.036     2.496     2.471
   103   1 H        0.925     0.036     2.503     2.474
   104   1 H        0.925     0.035     2.520     2.483
   105   1 H        0.925     0.037     2.483     2.464
   106   1 H        0.925     0.034     2.528     2.486
   107   1 H        0.925     0.037     2.486     2.466
   108   1 H        0.925     0.036     2.508     2.476
   109   1 H        0.925     0.035     2.517     2.481
   110   1 H        0.926     0.037     2.495     2.470
   111   1 H        0.925     0.035     2.511     2.478
   112   1 H        0.925     0.040     2.454     2.450
   113   1 H        0.925     0.040     2.449     2.447
   114   1 H        0.925     0.035     2.511     2.478
   115   1 H        0.925     0.040     2.449     2.447
   116   1 H        0.925     0.040     2.454     2.450
   117   1 H        0.926     0.037     2.495     2.470
   118   1 H        0.925     0.037     2.483     2.464
   119   1 H        0.925     0.034     2.528     2.486
   120   1 H        0.925     0.035     2.520     2.483
   121   1 H        0.925     0.037     2.483     2.464
   122   1 H        0.925     0.036     2.496     2.471
   123   1 H        0.925     0.036     2.503     2.474
   124   1 H        0.925     0.036     2.508     2.476
   125   1 H        0.925     0.035     2.517     2.481
   126   1 H        0.925     0.037     2.486     2.466
   127   1 H        0.926     0.041     2.439     2.442
   128   1 H        0.926     0.019     2.752     2.594

molecular dipole:
                 x           y           z       tot (Debye)
 q only:        0.000       0.000      -0.000
   full:        0.000       0.000       0.000       0.000

 projected vibrational frequencies (cm⁻¹)
eigval :       -0.00    -0.00    -0.00     0.00     0.00     0.00
eigval :        6.16     7.55     7.87    14.68    16.78    22.13
eigval :       25.55    26.42    29.24    30.76    35.32    35.93
eigval :       43.83    49.73    52.52    56.41    64.86    72.15
eigval :       82.88    84.26    85.81   101.74   105.26   108.15
eigval :      109.26   113.51   117.08   121.69   124.51   128.25
eigval :      131.46   132.50   154.20   154.64   163.91   164.63
eigval :      166.97   170.04   170.07   173.91   173.99   183.80
eigval :      183.80   202.79   203.00   203.43   206.55   216.36
eigval :      217.97   217.97   219.94   227.12   234.13   234.44
eigval :      250.85   251.59   256.16   260.90   262.68   266.92
eigval :      273.76   274.91   277.32   277.84   296.54   296.62
eigval :      306.95   308.34   311.44   311.48   312.00   312.48
eigval :      325.57   328.08   343.73   344.11   344.13   344.66
eigval :      348.46   354.82   354.96   355.21   355.22   366.14
eigval :      367.09   369.11   388.49   398.57   400.66   410.59
eigval :      411.82   412.65   420.28   421.27   421.96   424.82
eigval :      433.88   439.61   442.93   443.12   446.27   457.89
eigval :      458.92   464.96   465.52   476.53   482.96   483.20
eigval :      484.79   494.23   494.86   500.88   522.16   537.14
eigval :      571.68   571.96   582.79   583.07   583.37   584.47
eigval :      587.72   587.86   599.74   610.53   610.62   624.27
eigval :      630.21   630.25   647.63   650.83   669.80   671.19
eigval :      686.96   688.65   688.77   694.69   696.06   696.20
eigval :      698.06   713.93   741.35   744.27   769.62   818.70
eigval :      821.06   821.07   821.11   822.08   827.83   850.26
eigval :      850.31   892.59   892.87   894.16   894.18   900.59
eigval :      902.86   905.74   907.60   913.05   913.05   913.67
eigval :      913.74   936.44   938.91   951.26   951.77   955.16
eigval :      957.70   957.72   960.35   960.37   960.37   960.37
eigval :      962.66   962.77   962.82   962.85   962.89   963.06
eigval :      963.13   963.24   971.46   972.85  1014.62  1014.62
eigval :     1035.13  1035.16  1035.16  1035.18  1035.69  1035.94
eigval :     1035.94  1036.39  1045.68  1074.57  1097.62  1097.83
eigval :     1100.35  1109.93  1110.23  1151.24  1156.99  1157.00
eigval :     1160.97  1160.98  1165.62  1165.82  1182.76  1182.79
eigval :     1188.25  1208.35  1214.51  1228.17  1228.17  1228.20
eigval :     1228.20  1228.56  1236.22  1236.24  1236.40  1236.62
eigval :     1237.07  1244.46  1261.78  1261.94  1268.01  1268.02
eigval :     1268.65  1271.08  1282.53  1283.08  1290.31  1292.35
eigval :     1303.07  1304.39  1310.81  1311.19  1325.31  1325.42
eigval :     1331.82  1331.94  1346.68  1346.93  1375.42  1401.49
eigval :     1401.50  1403.18  1403.19  1403.33  1403.33  1405.85
eigval :     1405.88  1406.10  1406.11  1414.17  1414.54  1419.64
eigval :     1419.72  1421.83  1421.84  1429.73  1429.75  1429.76
eigval :     1429.76  1447.02  1448.56  1453.42  1460.73  1477.18
eigval :     1486.16  1486.17  1488.40  1488.40  1489.01  1489.01
eigval :     1492.13  1492.13  1492.37  1492.38  1494.88  1494.88
eigval :     1495.64  1495.65  1496.26  1496.86  1499.18  1499.47
eigval :     1501.81  1501.82  1503.74  1503.75  1504.59  1504.77
eigval :     1506.18  1506.18  1507.84  1508.53  1514.36  1514.36
eigval :     1514.37  1514.37  1519.71  1519.72  1519.81  1519.84
eigval :     1521.80  1533.12  1552.99  1563.90  1570.60  1570.62
eigval :     1585.11  1585.14  1599.90  1599.90  1606.05  1606.09
eigval :     3023.15  3023.15  3023.17  3023.18  3024.72  3024.72
eigval :     3024.73  3024.73  3028.73  3028.73  3028.75  3028.75
eigval :     3030.86  3030.86  3031.62  3031.62  3031.74  3031.89
eigval :     3032.86  3032.89  3033.26  3033.26  3033.56  3033.57
eigval :     3037.59  3037.64  3037.66  3037.67  3040.24  3040.26
eigval :     3040.39  3040.39  3040.45  3040.46  3043.38  3043.39
eigval :     3045.77  3045.77  3045.85  3045.86  3049.31  3049.31
eigval :     3049.38  3049.42  3050.56  3050.56  3054.86  3054.93
eigval :     3084.45  3084.46  3084.87  3084.88  3098.11  3098.11
eigval :     3098.48  3098.57  3121.77  3121.77  3122.02  3122.04

   temp. (K)  partition function   enthalpy   heat capacity  entropy
                                   cal/mol     cal/K/mol   cal/K/mol   J/K/mol
 298.15  VIB  0.854E+33            41617.733    245.803    261.207
         ROT  0.785E+08              888.752      2.981     39.106
         INT  0.671E+41            42506.485    248.783    300.313
         TR   0.278E+29             1481.254      4.968     46.367
         TOT                       43987.7389   253.7516   346.6799  1450.5089

       T/K    H(0)-H(T)+PV         H(T)/Eh          T*S/Eh         G(T)/Eh
   ------------------------------------------------------------------------
    298.15    0.700989E-01    0.109513E+01    0.164719E+00    0.930412E+00
   ------------------------------------------------------------------------

         :::::::::::::::::::::::::::::::::::::::::::::::::::::
         ::                  THERMODYNAMIC                  ::
         :::::::::::::::::::::::::::::::::::::::::::::::::::::
         :: total free energy        -197.699386218968 Eh   ::
         ::.................................................::
         :: total energy             -198.629798440102 Eh   ::
         :: zero point energy           1.025032127784 Eh   ::
         :: G(RRHO) w/o ZPVE           -0.094619906650 Eh   ::
         :: G(RRHO) contrib.            0.930412221134 Eh   ::
         :::::::::::::::::::::::::::::::::::::::::::::::::::::

           -------------------------------------------------
          | TOTAL ENERGY             -198.629798440102 Eh   |
          | TOTAL ENTHALPY           -197.534667388345 Eh   |
          | TOTAL FREE ENERGY        -197.699386218968 Eh   |
          | GRADIENT NORM               0.000068143277 Eh/α |
          | HOMO-LUMO GAP               1.330184036747 eV   |
           -------------------------------------------------

 * finished run on 2025/09/04 at 06:47:55.306
