   * xtb version 6.7.1 (edcfbbe) compiled by 'albert@albert-system' on 2024-07-22

   ID    Z sym.   atoms
    1    6 C      1-9, 11-14, 18-20, 22-35, 37-57
    2    7 N      10, 21, 36
    3   16 S      15
    4    8 O      16, 17
    5    1 H      58-94

          program call               : xtb data2507/toluene/CZ-DPS-DMAC/CZ-DPS-DMAC_toluene_T1_crest.xyz --gfn 2 --uhf 2 --gbsa toluene --ohess vtight --parallel 40 --molden --ceasefiles --namespace data2507/toluene/CZ-DPS-DMAC/CZ-DPS-DMAC_toluene_T1_finalOpt
      * Solvation model:               GBSA
        Solvent                        toluene
        Solvent mass                       9.2140E+01 g/mol
          :  Hamiltonian                  GFN2-xTB          :
 * total energy  :  -148.2754585 Eh     change       -0.1421370E-08 Eh
 * total energy  :  -148.2757544 Eh     change       -0.2958986E-03 Eh
 * total energy  :  -148.2759655 Eh     change       -0.2111839E-03 Eh
 * total energy  :  -148.2760174 Eh     change       -0.5182994E-04 Eh
 * total energy  :  -148.2761189 Eh     change       -0.1015693E-03 Eh
 * total energy  :  -148.2762157 Eh     change       -0.9673488E-04 Eh
 * total energy  :  -148.2763213 Eh     change       -0.1056575E-03 Eh
 * total energy  :  -148.2764165 Eh     change       -0.9518590E-04 Eh
 * total energy  :  -148.2764845 Eh     change       -0.6800105E-04 Eh
 * total energy  :  -148.2765417 Eh     change       -0.5714108E-04 Eh
 * total energy  :  -148.2782196 Eh     change       -0.5865260E-06 Eh
 * total energy  :  -148.2782201 Eh     change       -0.4623568E-06 Eh
 * total energy  :  -148.2782206 Eh     change       -0.5232902E-06 Eh
 * total energy  :  -148.2782212 Eh     change       -0.6209267E-06 Eh
 * total energy  :  -148.2782219 Eh     change       -0.6658705E-06 Eh
 * total energy  :  -148.2782227 Eh     change       -0.8379932E-06 Eh
 * total energy  :  -148.2782227 Eh     change        0.2003958E-08 Eh
 * total energy  :  -148.2782227 Eh     change        0.3435284E-07 Eh
 * total energy  :  -148.2782227 Eh     change       -0.9929323E-08 Eh
   *** GEOMETRY OPTIMIZATION CONVERGED AFTER 96 ITERATIONS ***

 final structure:
================
94
 xtb: 6.7.1 (edcfbbe)
C            5.61230986986445        1.99381124680887       -2.29978822537908
C            4.92381383178406        2.68102767357694       -1.10260771150383
C            5.31307978428407        4.17238581178474       -1.05249040037178
C            3.42694870249984        2.56944746386926       -1.28521789339566
C            2.82443390860764        3.13999344249154       -2.39859868122485
C            1.46358019213068        3.04199032999055       -2.62535943295312
C            0.66991886388358        2.33089981552399       -1.73540869976892
C            1.23826956761555        1.74931601957026       -0.62632086404571
C            2.61369603719843        1.87977718236840       -0.36791781069639
N            3.14824259494522        1.32153798246523        0.77348471172184
C            2.27566653207700        0.65431869423009        1.67533279108454
C            2.26963368850013       -0.74911359797350        1.74369741811379
C            1.35868647599916       -1.39061864284120        2.54006132767295
C            0.42979806330806       -0.64915463654271        3.29470532089284
S           -1.07929348116483       -1.43224894822333        3.74492221945536
O           -1.82783656477372       -0.59326218488542        4.66853008483576
O           -0.84133185910767       -2.80701243589462        4.15819642213299
C           -1.83428885954625       -1.41232869334178        2.14900081815643
C           -1.40572258764778       -2.37801822178394        1.22560383350012
C           -1.56920406434162       -2.15635355581909       -0.12666846324326
N           -1.10679370788410       -3.10576645763684       -1.05242605967724
C           -1.41358836286970       -4.44843769549784       -1.05295330473567
C           -2.28029306678949       -5.15413380362850       -0.22841449858448
C           -2.42938522783687       -6.50886590292044       -0.46116191066518
C           -1.74422885749423       -7.14823929853036       -1.49266374184670
C           -0.89323047572899       -6.44648893360818       -2.32831328343253
C           -0.72469539569579       -5.08647564170293       -2.11336600375005
C            0.05029372198675       -4.06500835511640       -2.76621010159245
C            0.93557640279936       -4.06969065319896       -3.83428019249024
C            1.55050429419733       -2.88196117508821       -4.19005670501595
C            1.29912916232842       -1.70392754161566       -3.48986479275910
C            0.41823850252095       -1.67297587516986       -2.42439004556646
C           -0.21584926083795       -2.85814955657979       -2.07457059768450
C           -2.16103713278008       -0.97306381698245       -0.58982053624800
C           -2.60083132489418       -0.01751220611552        0.34185107910949
N           -3.21125477713363        1.15772618185880       -0.12479157260875
C           -4.25656062152739        1.22177720414575       -1.02236115943591
C           -4.97317434028986        0.19254446466374       -1.61958876807947
C           -6.00140673346042        0.53573784417016       -2.47787575605170
C           -6.31946941546944        1.86758607325276       -2.73486434243900
C           -5.62364615225449        2.89707388268558       -2.12627926409180
C           -4.58815962772219        2.57754671910201       -1.26019522522365
C           -3.68992707303614        3.36253923945293       -0.45586689013262
C           -3.51303803831198        4.72623473208808       -0.27231959925084
C           -2.51580565437497        5.15486559862941        0.58560417707894
C           -1.69446143981063        4.24280273485647        1.24472686514081
C           -1.85080028649905        2.87941066029604        1.07776760035051
C           -2.86344782646803        2.44290386589510        0.23388900374279
C           -2.43072934381120       -0.22653943730225        1.69620220758372
C            0.46884568673035        0.75558993788580        3.25756664335887
C            1.38488803785657        1.39958080723472        2.46813830633396
C            4.49359893099774        1.39045325569470        1.05744426724490
C            4.97367108266319        0.83963697190556        2.25756149741104
C            6.31457197950285        0.87368736831578        2.56113779575193
C            7.20791657845312        1.46486429714570        1.67737629267035
C            6.73762156755550        2.03347989564599        0.50744273859744
C            5.39004663281291        2.01812719852712        0.17394248322778
H            5.33534228303016        0.94187018213560       -2.33418330744054
H            6.69226818727615        2.06331093067790       -2.21315772326849
H            5.31300228078965        2.46007441210117       -3.23347757808131
H            5.01539343302748        4.67862485281027       -1.96541776237758
H            4.82032582790574        4.65746676744560       -0.21221324870509
H            6.38616622432588        4.28612621654250       -0.93448046880307
H            3.42853132982934        3.67706517696788       -3.11252278037805
H            1.02482167365786        3.50470776908033       -3.49572279806942
H           -0.39030011833245        2.23082927914716       -1.90912959138585
H            0.62408571215887        1.18373841311849        0.05558170645058
H            2.97474124231849       -1.31046471183149        1.14814866429192
H            1.32131355989755       -2.46661212792201        2.60317255819194
H           -0.93114410347078       -3.27097778690981        1.59913624342413
H           -2.81642768156263       -4.66050009228372        0.56819381565004
H           -3.09271669970802       -7.08252067381522        0.16918590259375
H           -1.88626459169655       -8.20836124872300       -1.64118926775536
H           -0.37260747890179       -6.94465920132152       -3.13203217954566
H            1.14312736648028       -4.98343706002845       -4.37005413129026
H            2.24329072655096       -2.86688285958180       -5.01823052496776
H            1.80482989944474       -0.79610679064361       -3.78288623704610
H            0.23724462951323       -0.76137674303518       -1.87671619501481
H           -2.27943335482244       -0.80084184081488       -1.64651894395974
H           -4.74370014387975       -0.84093532116044       -1.40999159509071
H           -6.57303158506056       -0.24625502790080       -2.95543858985348
H           -7.12874888843175        2.09586305871931       -3.41241039795996
H           -5.88266143533879        3.92783087623001       -2.31504125317838
H           -4.14047247056127        5.43546183256308       -0.79040750276409
H           -2.36532277964362        6.21219353909072        0.74521575164888
H           -0.91921313549694        4.60884273303458        1.90113055407209
H           -1.20850840518650        2.17620893862239        1.58514286292537
H           -2.76619415472062        0.49064302988876        2.42835237934085
H           -0.24067363053693        1.29594526671675        3.86575639605034
H            1.43106494689729        2.47836033966042        2.43797261443585
H            4.27542616314681        0.39145786850564        2.94634405921875
H            6.66516475042739        0.44286403262137        3.48646478946788
H            8.26220356040979        1.49152443830339        1.90559201440100
H            7.44485136086704        2.50207494284305       -0.15841203156003

          :  Hamiltonian                  GFN2-xTB          :
         :: gradient norm              0.000191171946 Eh/a0 ::
         :: HOMO-LUMO gap              0.304950486321 eV    ::
         :: SCC energy              -150.865951614379 Eh    ::
         :: -> dispersion             -0.146080619842 Eh    ::
         :: -> Gsolv                  -0.073935962041 Eh    ::
         :: repulsion energy           2.587728908122 Eh    ::

    * Orbital Energies and Occupations

         #    Occupation            Energy/Eh            Energy/eV
      -------------------------------------------------------------
         1        2.0000           -0.7507997             -20.4303
       ...           ...                  ...                  ...
       126        2.0000           -0.4125324             -11.2256
       127        2.0000           -0.4122483             -11.2178
       128        2.0000           -0.4120949             -11.2137
       129        2.0000           -0.4115412             -11.1986
       130        2.0000           -0.4064001             -11.0587
       131        2.0000           -0.3996453             -10.8749
       132        2.0000           -0.3913895             -10.6503
       133        2.0000           -0.3859392             -10.5019
       134        2.0000           -0.3858646             -10.4999
       135        1.8861           -0.3698266             -10.0635
       136        1.7038           -0.3686994             -10.0328
       137        1.4101           -0.3675320             -10.0011
       138        0.9968           -0.2637842              -7.1779 (HOMO)
       139        0.0024           -0.2525773              -6.8730 (LUMO)
       140        0.0008           -0.2515359              -6.8446
       141        0.0000           -0.2473569              -6.7309
       142                         -0.2386968              -6.4953
       143                         -0.2378376              -6.4719
       144                         -0.2369200              -6.4469
       145                         -0.2343590              -6.3772
       146                         -0.2295531              -6.2465
       147                         -0.2294937              -6.2448
       148                         -0.2265687              -6.1652
       149                         -0.2111150              -5.7447
       ...                                ...                  ...
       270                          1.1609535              31.5912
      -------------------------------------------------------------
                  HL-Gap            0.0112070 Eh            0.3050 eV

     #   Z          covCN         q      C6AA      α(0)
     1   6 C        3.761    -0.109    22.633     6.782
     2   6 C        3.909     0.025    20.092     6.371
     3   6 C        3.761    -0.110    22.641     6.783
     4   6 C        2.978     0.003    27.954     8.673
     5   6 C        2.924    -0.031    28.777     8.797
     6   6 C        2.917    -0.027    28.678     8.782
     7   6 C        2.917    -0.024    28.599     8.769
     8   6 C        2.922    -0.043    29.065     8.841
     9   6 C        2.931     0.061    26.639     8.464
    10   7 N        2.754     0.002    21.237     6.844
    11   6 C        2.929     0.022    27.506     8.601
    12   6 C        2.914    -0.041    29.018     8.833
    13   6 C        2.965    -0.043    29.058     8.842
    14   6 C        2.964    -0.109    30.740     9.094
    15  16 S        3.868     0.873   110.380    17.683
    16   8 O        0.860    -0.593    25.956     6.831
    17   8 O        0.860    -0.596    26.028     6.840
    18   6 C        2.963    -0.106    30.661     9.082
    19   6 C        2.972    -0.056    29.375     8.890
    20   6 C        2.908     0.060    26.651     8.465
    21   7 N        2.804    -0.024    21.716     6.921
    22   6 C        3.076     0.048    26.842     8.494
    23   6 C        2.909    -0.044    29.097     8.845
    24   6 C        2.923    -0.032    28.805     8.801
    25   6 C        2.920    -0.036    28.901     8.816
    26   6 C        2.912    -0.031    28.780     8.797
    27   6 C        3.066    -0.014    28.301     8.723
    28   6 C        3.065    -0.014    28.288     8.721
    29   6 C        2.912    -0.031    28.771     8.795
    30   6 C        2.920    -0.036    28.903     8.816
    31   6 C        2.923    -0.033    28.816     8.803
    32   6 C        2.909    -0.046    29.143     8.852
    33   6 C        3.076     0.048    26.844     8.495
    34   6 C        2.921    -0.087    30.183     9.009
    35   6 C        2.908     0.059    26.685     8.470
    36   7 N        2.802    -0.025    21.734     6.924
    37   6 C        3.075     0.048    26.846     8.495
    38   6 C        2.909    -0.045    29.124     8.849
    39   6 C        2.923    -0.032    28.803     8.801
    40   6 C        2.920    -0.036    28.903     8.816
    41   6 C        2.912    -0.031    28.773     8.796
    42   6 C        3.065    -0.014    28.292     8.722
    43   6 C        3.066    -0.014    28.293     8.722
    44   6 C        2.912    -0.031    28.776     8.796
    45   6 C        2.920    -0.036    28.906     8.817
    46   6 C        2.923    -0.032    28.792     8.799
    47   6 C        2.909    -0.046    29.141     8.852
    48   6 C        3.075     0.048    26.856     8.497
    49   6 C        2.960    -0.055    29.361     8.888
    50   6 C        2.962    -0.042    29.041     8.839
    51   6 C        2.915    -0.042    29.032     8.836
    52   6 C        2.929     0.061    26.632     8.463
    53   6 C        2.922    -0.044    29.098     8.846
    54   6 C        2.917    -0.026    28.642     8.776
    55   6 C        2.917    -0.027    28.686     8.783
    56   6 C        2.924    -0.031    28.785     8.798
    57   6 C        2.978     0.003    27.963     8.674
    58   1 H        0.925     0.040     2.452     2.449
    59   1 H        0.925     0.055     2.256     2.349
    60   1 H        0.925     0.056     2.252     2.347
    61   1 H        0.925     0.056     2.251     2.346
    62   1 H        0.925     0.039     2.457     2.451
    63   1 H        0.925     0.055     2.259     2.350
    64   1 H        0.926     0.057     2.236     2.339
    65   1 H        0.926     0.050     2.320     2.382
    66   1 H        0.926     0.041     2.430     2.438
    67   1 H        0.926     0.040     2.449     2.447
    68   1 H        0.926     0.043     2.410     2.428
    69   1 H        0.926     0.030     2.589     2.516
    70   1 H        0.926     0.037     2.484     2.465
    71   1 H        0.926     0.031     2.568     2.506
    72   1 H        0.926     0.036     2.508     2.476
    73   1 H        0.926     0.038     2.475     2.460
    74   1 H        0.926     0.042     2.425     2.435
    75   1 H        0.926     0.040     2.443     2.444
    76   1 H        0.926     0.040     2.452     2.449
    77   1 H        0.926     0.040     2.444     2.445
    78   1 H        0.926     0.038     2.471     2.458
    79   1 H        0.926     0.049     2.330     2.387
    80   1 H        0.926     0.036     2.497     2.471
    81   1 H        0.926     0.038     2.479     2.462
    82   1 H        0.926     0.038     2.477     2.461
    83   1 H        0.926     0.041     2.438     2.442
    84   1 H        0.926     0.041     2.434     2.440
    85   1 H        0.926     0.038     2.471     2.458
    86   1 H        0.926     0.036     2.506     2.476
    87   1 H        0.926     0.033     2.537     2.491
    88   1 H        0.926     0.039     2.465     2.455
    89   1 H        0.926     0.033     2.548     2.496
    90   1 H        0.926     0.044     2.399     2.422
    91   1 H        0.926     0.046     2.369     2.407
    92   1 H        0.926     0.045     2.378     2.412
    93   1 H        0.926     0.049     2.332     2.388
    94   1 H        0.926     0.056     2.248     2.345

molecular dipole:
                 x           y           z       tot (Debye)
 q only:        4.111       3.355      -5.862
   full:        3.882       3.099      -5.327      18.514

 projected vibrational frequencies (cm⁻¹)
eigval :       -0.00    -0.00     0.00     0.00     0.00     0.00
eigval :       -8.27     7.85    14.09    19.24    22.41    22.97
eigval :       25.98    37.23    43.36    45.24    59.17    67.56
eigval :       75.81    90.08    95.29    98.86   106.25   111.06
eigval :      114.09   120.99   130.84   139.93   141.93   144.93
eigval :      159.39   180.83   185.94   188.90   201.31   209.51
eigval :      214.62   224.20   234.60   242.82   247.09   264.95
eigval :      269.68   271.13   291.56   301.06   305.41   309.52
eigval :      316.70   323.93   335.35   345.84   367.47   371.16
eigval :      378.26   380.50   392.48   394.72   401.80   405.10
eigval :      408.04   421.47   422.38   430.76   433.94   435.81
eigval :      447.85   449.71   465.10   494.19   500.31   501.70
eigval :      513.84   515.66   517.10   525.40   537.13   537.35
eigval :      542.29   542.41   547.24   556.38   573.10   577.45
eigval :      584.99   585.30   590.49   601.52   619.93   624.97
eigval :      629.67   644.35   647.91   652.43   673.21   673.47
eigval :      684.27   690.48   704.89   708.92   709.35   740.43
eigval :      746.63   750.76   762.88   764.35   766.41   769.52
eigval :      771.28   773.82   775.52   778.45   779.54   782.05
eigval :      819.13   825.18   835.10   854.24   870.69   872.10
eigval :      872.26   873.61   874.35   878.11   888.37   894.27
eigval :      896.03   896.24   902.74   904.06   905.08   905.30
eigval :      906.19   908.24   916.07   916.69   920.41   920.95
eigval :      922.28   923.36   925.44   925.87   927.29   935.68
eigval :      958.39   975.32   982.13  1008.98  1009.77  1010.72
eigval :     1024.48  1038.64  1056.65  1065.21  1066.75  1067.91
eigval :     1070.00  1070.92  1079.89  1097.36  1103.65  1107.82
eigval :     1108.88  1113.52  1117.78  1135.85  1139.97  1141.54
eigval :     1142.45  1157.27  1158.50  1162.65  1171.21  1173.65
eigval :     1176.30  1176.80  1177.72  1178.86  1180.59  1193.28
eigval :     1201.04  1208.13  1225.11  1229.40  1230.71  1231.39
eigval :     1231.92  1238.26  1242.55  1251.73  1281.97  1284.03
eigval :     1288.59  1290.48  1291.07  1297.23  1302.12  1306.58
eigval :     1325.18  1328.36  1333.39  1334.97  1335.76  1342.05
eigval :     1344.88  1355.54  1358.49  1371.14  1380.10  1385.60
eigval :     1396.01  1406.43  1409.47  1409.83  1411.84  1414.31
eigval :     1417.90  1424.01  1432.80  1434.29  1449.21  1458.30
eigval :     1461.03  1463.16  1468.30  1477.43  1479.43  1479.94
eigval :     1480.76  1488.31  1491.53  1493.89  1540.82  1552.36
eigval :     1560.16  1561.91  1564.71  1570.68  1575.94  1577.34
eigval :     1579.06  1581.38  1582.85  1590.34  1598.82  3029.84
eigval :     3032.37  3051.52  3053.66  3058.04  3062.13  3075.25
eigval :     3076.83  3077.09  3077.92  3078.35  3080.12  3082.55
eigval :     3084.01  3084.74  3087.02  3087.58  3089.02  3089.16
eigval :     3089.36  3091.98  3093.19  3094.17  3094.41  3095.89
eigval :     3096.49  3097.17  3097.69  3098.05  3101.36  3103.39
eigval :     3103.89  3104.97  3107.62  3110.37  3114.63  3116.64

   temp. (K)  partition function   enthalpy   heat capacity  entropy
                                   cal/mol     cal/K/mol   cal/K/mol   J/K/mol
 298.15  VIB  0.634E+22            27835.067    175.705    172.655
         ROT  0.102E+09              888.752      2.981     39.630
         INT  0.648E+30            28723.820    178.686    212.285
         TR   0.201E+29             1481.254      4.968     45.727
         TOT                       30205.0735   183.6540   258.0116  1079.5206

       T/K    H(0)-H(T)+PV         H(T)/Eh          T*S/Eh         G(T)/Eh
   ------------------------------------------------------------------------
    298.15    0.481348E-01    0.765851E+00    0.122590E+00    0.643262E+00
   ------------------------------------------------------------------------

         :::::::::::::::::::::::::::::::::::::::::::::::::::::
         ::                  THERMODYNAMIC                  ::
         :::::::::::::::::::::::::::::::::::::::::::::::::::::
         :: total free energy        -147.634960927891 Eh   ::
         ::.................................................::
         :: total energy             -148.278222703707 Eh   ::
         :: zero point energy           0.717716569769 Eh   ::
         :: G(RRHO) w/o ZPVE           -0.074454793953 Eh   ::
         :: G(RRHO) contrib.            0.643261775816 Eh   ::
         :::::::::::::::::::::::::::::::::::::::::::::::::::::

           -------------------------------------------------
          | TOTAL ENERGY             -148.278222703707 Eh   |
          | TOTAL ENTHALPY           -147.512371285411 Eh   |
          | TOTAL FREE ENERGY        -147.634960927891 Eh   |
          | GRADIENT NORM               0.000190986992 Eh/α |
          | HOMO-LUMO GAP               0.304956667818 eV   |
           -------------------------------------------------

 * finished run on 2025/07/19 at 12:11:32.507
