   * xtb version 6.7.1 (edcfbbe) compiled by 'albert@albert-system' on 2024-07-22

   ID    Z sym.   atoms
    1    6 C      1-9, 11-14, 18-20, 22-35, 37-57
    2    7 N      10, 21, 36
    3   16 S      15
    4    8 O      16, 17
    5    1 H      58-94

          program call               : xtb data2507/toluene/CZ-DPS-DMAC/CZ-DPS-DMAC_toluene_S0_finalOpt.xtbopt.xyz --gfn 2 --uhf 2 --gbsa toluene --ohess vtight --parallel 40 --molden --ceasefiles --namespace data2507/toluene/CZ-DPS-DMAC/CZ-DPS-DMAC_toluene_T1_preOpt
      * Solvation model:               GBSA
        Solvent                        toluene
        Solvent mass                       9.2140E+01 g/mol
          :  Hamiltonian                  GFN2-xTB          :
 * total energy  :  -148.2698053 Eh     change       -0.4692336E-07 Eh
 * total energy  :  -148.2717931 Eh     change       -0.1987850E-02 Eh
 * total energy  :  -148.2725779 Eh     change       -0.7847861E-03 Eh
 * total energy  :  -148.2727579 Eh     change       -0.1800204E-03 Eh
 * total energy  :  -148.2728929 Eh     change       -0.1350164E-03 Eh
 * total energy  :  -148.2729516 Eh     change       -0.5860588E-04 Eh
 * total energy  :  -148.2730182 Eh     change       -0.6666752E-04 Eh
 * total energy  :  -148.2730601 Eh     change       -0.4188214E-04 Eh
 * total energy  :  -148.2730894 Eh     change       -0.2931788E-04 Eh
 * total energy  :  -148.2731096 Eh     change       -0.2014963E-04 Eh
 * total energy  :  -148.2737148 Eh     change       -0.1282720E-05 Eh
 * total energy  :  -148.2737163 Eh     change       -0.1410445E-05 Eh
 * total energy  :  -148.2737175 Eh     change       -0.1256825E-05 Eh
 * total energy  :  -148.2737184 Eh     change       -0.9236215E-06 Eh
 * total energy  :  -148.2737193 Eh     change       -0.8292687E-06 Eh
 * total energy  :  -148.2737202 Eh     change       -0.9068694E-06 Eh
 * total energy  :  -148.2737211 Eh     change       -0.9599424E-06 Eh
 * total energy  :  -148.2737221 Eh     change       -0.9389561E-06 Eh
 * total energy  :  -148.2737221 Eh     change       -0.8680331E-08 Eh
   *** GEOMETRY OPTIMIZATION CONVERGED AFTER 122 ITERATIONS ***

 final structure:
================
94
 xtb: 6.7.1 (edcfbbe)
C            7.30812623952543        0.45869612898151        2.11069726549019
C            7.06709058868660        0.03087523598784        0.64868622488812
C            8.36705684095182        0.18221395745018       -0.16797302422905
C            6.65525222569062       -1.42295887558178        0.62132254655261
C            7.52127068671664       -2.39229549412848        1.10879542747762
C            7.21451859127090       -3.74025914306050        1.05800859508195
C            6.02031648503224       -4.14914587030852        0.47924637968076
C            5.13724229947454       -3.21198458479831       -0.00338657023798
C            5.42186329060811       -1.83777765099124        0.08656952589511
N            4.49761911014974       -0.92124281152373       -0.36983866549082
C            3.23635155068186       -1.38198753344567       -0.82152371013161
C            2.33002100284529       -1.97569295009246        0.08284227949913
C            1.09744004956183       -2.38700330904891       -0.34809164337052
C            0.73781986545170       -2.23485446068737       -1.69930911148820
S           -0.93259852626521       -2.46534903401295       -2.19164664817476
O           -1.47333435096389       -3.69387354549339       -1.62571815311648
O           -1.00825793280637       -2.34605894807414       -3.64113378011965
C           -1.83922460431618       -1.12156630450066       -1.43838054721230
C           -3.11181535698305       -1.36917446721427       -0.92269673804416
C           -3.75577383941949       -0.39070532669013       -0.18181250321129
N           -5.03983033243821       -0.62390466241745        0.32716490118890
C           -5.43441607061823       -1.74108758033540        1.03657071105897
C           -4.68900201725972       -2.83907668280823        1.44361939646367
C           -5.33392301270879       -3.82157517234176        2.17466346150167
C           -6.68302487931408       -3.71400767861634        2.50461132434917
C           -7.42561900165280       -2.61165033387480        2.12110482375068
C           -6.80078352979792       -1.61307970464948        1.38658969112043
C           -7.24459379050889       -0.35640313548704        0.84861395043430
C           -8.46528793783816        0.30506083306137        0.84421570023096
C           -8.55698366948222        1.52249672820592        0.19353978119756
C           -7.45632176469497        2.07281790812135       -0.45905426084680
C           -6.23028137996268        1.43151948328178       -0.46730215706109
C           -6.12462645515381        0.22155947986554        0.20357740724300
C           -3.12162253963475        0.83071779551387        0.07816311437328
C           -1.82621441608307        1.05095579861647       -0.41568150656091
N           -1.14715958073887        2.23118527240613       -0.07827708151804
C            0.06567229851311        2.27668355778337        0.57995064230589
C            0.86567311067650        1.23319170781919        1.02184571096966
C            2.02388265337844        1.55573219325008        1.70773826930185
C            2.37982758346761        2.88052955848873        1.94914377701475
C            1.58133699516181        3.92401438967905        1.51865413043543
C            0.40864609601411        3.62701354542012        0.83539847278602
C           -0.65612381345239        4.42627261599583        0.29571784544075
C           -0.88831477016278        5.79373667024138        0.22204666747077
C           -2.04428336462215        6.23763170976902       -0.39396481180218
C           -2.95974540195070        5.34030332344970       -0.94083384633441
C           -2.75063408008244        3.97413061803294       -0.87939561183241
C           -1.60096673200616        3.52154107747387       -0.24873619950936
C           -1.19180352504056        0.08353352083453       -1.17590972671837
C            1.64100465350591       -1.64878214932871       -2.60418021393340
C            2.87573185692852       -1.24212465954203       -2.17833301676233
C            4.77229966213529        0.43114389793496       -0.40005671354094
C            3.79928572935408        1.33088728687846       -0.86959566449236
C            4.05624782520994        2.68001412789797       -0.93891258747931
C            5.28515674832698        3.17099432058443       -0.52226370752199
C            6.23406051901544        2.29728610024473       -0.02192872777464
C            6.00698076840461        0.92984702436104        0.05435353863866
H            6.39035918697039        0.35382655700266        2.68582742434952
H            7.62851899922436        1.49487733020422        2.15927277442582
H            8.07459541520041       -0.15831673598036        2.56953136919365
H            9.15783169007566       -0.43328608660435        0.24938232292305
H            8.19710887204781       -0.12621691840263       -1.19766958063498
H            8.70336199213142        1.21425028428791       -0.16859217824808
H            8.46521998679833       -2.09467869244893        1.53702224152910
H            7.90850026037590       -4.46812874114255        1.44900806520208
H            5.78119182627211       -5.19872259011271        0.40168658959527
H            4.21821697732763       -3.53121944749706       -0.46779443941942
H            2.61484532036452       -2.08287220620065        1.11896205881183
H            0.38045531525158       -2.83436113588084        0.32332517547684
H           -3.58014819563596       -2.31537077571607       -1.14033311361793
H           -3.64180409048623       -2.92836932862740        1.19767507098925
H           -4.77654152867272       -4.68889045155158        2.49622821552601
H           -7.15117988200481       -4.50316178747264        3.07422424558661
H           -8.46782836775612       -2.52508083366103        2.38808418958952
H           -9.32414777614919       -0.12739528349794        1.33444271358016
H           -9.49771829827602        2.05264449753592        0.18053274779957
H           -7.56192072813459        3.01693167122985       -0.97235911077143
H           -5.38688360288752        1.85142051894081       -0.99200483674524
H           -3.59761525837982        1.57100114261331        0.70018923440298
H            0.59129891982581        0.20467379085141        0.84083922722610
H            2.65829826898107        0.76179004854082        2.07089612600901
H            3.29096360966949        3.09182300343751        2.48825646148698
H            1.85437996285113        4.94917345413583        1.71693878978432
H           -0.17783762251464        6.49349822900099        0.63522441658398
H           -2.24228313107364        7.29730674257796       -0.45974624946754
H           -3.84793323655840        5.71847395084233       -1.42483229168938
H           -3.45201504222943        3.28127953768780       -1.31781237132026
H           -0.20323063276447        0.25342799409839       -1.57258918370385
H            1.32844964186507       -1.55068049850159       -3.63206318371996
H            3.58775731889190       -0.82074610311726       -2.87237573603583
H            2.83562079172459        0.95793408092005       -1.17177395099116
H            3.29499298342331        3.34912024144865       -1.30848816785900
H            5.49612434167976        4.22793442075175       -0.57249369323084
H            7.17418500314034        2.69897226356064        0.32120485046901

          :  Hamiltonian                  GFN2-xTB          :
         :: gradient norm              0.000084911008 Eh/a0 ::
         :: HOMO-LUMO gap              0.131803902067 eV    ::
         :: SCC energy              -150.859971992650 Eh    ::
         :: -> dispersion             -0.147002621023 Eh    ::
         :: -> Gsolv                  -0.072191969632 Eh    ::
         :: repulsion energy           2.586249909579 Eh    ::

    * Orbital Energies and Occupations

         #    Occupation            Energy/Eh            Energy/eV
      -------------------------------------------------------------
         1        2.0000           -0.7533860             -20.5007
       ...           ...                  ...                  ...
       126        2.0000           -0.4136112             -11.2549
       127        2.0000           -0.4126291             -11.2282
       128        2.0000           -0.4113324             -11.1929
       129        2.0000           -0.4106450             -11.1742
       130        2.0000           -0.4098215             -11.1518
       131        2.0000           -0.4047287             -11.0132
       132        2.0000           -0.3956431             -10.7660
       133        2.0000           -0.3840730             -10.4512
       134        2.0000           -0.3837339             -10.4419
       135        1.9550           -0.3701941             -10.0735
       136        1.7215           -0.3681953             -10.0191
       137        1.3235           -0.3665900              -9.9754
       138        0.9185           -0.2571295              -6.9968 (HOMO)
       139        0.0644           -0.2522858              -6.8650 (LUMO)
       140        0.0168           -0.2509607              -6.8290
       141        0.0002           -0.2467549              -6.7145
       142        0.0001           -0.2456980              -6.6858
       143        0.0000           -0.2403247              -6.5396
       144                         -0.2373354              -6.4582
       145                         -0.2365801              -6.4377
       146                         -0.2284559              -6.2166
       147                         -0.2279892              -6.2039
       148                         -0.2276699              -6.1952
       149                         -0.2104961              -5.7279
       ...                                ...                  ...
       270                          1.1527965              31.3692
      -------------------------------------------------------------
                  HL-Gap            0.0048437 Eh            0.1318 eV

     #   Z          covCN         q      C6AA      α(0)
     1   6 C        3.761    -0.109    22.624     6.781
     2   6 C        3.909     0.025    20.092     6.371
     3   6 C        3.761    -0.110    22.642     6.783
     4   6 C        2.978     0.003    27.953     8.673
     5   6 C        2.924    -0.032    28.793     8.800
     6   6 C        2.917    -0.028    28.691     8.784
     7   6 C        2.917    -0.026    28.648     8.777
     8   6 C        2.922    -0.044    29.103     8.847
     9   6 C        2.930     0.059    26.671     8.469
    10   7 N        2.752     0.006    21.150     6.830
    11   6 C        2.927     0.021    27.541     8.606
    12   6 C        2.914    -0.040    29.000     8.831
    13   6 C        2.952    -0.040    28.988     8.831
    14   6 C        2.965    -0.103    30.587     9.072
    15  16 S        3.827     0.875   110.328    17.678
    16   8 O        0.860    -0.599    26.101     6.850
    17   8 O        0.860    -0.601    26.149     6.856
    18   6 C        2.964    -0.090    30.267     9.024
    19   6 C        2.956    -0.047    29.153     8.856
    20   6 C        2.909     0.064    26.574     8.453
    21   7 N        2.802    -0.026    21.751     6.927
    22   6 C        3.072     0.048    26.861     8.498
    23   6 C        2.909    -0.045    29.113     8.847
    24   6 C        2.923    -0.034    28.840     8.807
    25   6 C        2.919    -0.036    28.902     8.816
    26   6 C        2.912    -0.033    28.816     8.802
    27   6 C        3.066    -0.015    28.314     8.725
    28   6 C        3.064    -0.015    28.310     8.725
    29   6 C        2.912    -0.032    28.804     8.801
    30   6 C        2.919    -0.036    28.906     8.817
    31   6 C        2.922    -0.034    28.849     8.808
    32   6 C        2.910    -0.046    29.138     8.851
    33   6 C        3.072     0.047    26.867     8.499
    34   6 C        2.921    -0.079    29.980     8.979
    35   6 C        2.910     0.061    26.638     8.463
    36   7 N        2.802    -0.028    21.779     6.931
    37   6 C        3.076     0.046    26.900     8.503
    38   6 C        2.909    -0.047    29.175     8.857
    39   6 C        2.923    -0.033    28.833     8.806
    40   6 C        2.919    -0.037    28.923     8.819
    41   6 C        2.912    -0.032    28.809     8.801
    42   6 C        3.065    -0.015    28.327     8.727
    43   6 C        3.065    -0.015    28.328     8.728
    44   6 C        2.912    -0.033    28.821     8.803
    45   6 C        2.919    -0.037    28.921     8.819
    46   6 C        2.923    -0.034    28.857     8.809
    47   6 C        2.909    -0.046    29.138     8.851
    48   6 C        3.073     0.047    26.874     8.500
    49   6 C        2.953    -0.052    29.290     8.877
    50   6 C        2.958    -0.039    28.973     8.829
    51   6 C        2.914    -0.042    29.042     8.837
    52   6 C        2.929     0.060    26.653     8.467
    53   6 C        2.922    -0.043    29.066     8.841
    54   6 C        2.917    -0.024    28.606     8.771
    55   6 C        2.917    -0.026    28.655     8.778
    56   6 C        2.925    -0.032    28.798     8.800
    57   6 C        2.978     0.003    27.947     8.672
    58   1 H        0.925     0.040     2.455     2.450
    59   1 H        0.925     0.055     2.255     2.348
    60   1 H        0.925     0.055     2.260     2.351
    61   1 H        0.925     0.055     2.259     2.350
    62   1 H        0.925     0.039     2.460     2.453
    63   1 H        0.925     0.056     2.251     2.346
    64   1 H        0.926     0.056     2.251     2.346
    65   1 H        0.926     0.049     2.338     2.391
    66   1 H        0.926     0.045     2.385     2.415
    67   1 H        0.926     0.047     2.360     2.403
    68   1 H        0.926     0.046     2.375     2.410
    69   1 H        0.926     0.029     2.600     2.522
    70   1 H        0.926     0.043     2.406     2.425
    71   1 H        0.926     0.031     2.571     2.507
    72   1 H        0.926     0.035     2.517     2.481
    73   1 H        0.926     0.038     2.479     2.462
    74   1 H        0.926     0.041     2.440     2.443
    75   1 H        0.926     0.039     2.457     2.451
    76   1 H        0.926     0.038     2.480     2.463
    77   1 H        0.926     0.038     2.474     2.459
    78   1 H        0.926     0.034     2.527     2.486
    79   1 H        0.926     0.052     2.293     2.368
    80   1 H        0.926     0.028     2.617     2.530
    81   1 H        0.926     0.032     2.558     2.501
    82   1 H        0.926     0.037     2.485     2.465
    83   1 H        0.926     0.041     2.441     2.443
    84   1 H        0.926     0.039     2.460     2.453
    85   1 H        0.926     0.036     2.507     2.476
    86   1 H        0.926     0.035     2.513     2.479
    87   1 H        0.926     0.030     2.587     2.515
    88   1 H        0.926     0.040     2.452     2.449
    89   1 H        0.926     0.037     2.485     2.465
    90   1 H        0.926     0.045     2.386     2.416
    91   1 H        0.926     0.044     2.396     2.420
    92   1 H        0.926     0.043     2.404     2.425
    93   1 H        0.926     0.050     2.319     2.381
    94   1 H        0.926     0.056     2.241     2.341

molecular dipole:
                 x           y           z       tot (Debye)
 q only:        5.161       3.467       3.274
   full:        4.907       3.099       2.977      16.580

 projected vibrational frequencies (cm⁻¹)
eigval :       -0.00    -0.00    -0.00     0.00     0.00     0.00
eigval :        5.18    10.00    15.09    17.00    24.42    26.83
eigval :       33.49    36.49    45.75    54.30    60.59    61.97
eigval :       70.03    83.92    98.30   101.81   109.09   112.53
eigval :      123.45   128.43   131.95   136.55   143.29   148.20
eigval :      151.46   165.83   180.16   196.07   203.51   215.28
eigval :      217.79   224.76   236.07   236.98   262.55   264.17
eigval :      268.52   271.59   286.33   293.27   303.21   312.70
eigval :      318.47   326.91   336.14   348.49   362.48   370.49
eigval :      373.51   380.41   387.57   393.12   399.07   404.10
eigval :      409.38   418.60   420.10   431.21   432.76   433.70
eigval :      440.78   451.24   475.10   496.59   500.45   501.13
eigval :      511.64   514.90   515.24   527.51   533.26   535.01
eigval :      536.86   541.86   555.25   560.91   569.14   573.12
eigval :      583.26   584.07   589.92   602.24   618.37   624.92
eigval :      633.31   640.57   643.52   647.92   670.17   670.88
eigval :      682.06   689.28   703.66   705.29   706.41   737.75
eigval :      743.18   749.67   759.91   762.67   764.11   765.94
eigval :      770.86   772.84   774.35   775.16   781.02   785.02
eigval :      825.49   827.79   838.59   856.73   858.71   866.90
eigval :      867.27   870.82   871.79   872.17   890.63   893.15
eigval :      894.99   896.63   899.04   899.40   900.62   900.71
eigval :      902.72   906.50   913.67   915.10   915.86   916.28
eigval :      917.46   919.48   922.54   924.05   924.44   934.84
eigval :      957.54   969.15   976.28  1008.49  1009.23  1011.77
eigval :     1018.09  1031.22  1045.19  1058.74  1064.83  1066.25
eigval :     1068.57  1069.71  1077.37  1082.79  1100.57  1103.77
eigval :     1109.23  1114.17  1114.89  1135.69  1138.01  1140.19
eigval :     1140.91  1142.43  1155.55  1156.66  1172.32  1173.54
eigval :     1174.89  1175.82  1176.70  1178.87  1180.68  1192.15
eigval :     1199.93  1205.71  1209.60  1213.99  1227.55  1229.44
eigval :     1229.82  1235.90  1238.77  1242.71  1251.62  1279.37
eigval :     1282.42  1286.77  1288.04  1288.96  1291.52  1296.87
eigval :     1304.33  1317.81  1328.83  1337.11  1338.64  1341.29
eigval :     1346.75  1348.66  1355.93  1359.68  1361.87  1387.85
eigval :     1395.60  1400.38  1401.91  1405.99  1407.83  1410.19
eigval :     1412.52  1414.18  1421.83  1432.54  1437.60  1441.94
eigval :     1448.41  1460.48  1461.17  1466.97  1478.51  1478.85
eigval :     1479.20  1480.49  1489.20  1494.25  1515.75  1532.33
eigval :     1534.90  1543.36  1548.84  1551.75  1559.17  1574.65
eigval :     1575.06  1575.97  1577.04  1577.99  1589.62  3029.93
eigval :     3032.26  3051.21  3054.36  3058.32  3063.01  3076.84
eigval :     3077.30  3077.79  3077.90  3080.13  3081.36  3082.44
eigval :     3083.20  3083.36  3085.02  3088.10  3089.35  3090.08
eigval :     3090.49  3090.53  3090.85  3093.23  3095.01  3096.13
eigval :     3096.49  3097.54  3098.11  3098.50  3099.55  3100.90
eigval :     3104.52  3105.28  3109.68  3112.51  3113.60  3127.63

   temp. (K)  partition function   enthalpy   heat capacity  entropy
                                   cal/mol     cal/K/mol   cal/K/mol   J/K/mol
 298.15  VIB  0.468E+22            27856.082    176.492    172.828
         ROT  0.123E+09              888.752      2.981     40.006
         INT  0.578E+30            28744.834    179.473    212.834
         TR   0.201E+29             1481.254      4.968     45.727
         TOT                       30226.0879   184.4412   258.5610  1081.8192

       T/K    H(0)-H(T)+PV         H(T)/Eh          T*S/Eh         G(T)/Eh
   ------------------------------------------------------------------------
    298.15    0.481683E-01    0.764235E+00    0.122851E+00    0.641385E+00
   ------------------------------------------------------------------------

         :::::::::::::::::::::::::::::::::::::::::::::::::::::
         ::                  THERMODYNAMIC                  ::
         :::::::::::::::::::::::::::::::::::::::::::::::::::::
         :: total free energy        -147.632337393353 Eh   ::
         ::.................................................::
         :: total energy             -148.273722093777 Eh   ::
         :: zero point energy           0.716067030511 Eh   ::
         :: G(RRHO) w/o ZPVE           -0.074682330088 Eh   ::
         :: G(RRHO) contrib.            0.641384700423 Eh   ::
         :::::::::::::::::::::::::::::::::::::::::::::::::::::

           -------------------------------------------------
          | TOTAL ENERGY             -148.273722093777 Eh   |
          | TOTAL ENTHALPY           -147.509486726122 Eh   |
          | TOTAL FREE ENERGY        -147.632337393353 Eh   |
          | GRADIENT NORM               0.000085916185 Eh/α |
          | HOMO-LUMO GAP               0.131804706877 eV   |
           -------------------------------------------------

 * finished run on 2025/07/19 at 11:59:42.299
