   * xtb version 6.7.1 (edcfbbe) compiled by 'albert@albert-system' on 2024-07-22

   ID    Z sym.   atoms
    1    6 C      1-9, 11-14, 18-20, 22-35, 37-57
    2    7 N      10, 21, 36
    3   16 S      15
    4    8 O      16, 17
    5    1 H      58-94

          program call               : xtb data2507/toluene/CZ-DPS-DMAC/CZ-DPS-DMAC_toluene_S0_crest.xyz --gfn 2 --gbsa toluene --ohess vtight --parallel 40 --molden --ceasefiles --namespace data2507/toluene/CZ-DPS-DMAC/CZ-DPS-DMAC_toluene_S0_finalOpt
      * Solvation model:               GBSA
        Solvent                        toluene
        Solvent mass                       9.2140E+01 g/mol
          :  Hamiltonian                  GFN2-xTB          :
 * total energy  :  -148.3705931 Eh     change       -0.1281080E-08 Eh
 * total energy  :  -148.3707128 Eh     change       -0.1197001E-03 Eh
 * total energy  :  -148.3707977 Eh     change       -0.8494061E-04 Eh
 * total energy  :  -148.3708269 Eh     change       -0.2915058E-04 Eh
 * total energy  :  -148.3708456 Eh     change       -0.1869807E-04 Eh
 * total energy  :  -148.3708657 Eh     change       -0.2013450E-04 Eh
 * total energy  :  -148.3708822 Eh     change       -0.1649278E-04 Eh
 * total energy  :  -148.3708980 Eh     change       -0.1579823E-04 Eh
 * total energy  :  -148.3709243 Eh     change       -0.2634178E-04 Eh
 * total energy  :  -148.3709416 Eh     change       -0.1729844E-04 Eh
 * total energy  :  -148.3719617 Eh     change       -0.4406223E-06 Eh
 * total energy  :  -148.3719622 Eh     change       -0.4897489E-06 Eh
 * total energy  :  -148.3719628 Eh     change       -0.5695708E-06 Eh
 * total energy  :  -148.3719634 Eh     change       -0.6374699E-06 Eh
 * total energy  :  -148.3719641 Eh     change       -0.6715546E-06 Eh
 * total energy  :  -148.3719648 Eh     change       -0.6880299E-06 Eh
 * total energy  :  -148.3719655 Eh     change       -0.7363568E-06 Eh
 * total energy  :  -148.3719664 Eh     change       -0.8273694E-06 Eh
 * total energy  :  -148.3719664 Eh     change       -0.3583040E-08 Eh
   *** GEOMETRY OPTIMIZATION CONVERGED AFTER 94 ITERATIONS ***

 final structure:
================
94
 xtb: 6.7.1 (edcfbbe)
C            7.56923389071708        0.60707025639845        1.81626572045394
C            7.21209241553308        0.15978133835589        0.38617927481831
C            8.40815634334597        0.38413963675249       -0.55810354687204
C            6.88379814238488       -1.32084657391073        0.40402591255896
C            7.86099619913726       -2.23072621149346        0.78720979354160
C            7.63619905419375       -3.59469501067082        0.78888233548270
C            6.40688842573760       -4.07638074014114        0.37565931291288
C            5.41764647886980       -3.19434239787418       -0.00664257472531
C            5.63053565264321       -1.81278428285911        0.02671661236215
N            4.60840278493761       -0.94951177124444       -0.35451721894393
C            3.33155149463836       -1.47779605535236       -0.64812406017090
C            2.55658417342501       -2.03359081383139        0.37004155016480
C            1.28053000877654       -2.48978138245570        0.09657146615141
C            0.78842170920375       -2.39291108324522       -1.19308661301290
S           -0.93115238206589       -2.79852945312051       -1.49139088801919
O           -1.30675926354462       -3.95143274904408       -0.70271087179566
O           -1.16639970157204       -2.88346643475969       -2.91578273044345
C           -1.82431752022095       -1.37304759518396       -0.83900244884338
C           -3.16528287718595       -1.51679888230228       -0.55509583194801
C           -3.86894428558650       -0.43083237694834       -0.02978331501612
N           -5.22229415016009       -0.55823210883527        0.28180345862288
C           -5.79274314346568       -1.59313110906748        1.00640454061743
C           -5.19103325317343       -2.68297592977452        1.61861200384880
C           -6.00148825681623       -3.55960324878772        2.31646107817928
C           -7.37624495265110       -3.35820006769745        2.41653603382499
C           -7.97652654847020       -2.26108321267220        1.83087747571693
C           -7.18259206503753       -1.36676529746194        1.12433530004909
C           -7.46197535807467       -0.14315765501271        0.42312415480163
C           -8.62895095011599        0.56658839854781        0.17057746842548
C           -8.55231620749653        1.71895721433762       -0.58692039704324
C           -7.33526894925133        2.15456700822816       -1.10562925482706
C           -6.16209524967564        1.46379791189167       -0.86615139915953
C           -6.22736228332655        0.32337641997309       -0.08029836916782
C           -3.20254118228217        0.76899609295971        0.21426858819980
C           -1.84809442940739        0.89868123841248       -0.08161983048121
N           -1.15414073321002        2.07333713864766        0.20634147894922
C            0.06919277473063        2.13361715063294        0.85882147737137
C            0.83350150803502        1.11432476101929        1.40805763038924
C            2.01128484275782        1.45993417886157        2.04420450263475
C            2.42285771775243        2.78589532583090        2.14513139232400
C            1.65356725951732        3.80694385547649        1.62417412286024
C            0.46595133900354        3.48387553976484        0.98030838847196
C           -0.56485366376435        4.27258374468444        0.36202040408053
C           -0.72344414680920        5.63664165853326        0.15392478986607
C           -1.84988891912420        6.07856771162244       -0.51191587053345
C           -2.80093013061749        5.17698564296937       -0.98363084720798
C           -2.66172298274691        3.81522271663406       -0.78933108811318
C           -1.54733703054760        3.36674027203093       -0.09701086781920
C           -1.15900792813389       -0.18392876323582       -0.63383872412809
C            1.55585153363238       -1.87672038165516       -2.22131684796664
C            2.83472525675183       -1.42525883870682       -1.95049503725008
C            4.80414227534753        0.42803886329156       -0.42878094699005
C            3.74831288699781        1.26617413189859       -0.79802655337095
C            3.91679539571868        2.63187355360188       -0.88663242653023
C            5.14509199876052        3.19335878305414       -0.59030978368365
C            6.18193243858386        2.37144653100049       -0.19064674373307
C            6.04021615042702        0.99257784801178       -0.09816659420353
H            6.71069250473320        0.47231632145718        2.47209968705772
H            7.85342044421355        1.65549158751948        1.83438148159580
H            8.39621508658600        0.02223701526597        2.20927374783366
H            9.27900293195942       -0.17120271010594       -0.22190131090777
H            8.15472375475221        0.05003386107718       -1.56280304858574
H            8.67510372242734        1.43599731549006       -0.60395249167843
H            8.83050165183601       -1.86909596233454        1.09405397112820
H            8.41752328527157       -4.27327910739922        1.09651363535733
H            6.21523399006854       -5.13893429664002        0.34495721564897
H            4.46899088268298       -3.58246251461286       -0.34424980611833
H            2.95630378580407       -2.09044707165824        1.37092218372033
H            0.65386899186765       -2.91237759241008        0.86634805830899
H           -3.64954813742571       -2.45978367533456       -0.74955825487811
H           -4.12570011401862       -2.84683407763567        1.55979272122600
H           -5.55601302896145       -4.41904418447510        2.79568308690313
H           -7.97542008703344       -4.06806197072729        2.96733432725788
H           -9.03945496848285       -2.09578430283447        1.92104124211860
H           -9.57531978980701        0.21660330438567        0.55412266319757
H           -9.44782667517349        2.28624901689567       -0.79307725221664
H           -7.30760537327965        3.04755742515566       -1.71255187936064
H           -5.22934872838277        1.79339514795806       -1.29580462428840
H           -3.73303996383635        1.58825436161526        0.67484490549022
H            0.51984386206756        0.08303817366432        1.35537826495457
H            2.62439439902197        0.68329307203856        2.47565735899653
H            3.35231629871399        3.01399894816995        2.64448791275666
H            1.96275214931491        4.83698578304522        1.71634318804327
H            0.02350780906924        6.33309766812998        0.50362250761786
H           -1.99410245459141        7.13543320400953       -0.68085533569664
H           -3.66439935142651        5.54803037405600       -1.51579274155127
H           -3.39309712485861        3.12655854524728       -1.18101255372621
H           -0.12008709405208       -0.08326514667923       -0.89924427046794
H            1.13496145203702       -1.83550366596086       -3.21375421075312
H            3.44852314736414       -1.01311080902279       -2.73700705713121
H            2.77737161016219        0.84765973694647       -1.00767391886802
H            3.08353559834635        3.25302710131859       -1.17879151845813
H            5.29231066141666        4.26075511936409       -0.65592061137977
H            7.12935987298262        2.82359673602695        0.06002363180505

          :  Hamiltonian                  GFN2-xTB          :
         :: gradient norm              0.000046979569 Eh/a0 ::
         :: HOMO-LUMO gap              2.159176121565 eV    ::
         :: SCC energy              -150.980567765653 Eh    ::
         :: -> dispersion             -0.146614052043 Eh    ::
         :: -> Gsolv                  -0.060548560229 Eh    ::
         :: repulsion energy           2.608601407850 Eh    ::

    * Orbital Energies and Occupations

         #    Occupation            Energy/Eh            Energy/eV
      -------------------------------------------------------------
         1        2.0000           -0.7826937             -21.2982
       ...           ...                  ...                  ...
       125        2.0000           -0.4180888             -11.3768
       126        2.0000           -0.4112523             -11.1907
       127        2.0000           -0.4105545             -11.1718
       128        2.0000           -0.4099936             -11.1565
       129        2.0000           -0.4084815             -11.1153
       130        2.0000           -0.4056085             -11.0372
       131        2.0000           -0.3993548             -10.8670
       132        2.0000           -0.3940165             -10.7217
       133        2.0000           -0.3840678             -10.4510
       134        2.0000           -0.3835503             -10.4369
       135        2.0000           -0.3721651             -10.1271
       136        2.0000           -0.3704830             -10.0814
       137        2.0000           -0.3508964              -9.5484 (HOMO)
       138                         -0.2715481              -7.3892 (LUMO)
       139                         -0.2657019              -7.2301
       140                         -0.2623120              -7.1379
       141                         -0.2567549              -6.9867
       142                         -0.2494838              -6.7888
       143                         -0.2474829              -6.7344
       144                         -0.2274961              -6.1905
       145                         -0.2266983              -6.1688
       146                         -0.2263491              -6.1593
       147                         -0.2211346              -6.0174
       148                         -0.2199728              -5.9858
       ...                                ...                  ...
       270                          1.1691123              31.8132
      -------------------------------------------------------------
                  HL-Gap            0.0793483 Eh            2.1592 eV

     #   Z          covCN         q      C6AA      α(0)
     1   6 C        3.761    -0.104    22.539     6.768
     2   6 C        3.909     0.021    20.158     6.382
     3   6 C        3.761    -0.105    22.556     6.770
     4   6 C        2.979    -0.011    28.291     8.725
     5   6 C        2.928    -0.037    28.911     8.818
     6   6 C        2.917    -0.044    29.105     8.847
     7   6 C        2.919    -0.034    28.844     8.807
     8   6 C        2.924    -0.060    29.489     8.905
     9   6 C        2.926     0.056    26.746     8.481
    10   7 N        2.753    -0.064    22.472     7.041
    11   6 C        2.926     0.079    26.234     8.400
    12   6 C        2.923    -0.031    28.778     8.797
    13   6 C        2.959    -0.025    28.614     8.774
    14   6 C        2.971    -0.075    29.879     8.966
    15  16 S        3.819     0.954   107.991    17.490
    16   8 O        0.860    -0.576    25.527     6.774
    17   8 O        0.860    -0.577    25.547     6.777
    18   6 C        2.967    -0.070    29.729     8.943
    19   6 C        2.962    -0.042    29.050     8.841
    20   6 C        2.912     0.076    26.300     8.409
    21   7 N        2.801    -0.038    21.977     6.963
    22   6 C        3.068     0.045    26.926     8.509
    23   6 C        2.910    -0.051    29.261     8.870
    24   6 C        2.924    -0.033    28.816     8.803
    25   6 C        2.920    -0.040    28.996     8.830
    26   6 C        2.912    -0.033    28.829     8.804
    27   6 C        3.067    -0.015    28.316     8.726
    28   6 C        3.065    -0.015    28.314     8.725
    29   6 C        2.913    -0.033    28.817     8.803
    30   6 C        2.920    -0.040    28.997     8.830
    31   6 C        2.924    -0.033    28.820     8.804
    32   6 C        2.910    -0.050    29.254     8.869
    33   6 C        3.069     0.045    26.923     8.508
    34   6 C        2.924    -0.057    29.428     8.896
    35   6 C        2.912     0.076    26.309     8.411
    36   7 N        2.801    -0.036    21.940     6.957
    37   6 C        3.068     0.043    26.962     8.514
    38   6 C        2.910    -0.053    29.308     8.877
    39   6 C        2.924    -0.031    28.774     8.797
    40   6 C        2.920    -0.037    28.929     8.820
    41   6 C        2.913    -0.031    28.776     8.796
    42   6 C        3.065    -0.013    28.280     8.720
    43   6 C        3.066    -0.014    28.305     8.724
    44   6 C        2.913    -0.033    28.814     8.802
    45   6 C        2.920    -0.040    28.990     8.829
    46   6 C        2.924    -0.033    28.814     8.803
    47   6 C        2.910    -0.050    29.254     8.869
    48   6 C        3.066     0.045    26.934     8.510
    49   6 C        2.956    -0.056    29.400     8.893
    50   6 C        2.954    -0.024    28.603     8.772
    51   6 C        2.923    -0.033    28.814     8.803
    52   6 C        2.926     0.056    26.744     8.481
    53   6 C        2.924    -0.058    29.449     8.899
    54   6 C        2.920    -0.032    28.793     8.799
    55   6 C        2.917    -0.043    29.079     8.843
    56   6 C        2.928    -0.036    28.906     8.817
    57   6 C        2.979    -0.011    28.285     8.724
    58   1 H        0.925     0.032     2.563     2.504
    59   1 H        0.925     0.043     2.404     2.425
    60   1 H        0.925     0.043     2.412     2.429
    61   1 H        0.925     0.043     2.410     2.428
    62   1 H        0.925     0.031     2.570     2.507
    63   1 H        0.925     0.043     2.404     2.425
    64   1 H        0.926     0.036     2.503     2.474
    65   1 H        0.926     0.028     2.613     2.528
    66   1 H        0.926     0.028     2.612     2.527
    67   1 H        0.926     0.024     2.667     2.554
    68   1 H        0.926     0.070     2.084     2.258
    69   1 H        0.926     0.062     2.180     2.309
    70   1 H        0.926     0.060     2.201     2.320
    71   1 H        0.926     0.029     2.595     2.519
    72   1 H        0.926     0.034     2.536     2.490
    73   1 H        0.926     0.034     2.534     2.489
    74   1 H        0.926     0.037     2.485     2.465
    75   1 H        0.926     0.036     2.497     2.471
    76   1 H        0.926     0.034     2.533     2.489
    77   1 H        0.926     0.036     2.502     2.474
    78   1 H        0.926     0.030     2.585     2.514
    79   1 H        0.926     0.074     2.042     2.235
    80   1 H        0.926     0.027     2.629     2.536
    81   1 H        0.926     0.033     2.545     2.495
    82   1 H        0.926     0.034     2.534     2.489
    83   1 H        0.926     0.038     2.476     2.461
    84   1 H        0.926     0.037     2.491     2.468
    85   1 H        0.926     0.033     2.538     2.491
    86   1 H        0.926     0.035     2.511     2.478
    87   1 H        0.926     0.031     2.574     2.509
    88   1 H        0.926     0.057     2.240     2.340
    89   1 H        0.926     0.066     2.127     2.280
    90   1 H        0.926     0.070     2.086     2.258
    91   1 H        0.926     0.021     2.719     2.579
    92   1 H        0.926     0.028     2.621     2.532
    93   1 H        0.926     0.029     2.594     2.519
    94   1 H        0.926     0.037     2.493     2.469

molecular dipole:
                 x           y           z       tot (Debye)
 q only:        1.436       2.515       1.272
   full:        1.339       2.181       1.102       7.083

 projected vibrational frequencies (cm⁻¹)
eigval :       -0.00    -0.00    -0.00    -0.00     0.00     0.00
eigval :        2.78     7.63    19.21    20.14    24.71    28.21
eigval :       32.37    37.54    46.61    50.24    58.53    62.15
eigval :       63.08    83.37   100.13   102.15   109.79   112.94
eigval :      116.83   127.06   128.10   140.16   141.41   150.50
eigval :      152.10   168.19   183.91   190.32   209.90   211.98
eigval :      220.42   233.28   236.92   246.19   260.35   269.27
eigval :      272.75   279.73   289.30   296.99   304.69   317.87
eigval :      331.84   334.29   339.03   351.22   366.13   371.54
eigval :      373.04   378.41   394.83   397.68   399.47   408.35
eigval :      411.69   422.29   423.90   435.36   437.70   438.80
eigval :      454.17   480.27   494.59   510.36   513.06   516.26
eigval :      517.08   519.77   523.86   531.37   540.86   541.60
eigval :      547.07   548.37   559.52   567.71   580.70   584.60
eigval :      587.73   591.61   599.99   605.09   618.31   641.35
eigval :      644.39   651.44   668.75   673.95   675.49   683.71
eigval :      685.89   694.18   695.44   709.13   710.01   746.96
eigval :      748.33   754.35   765.22   767.94   768.32   774.22
eigval :      776.67   777.23   777.68   780.09   814.61   827.16
eigval :      829.94   862.35   864.33   865.78   866.89   867.58
eigval :      877.44   879.56   886.59   892.94   896.71   898.22
eigval :      899.81   904.54   905.17   909.34   912.10   914.68
eigval :      915.97   916.96   919.94   920.67   921.47   923.41
eigval :      923.83   924.43   924.76   930.95   932.53   938.41
eigval :      957.63   993.64  1002.37  1010.78  1012.21  1013.95
eigval :     1030.07  1066.27  1070.29  1072.54  1073.39  1075.24
eigval :     1075.88  1083.43  1107.48  1111.48  1112.83  1115.27
eigval :     1116.69  1119.55  1124.20  1139.87  1147.56  1152.18
eigval :     1158.61  1162.70  1165.07  1174.02  1176.10  1177.13
eigval :     1179.34  1179.46  1185.32  1186.78  1194.98  1201.49
eigval :     1202.78  1211.34  1229.35  1233.37  1233.46  1241.08
eigval :     1243.65  1248.97  1249.51  1266.88  1291.69  1292.77
eigval :     1293.09  1296.33  1299.07  1308.78  1309.35  1310.72
eigval :     1323.81  1330.31  1330.85  1331.83  1354.47  1355.41
eigval :     1356.10  1359.38  1372.22  1391.94  1399.79  1413.96
eigval :     1415.08  1418.32  1424.74  1426.08  1434.05  1437.69
eigval :     1452.81  1453.96  1456.54  1473.44  1473.67  1475.06
eigval :     1484.97  1485.36  1486.10  1487.85  1492.40  1497.71
eigval :     1501.99  1540.24  1565.25  1570.27  1573.39  1575.00
eigval :     1575.29  1579.19  1588.33  1588.92  1589.83  1590.92
eigval :     1597.93  1598.38  1600.04  1611.26  1611.71  3022.09
eigval :     3024.83  3040.02  3043.44  3048.52  3054.38  3073.97
eigval :     3075.20  3076.19  3076.69  3077.24  3080.11  3081.26
eigval :     3081.43  3082.91  3083.11  3083.76  3084.46  3089.12
eigval :     3090.76  3091.83  3091.90  3092.94  3093.87  3095.38
eigval :     3095.58  3096.04  3098.51  3098.95  3099.56  3102.82
eigval :     3105.08  3105.30  3106.67  3109.32  3116.20  3123.45

   temp. (K)  partition function   enthalpy   heat capacity  entropy
                                   cal/mol     cal/K/mol   cal/K/mol   J/K/mol
 298.15  VIB  0.622E+22            27532.300    173.909    171.719
         ROT  0.124E+09              888.752      2.981     40.023
         INT  0.774E+30            28421.052    176.890    211.742
         TR   0.201E+29             1481.254      4.968     45.727
         TOT                       29902.3061   181.8580   257.4686  1077.2487

       T/K    H(0)-H(T)+PV         H(T)/Eh          T*S/Eh         G(T)/Eh
   ------------------------------------------------------------------------
    298.15    0.476524E-01    0.770137E+00    0.122332E+00    0.647805E+00
   ------------------------------------------------------------------------

         :::::::::::::::::::::::::::::::::::::::::::::::::::::
         ::                  THERMODYNAMIC                  ::
         :::::::::::::::::::::::::::::::::::::::::::::::::::::
         :: total free energy        -147.724161391022 Eh   ::
         ::.................................................::
         :: total energy             -148.371966357648 Eh   ::
         :: zero point energy           0.722484262928 Eh   ::
         :: G(RRHO) w/o ZPVE           -0.074679296301 Eh   ::
         :: G(RRHO) contrib.            0.647804966626 Eh   ::
         :::::::::::::::::::::::::::::::::::::::::::::::::::::

           -------------------------------------------------
          | TOTAL ENERGY             -148.371966357648 Eh   |
          | TOTAL ENTHALPY           -147.601829736757 Eh   |
          | TOTAL FREE ENERGY        -147.724161391022 Eh   |
          | GRADIENT NORM               0.000046976468 Eh/α |
          | HOMO-LUMO GAP               2.159177431698 eV   |
           -------------------------------------------------

 * finished run on 2025/07/19 at 11:59:21.444
