   * xtb version 6.7.1 (edcfbbe) compiled by 'albert@albert-system' on 2024-07-22

   ID    Z sym.   atoms
    1    6 C      1-9, 11-14, 18-20, 22-35, 37-57
    2    7 N      10, 21, 36
    3   16 S      15
    4    8 O      16, 17
    5    1 H      58-94

          program call               : xtb data2507/toluene/CZ-DPS-DMAC/CZ-DPS-DMAC.xyz --gfn 2 --gbsa toluene --ohess vtight --parallel 40 --molden --ceasefiles --namespace data2507/toluene/CZ-DPS-DMAC/CZ-DPS-DMAC_toluene_S0_preOpt
      * Solvation model:               GBSA
        Solvent                        toluene
        Solvent mass                       9.2140E+01 g/mol
          :  Hamiltonian                  GFN2-xTB          :
 * total energy  :  -148.3435090 Eh     change       -0.1209941E-08 Eh
 * total energy  :  -148.3632749 Eh     change       -0.1976591E-01 Eh
 * total energy  :  -148.3688974 Eh     change       -0.5622532E-02 Eh
 * total energy  :  -148.3697775 Eh     change       -0.8801107E-03 Eh
 * total energy  :  -148.3702095 Eh     change       -0.4319990E-03 Eh
 * total energy  :  -148.3703390 Eh     change       -0.1295201E-03 Eh
 * total energy  :  -148.3703897 Eh     change       -0.5064772E-04 Eh
 * total energy  :  -148.3704123 Eh     change       -0.2260992E-04 Eh
 * total energy  :  -148.3704309 Eh     change       -0.1866034E-04 Eh
 * total energy  :  -148.3704452 Eh     change       -0.1426203E-04 Eh
 * total energy  :  -148.3707122 Eh     change       -0.7562402E-06 Eh
 * total energy  :  -148.3707128 Eh     change       -0.6313945E-06 Eh
 * total energy  :  -148.3707134 Eh     change       -0.6028033E-06 Eh
 * total energy  :  -148.3707140 Eh     change       -0.6212545E-06 Eh
 * total energy  :  -148.3707147 Eh     change       -0.6289517E-06 Eh
 * total energy  :  -148.3707153 Eh     change       -0.6265711E-06 Eh
 * total energy  :  -148.3707160 Eh     change       -0.6569218E-06 Eh
 * total energy  :  -148.3707167 Eh     change       -0.7552478E-06 Eh
 * total energy  :  -148.3707167 Eh     change       -0.5477574E-08 Eh
   *** GEOMETRY OPTIMIZATION CONVERGED AFTER 94 ITERATIONS ***

 final structure:
================
94
 xtb: 6.7.1 (edcfbbe)
C            7.71628581757621       -1.01681873164113        2.05005629624824
C            7.07935056964228        0.07542201343786        1.17013043048899
C            7.94603277799558        1.34856659842000        1.19031483195728
C            6.99824530222176       -0.44120816518103       -0.25435416330088
C            8.16582411180840       -0.79499963893826       -0.91818690879724
C            8.15628307778270       -1.30415625369579       -2.20357759259971
C            6.94618836601266       -1.48526522285335       -2.84879880160472
C            5.77118058075204       -1.14075102286260       -2.21347734155512
C            5.78070057763955       -0.59999479380226       -0.92421949352696
N            4.58127890018663       -0.25495138430803       -0.31230215844911
C            3.36742451234289       -0.44222314523319       -1.01874958090221
C            2.52212803475114       -1.49731389055068       -0.67813842961835
C            1.33929427628237       -1.68433699980508       -1.36930506482112
C            1.01181886081003       -0.81771710705221       -2.39623435903460
S           -0.54226060888086       -1.06144179491964       -3.25690628745308
O           -0.68955117910796       -2.46474180458917       -3.57425302533245
O           -0.62200748781118       -0.12629875294385       -4.35714916564763
C           -1.78666108042833       -0.62002150684508       -2.03791650634607
C           -2.47052676282856       -1.61965559073012       -1.38127920768019
C           -3.43009222212948       -1.27084832906414       -0.42829759872430
N           -4.16801029538945       -2.26309978988482        0.21595860273735
C           -4.40969541064477       -2.35133215158855        1.57732944102049
C           -3.93113860840001       -1.56449072784529        2.61389720073266
C           -4.30373199126360       -1.89338232300523        3.90393952665146
C           -5.12514603641731       -2.98734491138435        4.16523168253036
C           -5.57978825682719       -3.79364521838363        3.14009678070898
C           -5.21803694193513       -3.48054492289578        1.83606063470233
C           -5.47931726511888       -4.09819034966211        0.56436637830322
C           -6.21726277502636       -5.21079826831014        0.18130511090642
C           -6.28569473604772       -5.52884915351558       -1.16074938860166
C           -5.64297462250468       -4.74374148726709       -2.11513433936101
C           -4.90346601538390       -3.63131040736989       -1.75748484224278
C           -4.80936570793699       -3.32247503706881       -0.40826663951883
C           -3.66430005999070        0.07518922597196       -0.15486001239646
C           -2.95554504804287        1.07292888187062       -0.82210283123366
N           -3.22692660499888        2.41821067963568       -0.57276879074677
C           -3.33160358871005        3.01730706381960        0.67168265479651
C           -3.10289599714059        2.48536978909085        1.93158791321031
C           -3.24557266150135        3.32031934717468        3.02417645329231
C           -3.59532509616832        4.65998279084188        2.87272349352056
C           -3.79514515885450        5.20355059821732        1.61879812328943
C           -3.65844708407257        4.38180831439253        0.50725614799706
C           -3.76397339908859        4.61065363220815       -0.90821185294820
C           -4.07951335476525        5.72830312391580       -1.67020306288711
C           -4.12054245776230        5.60131684041885       -3.04465934709358
C           -3.86422872176271        4.37692963747022       -3.65765850504017
C           -3.54838731328756        3.25070449911493       -2.91991619506845
C           -3.48312168762572        3.37834577341219       -1.54000538767018
C           -1.99618157954877        0.71649219688359       -1.77146346376864
C            1.83659161747212        0.23487280988551       -2.74365342915041
C            3.02133324194131        0.42364591993468       -2.05390659706166
C            4.53807252324511        0.25225660710416        0.98103365741524
C            3.31238830546147        0.63627421092062        1.53324944208107
C            3.23637496341322        1.13686009270076        2.81651163484065
C            4.38732823549265        1.27062970330619        3.57209983204082
C            5.60362159000905        0.91662585768524        3.01804773460372
C            5.70954014725386        0.41372335176557        1.72766535697690
H            7.79850139626364       -0.68435352644155        3.08110318361188
H            8.71072897771827       -1.27043237549397        1.69370927144368
H            7.10354662413434       -1.91651601608681        2.02658417244699
H            8.04632952737944        1.73389433188839        2.20103361253362
H            8.94114760589112        1.14651826100095        0.80432306297750
H            7.48789765537609        2.11937438215410        0.57281355409713
H            9.11576541763464       -0.67516492598434       -0.42000891363566
H            9.08345915640734       -1.56615144071437       -2.69067843783160
H            6.91169790687998       -1.89842536928677       -3.84623973996182
H            4.83225527029179       -1.29910118553402       -2.72129065167007
H            2.80058274087490       -2.16231099695352        0.12526668401793
H            0.67723023416106       -2.50290929586679       -1.13644405531451
H           -2.25825676032433       -2.64891161964198       -1.62025890944448
H           -3.27451552252820       -0.73007562435283        2.42589975035947
H           -3.94670155219825       -1.29096805107094        4.72617421153893
H           -5.39792588639981       -3.21171346738562        5.18574384129269
H           -6.19898418132795       -4.65410482971019        3.34376961935030
H           -6.72868579844340       -5.80887592103256        0.92021595569234
H           -6.85107548826673       -6.39164608337499       -1.48047470150004
H           -5.72512422055624       -5.00651316872590       -3.15961255925535
H           -4.42375633411956       -3.02534951060539       -2.51123332248232
H           -4.43652439881340        0.35007277659242        0.54745607744731
H           -2.80660576532585        1.45628686365351        2.05896671155549
H           -3.07735458358534        2.92594710557236        4.01550674364915
H           -3.69970125250234        5.28146135626352        3.74974959053742
H           -4.04667143965328        6.24651251599668        1.49966124377530
H           -4.29400246711926        6.67271419254643       -1.19335239117956
H           -4.36251065296065        6.45770597413728       -3.65648834820556
H           -3.91674599050211        4.30243930543856       -4.73396209395215
H           -3.36731071294622        2.30573770205490       -3.40971331137115
H           -1.42842676909229        1.46213791472501       -2.30303822783623
H            1.54125343141992        0.88406225856398       -3.55300041921416
H            3.68423174465202        1.23541968415254       -2.31244847268955
H            2.41069365398088        0.54750119781504        0.94712293897480
H            2.27723843640515        1.42462723874296        3.22123050153494
H            4.34202267452346        1.65677829772173        4.57928970576950
H            6.49545175017171        1.03998737289311        3.61329613208497

          :  Hamiltonian                  GFN2-xTB          :
         :: gradient norm              0.000057118489 Eh/a0 ::
         :: HOMO-LUMO gap              1.992298406692 eV    ::
         :: SCC energy              -150.978932996897 Eh    ::
         :: -> dispersion             -0.136448460481 Eh    ::
         :: -> Gsolv                  -0.064620984006 Eh    ::
         :: repulsion energy           2.608216282385 Eh    ::

    * Orbital Energies and Occupations

         #    Occupation            Energy/Eh            Energy/eV
      -------------------------------------------------------------
         1        2.0000           -0.7828337             -21.3020
       ...           ...                  ...                  ...
       125        2.0000           -0.4176223             -11.3641
       126        2.0000           -0.4105377             -11.1713
       127        2.0000           -0.4103081             -11.1651
       128        2.0000           -0.4102712             -11.1640
       129        2.0000           -0.4083955             -11.1130
       130        2.0000           -0.4052878             -11.0284
       131        2.0000           -0.3993469             -10.8668
       132        2.0000           -0.3939563             -10.7201
       133        2.0000           -0.3838438             -10.4449
       134        2.0000           -0.3838143             -10.4441
       135        2.0000           -0.3720903             -10.1251
       136        2.0000           -0.3705810             -10.0840
       137        2.0000           -0.3499582              -9.5228 (HOMO)
       138                         -0.2767426              -7.5305 (LUMO)
       139                         -0.2626902              -7.1482
       140                         -0.2608334              -7.0976
       141                         -0.2561749              -6.9709
       142                         -0.2493835              -6.7861
       143                         -0.2474275              -6.7328
       144                         -0.2270086              -6.1772
       145                         -0.2269581              -6.1758
       146                         -0.2260618              -6.1515
       147                         -0.2207833              -6.0078
       148                         -0.2198364              -5.9821
       ...                                ...                  ...
       270                          1.1673382              31.7649
      -------------------------------------------------------------
                  HL-Gap            0.0732156 Eh            1.9923 eV

     #   Z          covCN         q      C6AA      α(0)
     1   6 C        3.761    -0.104    22.543     6.768
     2   6 C        3.909     0.021    20.163     6.382
     3   6 C        3.761    -0.105    22.548     6.769
     4   6 C        2.979    -0.012    28.308     8.727
     5   6 C        2.928    -0.037    28.915     8.818
     6   6 C        2.917    -0.045    29.120     8.849
     7   6 C        2.919    -0.034    28.847     8.808
     8   6 C        2.924    -0.060    29.503     8.907
     9   6 C        2.926     0.056    26.737     8.480
    10   7 N        2.754    -0.067    22.535     7.050
    11   6 C        2.926     0.079    26.228     8.399
    12   6 C        2.923    -0.032    28.788     8.799
    13   6 C        2.960    -0.026    28.642     8.778
    14   6 C        2.971    -0.076    29.906     8.970
    15  16 S        3.826     0.951   108.070    17.497
    16   8 O        0.860    -0.574    25.484     6.768
    17   8 O        0.860    -0.573    25.459     6.765
    18   6 C        2.969    -0.072    29.798     8.954
    19   6 C        2.959    -0.048    29.197     8.863
    20   6 C        2.912     0.075    26.315     8.412
    21   7 N        2.801    -0.037    21.951     6.959
    22   6 C        3.068     0.044    26.934     8.510
    23   6 C        2.910    -0.051    29.258     8.870
    24   6 C        2.924    -0.033    28.816     8.803
    25   6 C        2.920    -0.040    28.991     8.830
    26   6 C        2.913    -0.033    28.813     8.802
    27   6 C        3.065    -0.015    28.308     8.725
    28   6 C        3.066    -0.015    28.309     8.725
    29   6 C        2.913    -0.033    28.826     8.804
    30   6 C        2.920    -0.040    28.990     8.829
    31   6 C        2.924    -0.033    28.813     8.803
    32   6 C        2.910    -0.050    29.253     8.869
    33   6 C        3.068     0.045    26.932     8.510
    34   6 C        2.925    -0.057    29.412     8.894
    35   6 C        2.912     0.076    26.310     8.411
    36   7 N        2.801    -0.037    21.962     6.960
    37   6 C        3.068     0.044    26.936     8.510
    38   6 C        2.910    -0.051    29.258     8.869
    39   6 C        2.924    -0.033    28.817     8.803
    40   6 C        2.920    -0.040    28.993     8.830
    41   6 C        2.913    -0.033    28.813     8.802
    42   6 C        3.065    -0.015    28.310     8.725
    43   6 C        3.066    -0.015    28.311     8.725
    44   6 C        2.912    -0.033    28.826     8.804
    45   6 C        2.920    -0.040    28.992     8.830
    46   6 C        2.924    -0.033    28.813     8.803
    47   6 C        2.909    -0.051    29.261     8.870
    48   6 C        3.068     0.044    26.935     8.510
    49   6 C        2.964    -0.051    29.253     8.871
    50   6 C        2.953    -0.023    28.568     8.767
    51   6 C        2.923    -0.032    28.791     8.799
    52   6 C        2.927     0.056    26.742     8.481
    53   6 C        2.924    -0.061    29.508     8.908
    54   6 C        2.919    -0.034    28.848     8.808
    55   6 C        2.917    -0.045    29.118     8.849
    56   6 C        2.928    -0.037    28.912     8.818
    57   6 C        2.979    -0.012    28.305     8.727
    58   1 H        0.925     0.043     2.408     2.427
    59   1 H        0.925     0.043     2.415     2.430
    60   1 H        0.925     0.031     2.572     2.508
    61   1 H        0.925     0.043     2.409     2.427
    62   1 H        0.925     0.043     2.414     2.429
    63   1 H        0.925     0.031     2.570     2.507
    64   1 H        0.926     0.035     2.510     2.478
    65   1 H        0.926     0.028     2.619     2.531
    66   1 H        0.926     0.027     2.622     2.532
    67   1 H        0.926     0.023     2.692     2.566
    68   1 H        0.926     0.070     2.084     2.258
    69   1 H        0.926     0.062     2.175     2.306
    70   1 H        0.926     0.069     2.097     2.265
    71   1 H        0.926     0.032     2.558     2.501
    72   1 H        0.926     0.037     2.496     2.470
    73   1 H        0.926     0.034     2.535     2.490
    74   1 H        0.926     0.036     2.501     2.473
    75   1 H        0.926     0.037     2.483     2.464
    76   1 H        0.926     0.034     2.537     2.491
    77   1 H        0.926     0.033     2.547     2.496
    78   1 H        0.926     0.028     2.615     2.529
    79   1 H        0.926     0.074     2.045     2.236
    80   1 H        0.926     0.031     2.567     2.506
    81   1 H        0.926     0.036     2.499     2.472
    82   1 H        0.926     0.034     2.537     2.491
    83   1 H        0.926     0.036     2.501     2.473
    84   1 H        0.926     0.037     2.485     2.465
    85   1 H        0.926     0.033     2.538     2.491
    86   1 H        0.926     0.033     2.545     2.494
    87   1 H        0.926     0.029     2.600     2.521
    88   1 H        0.926     0.064     2.150     2.293
    89   1 H        0.926     0.067     2.117     2.275
    90   1 H        0.926     0.070     2.088     2.260
    91   1 H        0.926     0.024     2.677     2.559
    92   1 H        0.926     0.029     2.594     2.518
    93   1 H        0.926     0.028     2.610     2.526
    94   1 H        0.926     0.035     2.513     2.479

molecular dipole:
                 x           y           z       tot (Debye)
 q only:        0.579       0.883       2.782
   full:        0.561       0.767       2.417       6.601

 projected vibrational frequencies (cm⁻¹)
eigval :       -0.00    -0.00     0.00     0.00     0.00     0.00
eigval :       -3.40     6.58    12.68    12.73    20.38    21.36
eigval :       24.85    32.12    34.97    40.85    47.75    55.58
eigval :       61.14    82.40    98.28    98.54   101.81   109.78
eigval :      118.23   134.31   138.12   139.55   140.23   141.05
eigval :      155.53   169.73   185.49   199.19   206.97   208.82
eigval :      220.69   234.65   240.24   247.24   249.50   266.43
eigval :      270.08   273.63   291.41   297.05   305.44   321.73
eigval :      327.10   331.95   340.77   349.51   365.04   369.89
eigval :      376.82   378.97   391.37   395.03   403.95   407.52
eigval :      411.44   419.62   422.42   435.32   437.53   449.84
eigval :      452.31   477.48   489.62   494.10   512.02   515.23
eigval :      517.56   519.45   521.54   527.08   539.45   540.39
eigval :      547.50   547.84   562.39   566.26   580.01   585.04
eigval :      587.45   591.72   598.29   603.97   618.40   642.36
eigval :      645.23   651.77   668.86   672.62   674.37   682.75
eigval :      688.35   691.60   693.76   707.46   709.79   747.85
eigval :      747.99   754.22   765.18   768.24   769.09   775.26
eigval :      777.05   777.72   778.91   781.06   813.77   827.15
eigval :      837.29   861.66   866.63   867.18   868.52   869.26
eigval :      877.84   879.35   891.57   894.78   897.14   898.34
eigval :      899.20   904.95   906.71   910.44   912.22   913.90
eigval :      914.98   915.54   918.53   921.33   922.24   922.32
eigval :      922.90   924.74   925.45   931.01   932.78   938.73
eigval :      957.92   992.28  1003.28  1010.29  1012.01  1013.90
eigval :     1029.89  1065.96  1070.15  1072.77  1073.36  1074.25
eigval :     1075.85  1083.90  1105.19  1110.31  1112.30  1113.08
eigval :     1116.53  1118.36  1123.74  1139.49  1147.08  1151.69
eigval :     1158.63  1161.77  1165.79  1173.95  1175.73  1176.50
eigval :     1177.87  1179.34  1184.78  1186.79  1195.37  1201.68
eigval :     1203.04  1208.76  1229.19  1233.35  1233.64  1242.39
eigval :     1243.39  1249.15  1249.32  1267.26  1291.75  1293.08
eigval :     1293.15  1296.10  1298.74  1309.02  1310.20  1311.39
eigval :     1322.96  1331.75  1332.33  1333.42  1354.02  1354.38
eigval :     1355.20  1358.90  1371.07  1391.61  1400.33  1411.89
eigval :     1415.42  1418.88  1424.35  1425.66  1434.39  1438.57
eigval :     1454.47  1455.31  1456.16  1473.27  1473.42  1476.03
eigval :     1484.75  1485.11  1486.66  1487.88  1492.97  1496.60
eigval :     1503.07  1539.49  1568.20  1573.24  1573.38  1574.55
eigval :     1575.99  1580.28  1588.03  1588.36  1589.52  1590.28
eigval :     1597.64  1597.87  1599.54  1611.01  1611.45  3021.96
eigval :     3024.52  3040.33  3042.38  3048.79  3052.87  3073.57
eigval :     3074.29  3074.38  3074.78  3076.82  3076.97  3080.37
eigval :     3080.37  3081.04  3081.45  3083.31  3083.53  3087.54
eigval :     3087.92  3091.58  3091.81  3092.15  3092.32  3094.98
eigval :     3095.17  3095.21  3096.20  3098.37  3099.56  3099.91
eigval :     3101.42  3104.68  3105.48  3109.47  3117.46  3119.19

   temp. (K)  partition function   enthalpy   heat capacity  entropy
                                   cal/mol     cal/K/mol   cal/K/mol   J/K/mol
 298.15  VIB  0.725E+23            27667.045    172.914    173.370
         ROT  0.150E+09              888.752      2.981     40.399
         INT  0.109E+32            28555.797    175.895    213.768
         TR   0.201E+29             1481.254      4.968     45.727
         TOT                       30037.0514   180.8627   259.4950  1085.7271

       T/K    H(0)-H(T)+PV         H(T)/Eh          T*S/Eh         G(T)/Eh
   ------------------------------------------------------------------------
    298.15    0.478671E-01    0.769992E+00    0.123294E+00    0.646697E+00
   ------------------------------------------------------------------------

         :::::::::::::::::::::::::::::::::::::::::::::::::::::
         ::                  THERMODYNAMIC                  ::
         :::::::::::::::::::::::::::::::::::::::::::::::::::::
         :: total free energy        -147.724019355792 Eh   ::
         ::.................................................::
         :: total energy             -148.370716717305 Eh   ::
         :: zero point energy           0.722124718133 Eh   ::
         :: G(RRHO) w/o ZPVE           -0.075427356621 Eh   ::
         :: G(RRHO) contrib.            0.646697361512 Eh   ::
         :::::::::::::::::::::::::::::::::::::::::::::::::::::

           -------------------------------------------------
          | TOTAL ENERGY             -148.370716717305 Eh   |
          | TOTAL ENTHALPY           -147.600724910925 Eh   |
          | TOTAL FREE ENERGY        -147.724019355792 Eh   |
          | GRADIENT NORM               0.000057092175 Eh/α |
          | HOMO-LUMO GAP               1.992297528386 eV   |
           -------------------------------------------------

 * finished run on 2025/07/19 at 11:49:50.282
