   * xtb version 6.7.1 (edcfbbe) compiled by 'albert@albert-system' on 2024-07-22

   ID    Z sym.   atoms
    1    6 C      1-27
    2    7 N      28
    3    1 H      29-51

          program call               : xtb data2507/toluene/MPAc/MPAc_toluene_T1_crest.xyz --gfn 2 --uhf 2 --gbsa toluene --ohess vtight --parallel 40 --molden --ceasefiles --namespace data2507/toluene/MPAc/MPAc_toluene_T1_finalOpt
      * Solvation model:               GBSA
        Solvent                        toluene
        Solvent mass                       9.2140E+01 g/mol
          :  Hamiltonian                  GFN2-xTB          :
 * total energy  :   -72.4002869 Eh     change       -0.2364345E-08 Eh
 * total energy  :   -72.4003105 Eh     change       -0.2357424E-04 Eh
 * total energy  :   -72.4003154 Eh     change       -0.4966486E-05 Eh
 * total energy  :   -72.4003172 Eh     change       -0.1729253E-05 Eh
 * total energy  :   -72.4003186 Eh     change       -0.1476829E-05 Eh
 * total energy  :   -72.4003200 Eh     change       -0.1385757E-05 Eh
 * total energy  :   -72.4003214 Eh     change       -0.1342700E-05 Eh
 * total energy  :   -72.4003224 Eh     change       -0.9861239E-06 Eh
 * total energy  :   -72.4003229 Eh     change       -0.5591119E-06 Eh
 * total energy  :   -72.4003233 Eh     change       -0.3795135E-06 Eh
 * total energy  :   -72.4003236 Eh     change       -0.3183925E-06 Eh
 * total energy  :   -72.4003239 Eh     change       -0.2374878E-06 Eh
 * total energy  :   -72.4003240 Eh     change       -0.1744430E-06 Eh
 * total energy  :   -72.4003242 Eh     change       -0.1430058E-06 Eh
 * total energy  :   -72.4003243 Eh     change       -0.1054638E-06 Eh
 * total energy  :   -72.4003244 Eh     change       -0.9463251E-07 Eh
   *** GEOMETRY OPTIMIZATION CONVERGED AFTER 16 ITERATIONS ***

 final structure:
================
51
 xtb: 6.7.1 (edcfbbe)
C            5.07476119329178        0.20916884614936       -0.04539332981648
C            3.73109274404507        0.75830147573941        0.30511535862710
C            3.63560402066221        2.01972573062153        0.95514361662383
C            2.41869347303773        2.53422699907647        1.28752898651353
C            1.23320299727127        1.82343773032828        0.99636847703311
C            1.31027453195445        0.54784218983912        0.33720620322006
C            2.56106704271694        0.06741604666664        0.00895630011689
C            0.04689315671318       -0.18346758538551       -0.03253981318499
C           -0.28224092557339        0.04321747353819       -1.50786947522583
C           -1.04608123270601       -0.88085571478657       -2.23104905314554
C           -1.38199790480165       -0.64383220376916       -3.54762321666293
C           -0.98242667861979        0.52442383388154       -4.18105423352358
C           -0.23329983781627        1.45381273858353       -3.46888843517147
C            0.11184701891837        1.21772472020935       -2.15517741590463
C            0.25435814733633       -1.63686468401378        0.35004918554510
C            0.79131603067154       -2.56770935480040       -0.53677970593667
C            1.01444356546898       -3.87373963726011       -0.13639465983960
C            0.71586671626196       -4.27165137126433        1.15514658560628
C            0.19822599109878       -3.34616456788696        2.05045111936524
C           -0.02799148031541       -2.04311068165962        1.65055262900711
C           -1.19354945029000        0.39740611543634        0.58614274084117
C           -2.41891137742902       -0.25687384529965        0.55972281245551
C           -3.58740124792280        0.33275846144013        0.99608688303820
C           -4.89127367053686       -0.39368780357018        0.98101108710801
C           -3.54847818340482        1.68082669380876        1.48435626587074
C           -2.36193142747963        2.34917199376659        1.55525984749624
C           -1.16643481202919        1.73500913014292        1.14387891731492
N            0.02630543839397        2.35153642605659        1.31857639797216
H            5.69202853475788        0.10971362249982        0.84886612601451
H            4.98665416393126       -0.76566483632148       -0.51833597834147
H            5.59665781126611        0.88259355065114       -0.72752958403612
H            4.54069916331451        2.56315865763648        1.18059956259289
H            2.33813379833970        3.49450892678966        1.77896075518150
H            2.63890385885041       -0.88482023359564       -0.49399658547684
H           -1.37579923050813       -1.79468077296022       -1.76040652339620
H           -1.96652450870792       -1.37648050296197       -4.08709634095133
H           -1.25042405647378        0.70926518834653       -5.21076348474016
H            0.08748044040909        2.36847151400985       -3.94801467990126
H            0.70560732473648        1.94951805070721       -1.62678718367010
H            1.03071425220257       -2.27319873463729       -1.54872224138784
H            1.42602204421196       -4.58406575180648       -0.83999756661618
H            0.88800963269166       -5.29219006390729        1.46499273472696
H           -0.02922773614451       -3.64324139363054        3.06436132117352
H           -0.43149945573722       -1.32782568684048        2.35354732425370
H           -2.45538050352786       -1.27076043326553        0.18833213664625
H           -5.61818698437252        0.14473633807690        0.37084807156417
H           -4.77541525905836       -1.39820189746565        0.58171271775952
H           -5.30153323491216       -0.46251840565455        1.99009847457108
H           -4.46676703538279        2.14836671152606        1.80314900179068
H           -2.31919805859236        3.35841924290167        1.94334675299593
H            0.01937590798822        3.26999467941325        1.75018075410342

          :  Hamiltonian                  GFN2-xTB          :
         :: gradient norm              0.000041046179 Eh/a0 ::
         :: HOMO-LUMO gap              0.430148396137 eV    ::
         :: SCC energy               -73.735935623687 Eh    ::
         :: -> dispersion             -0.068414215352 Eh    ::
         :: -> Gsolv                  -0.028564723411 Eh    ::
         :: repulsion energy           1.335611255550 Eh    ::

    * Orbital Energies and Occupations

         #    Occupation            Energy/Eh            Energy/eV
      -------------------------------------------------------------
         1        2.0000           -0.6770345             -18.4230
       ...           ...                  ...                  ...
        57        2.0000           -0.4209777             -11.4554
        58        2.0000           -0.4167780             -11.3411
        59        2.0000           -0.4118228             -11.2063
        60        2.0000           -0.4081137             -11.1053
        61        2.0000           -0.4042178             -10.9993
        62        2.0000           -0.3970505             -10.8043
        63        2.0000           -0.3949625             -10.7475
        64        2.0000           -0.3916919             -10.6585
        65        2.0000           -0.3905547             -10.6275
        66        2.0000           -0.3846699             -10.4674
        67        2.0000           -0.3789316             -10.3113
        68        1.0000           -0.3439573              -9.3596
        69        0.9998           -0.2367379              -6.4420 (HOMO)
        70        0.0002           -0.2209302              -6.0118 (LUMO)
        71        0.0000           -0.2178881              -5.9290
        72        0.0000           -0.2164417              -5.8897
        73        0.0000           -0.2135897              -5.8121
        74                         -0.2102169              -5.7203
        75                         -0.2023554              -5.5064
        76                         -0.1916877              -5.2161
        77                         -0.1008344              -2.7438
        78                         -0.0894761              -2.4348
        79                         -0.0864236              -2.3517
        80                         -0.0761074              -2.0710
       ...                                ...                  ...
       135                          0.6691893              18.2096
      -------------------------------------------------------------
                  HL-Gap            0.0158077 Eh            0.4301 eV

     #   Z          covCN         q      C6AA      α(0)
     1   6 C        3.757    -0.107    22.596     6.777
     2   6 C        2.962     0.002    27.989     8.678
     3   6 C        2.916    -0.048    29.198     8.861
     4   6 C        2.912    -0.054    29.349     8.883
     5   6 C        2.915     0.034    27.231     8.557
     6   6 C        2.978    -0.006    28.177     8.707
     7   6 C        2.918    -0.046    29.134     8.851
     8   6 C        3.921     0.018    20.204     6.388
     9   6 C        3.016     0.007    27.840     8.655
    10   6 C        2.921    -0.043    29.067     8.841
    11   6 C        2.918    -0.035    28.870     8.811
    12   6 C        2.917    -0.048    29.199     8.861
    13   6 C        2.918    -0.037    28.929     8.820
    14   6 C        2.921    -0.044    29.081     8.843
    15   6 C        2.981     0.011    27.761     8.643
    16   6 C        2.922    -0.038    28.957     8.825
    17   6 C        2.919    -0.033    28.827     8.805
    18   6 C        2.919    -0.039    28.961     8.825
    19   6 C        2.919    -0.035    28.865     8.810
    20   6 C        2.924    -0.036    28.897     8.816
    21   6 C        3.013    -0.014    28.334     8.732
    22   6 C        2.915    -0.045    29.114     8.848
    23   6 C        2.960     0.004    27.928     8.668
    24   6 C        3.757    -0.106    22.583     6.775
    25   6 C        2.915    -0.057    29.421     8.895
    26   6 C        2.910    -0.053    29.316     8.878
    27   6 C        2.913     0.034    27.247     8.559
    28   7 N        2.701    -0.062    22.440     7.036
    29   1 H        0.924     0.049     2.327     2.385
    30   1 H        0.925     0.042     2.427     2.436
    31   1 H        0.924     0.050     2.319     2.382
    32   1 H        0.926     0.034     2.535     2.490
    33   1 H        0.925     0.030     2.589     2.516
    34   1 H        0.926     0.034     2.537     2.491
    35   1 H        0.926     0.025     2.662     2.551
    36   1 H        0.925     0.021     2.724     2.581
    37   1 H        0.926     0.018     2.767     2.601
    38   1 H        0.925     0.020     2.736     2.587
    39   1 H        0.926     0.018     2.757     2.596
    40   1 H        0.926     0.029     2.602     2.522
    41   1 H        0.925     0.025     2.658     2.549
    42   1 H        0.926     0.025     2.663     2.552
    43   1 H        0.926     0.026     2.643     2.543
    44   1 H        0.926     0.026     2.650     2.546
    45   1 H        0.926     0.028     2.609     2.526
    46   1 H        0.924     0.050     2.321     2.383
    47   1 H        0.925     0.041     2.436     2.441
    48   1 H        0.924     0.050     2.318     2.381
    49   1 H        0.926     0.030     2.588     2.516
    50   1 H        0.925     0.028     2.617     2.530
    51   1 H        0.860     0.179     1.220     1.730

molecular dipole:
                 x           y           z       tot (Debye)
 q only:        0.201       0.803       0.899
   full:        0.178       0.969       0.935       3.453

 projected vibrational frequencies (cm⁻¹)
eigval :       -0.00    -0.00    -0.00    -0.00     0.00     0.00
eigval :       24.03    39.81    50.61    58.46    61.55    68.31
eigval :       75.18    80.05    90.69    98.00   149.39   159.56
eigval :      182.42   195.92   223.85   234.69   252.22   256.43
eigval :      275.93   296.31   298.17   336.02   345.94   366.96
eigval :      373.93   377.62   388.39   389.88   414.55   435.57
eigval :      458.33   483.13   488.23   504.84   568.22   575.78
eigval :      584.52   586.83   594.68   607.08   614.70   634.01
eigval :      645.49   658.88   669.25   670.44   721.19   739.50
eigval :      764.56   768.24   778.50   784.78   824.97   838.98
eigval :      856.35   864.39   870.76   876.73   879.65   884.63
eigval :      888.04   891.16   899.46   915.60   920.86   924.30
eigval :      930.61   940.97   955.21   968.97   982.36   999.40
eigval :     1006.10  1013.42  1016.64  1077.40  1081.26  1104.71
eigval :     1110.91  1122.91  1129.63  1158.32  1164.61  1172.18
eigval :     1177.96  1180.00  1190.25  1192.81  1198.33  1208.27
eigval :     1219.69  1223.86  1242.38  1251.69  1280.87  1287.44
eigval :     1300.30  1306.18  1323.72  1328.91  1335.14  1367.53
eigval :     1375.76  1396.29  1398.98  1411.41  1419.70  1421.86
eigval :     1430.74  1446.49  1452.48  1456.74  1467.26  1468.06
eigval :     1469.45  1480.36  1487.97  1490.55  1497.61  1526.72
eigval :     1527.46  1547.57  1559.48  1582.64  2971.31  2971.74
eigval :     2990.82  2991.30  3040.39  3042.54  3050.79  3056.09
eigval :     3058.35  3060.90  3061.78  3064.04  3072.22  3075.19
eigval :     3076.39  3077.89  3082.29  3085.31  3086.80  3088.98
eigval :     3091.00  3094.47  3352.09

   temp. (K)  partition function   enthalpy   heat capacity  entropy
                                   cal/mol     cal/K/mol   cal/K/mol   J/K/mol
 298.15  VIB  0.263E+10            13684.410     89.282     84.138
         ROT  0.113E+08              888.752      2.981     35.256
         INT  0.297E+17            14573.162     92.263    119.395
         TR   0.665E+28             1481.254      4.968     43.529
         TOT                       16054.4159    97.2310   162.9232   681.6706

       T/K    H(0)-H(T)+PV         H(T)/Eh          T*S/Eh         G(T)/Eh
   ------------------------------------------------------------------------
    298.15    0.255843E-01    0.429382E+00    0.774101E-01    0.351972E+00
   ------------------------------------------------------------------------

         :::::::::::::::::::::::::::::::::::::::::::::::::::::
         ::                  THERMODYNAMIC                  ::
         :::::::::::::::::::::::::::::::::::::::::::::::::::::
         :: total free energy         -72.048352388340 Eh   ::
         ::.................................................::
         :: total energy              -72.400324366290 Eh   ::
         :: zero point energy           0.403797693913 Eh   ::
         :: G(RRHO) w/o ZPVE           -0.051825715963 Eh   ::
         :: G(RRHO) contrib.            0.351971977950 Eh   ::
         :::::::::::::::::::::::::::::::::::::::::::::::::::::

           -------------------------------------------------
          | TOTAL ENERGY              -72.400324366290 Eh   |
          | TOTAL ENTHALPY            -71.970942332124 Eh   |
          | TOTAL FREE ENERGY         -72.048352388340 Eh   |
          | GRADIENT NORM               0.000040320510 Eh/α |
          | HOMO-LUMO GAP               0.430149938119 eV   |
           -------------------------------------------------

 * finished run on 2025/09/09 at 23:59:54.005
