   * xtb version 6.7.1 (edcfbbe) compiled by 'albert@albert-system' on 2024-07-22

   ID    Z sym.   atoms
    1    6 C      1-27
    2    7 N      28
    3    1 H      29-51

          program call               : xtb data2507/toluene/MPAc/MPAc.xyz --gfn 2 --gbsa toluene --ohess vtight --parallel 40 --molden --ceasefiles --namespace data2507/toluene/MPAc/MPAc_toluene_S0_preOpt
      * Solvation model:               GBSA
        Solvent                        toluene
        Solvent mass                       9.2140E+01 g/mol
          :  Hamiltonian                  GFN2-xTB          :
 * total energy  :   -72.4975866 Eh     change       -0.9501520E-09 Eh
 * total energy  :   -72.5087263 Eh     change       -0.1113962E-01 Eh
 * total energy  :   -72.5122579 Eh     change       -0.3531591E-02 Eh
 * total energy  :   -72.5127723 Eh     change       -0.5144808E-03 Eh
 * total energy  :   -72.5129804 Eh     change       -0.2080799E-03 Eh
 * total energy  :   -72.5130492 Eh     change       -0.6879267E-04 Eh
 * total energy  :   -72.5130839 Eh     change       -0.3466975E-04 Eh
 * total energy  :   -72.5130900 Eh     change       -0.6140503E-05 Eh
 * total energy  :   -72.5130919 Eh     change       -0.1892416E-05 Eh
 * total energy  :   -72.5130929 Eh     change       -0.9427268E-06 Eh
 * total energy  :   -72.5130947 Eh     change       -0.1269079E-07 Eh
 * total energy  :   -72.5130949 Eh     change       -0.2120812E-06 Eh
 * total energy  :   -72.5130952 Eh     change       -0.2795825E-06 Eh
 * total energy  :   -72.5130954 Eh     change       -0.2549652E-06 Eh
 * total energy  :   -72.5130957 Eh     change       -0.2875604E-06 Eh
 * total energy  :   -72.5130960 Eh     change       -0.2805503E-06 Eh
 * total energy  :   -72.5130962 Eh     change       -0.2385224E-06 Eh
 * total energy  :   -72.5130964 Eh     change       -0.2239868E-06 Eh
 * total energy  :   -72.5130965 Eh     change       -0.5338786E-07 Eh
   *** GEOMETRY OPTIMIZATION CONVERGED AFTER 22 ITERATIONS ***

 final structure:
================
51
 xtb: 6.7.1 (edcfbbe)
C            5.01682668622676       -0.19677672622341       -0.05812404297582
C            3.69275613044645       -0.90097497398502       -0.04641155743556
C            3.61796969994177       -2.28777681817011       -0.01377388205321
C            2.39341142424709       -2.92212171745090        0.00728507954847
C            1.21005014965051       -2.18464974446613        0.00435951638757
C            1.26402478302974       -0.78849931703481       -0.01371878048275
C            2.50803009388338       -0.17720804218977       -0.04399255678289
C            0.00001340314107        0.06423361060243        0.00004930510539
C            0.07981449050579        0.89339530710409        1.27719589859424
C           -0.41694447769215        0.36620628105477        2.46441718852387
C           -0.30378481893179        1.06153418172617        3.65503854525448
C            0.32018768623187        2.29675198338461        3.68426845371479
C            0.83566847288758        2.82339253162528        2.51291949542853
C            0.72087486028467        2.12668636255164        1.32240095034101
C           -0.07977796375897        0.89382384063655       -1.27682611795486
C           -0.72089680752695        2.12709872259601       -1.32163913348851
C           -0.83569971156220        2.82418911509560       -2.51193144586983
C           -0.32017086093831        2.29795749056651       -3.68344329671298
C            0.30386249709428        1.06276163553759       -3.65460621808781
C            0.41703600010659        0.36705209535003       -2.46420919397259
C           -1.26402453719717       -0.78846489030132        0.01349841042088
C           -2.50800715191200       -0.17714550429192        0.04420790958281
C           -3.69275762532003       -0.90087000364572        0.04621998818286
C           -5.01681224121464       -0.19664998329271        0.05833683478413
C           -3.61802183645156       -2.28765587209343        0.01274222950319
C           -2.39348913546020       -2.92203294236507       -0.00873667839444
C           -1.21010095087470       -2.18460453477702       -0.00542988265422
N           -0.00003655227271       -2.83870303140135       -0.00077673989990
H            5.31736558585289        0.05180873574586        0.96095619534921
H            5.78809745120459       -0.82853868146042       -0.49314830720112
H            4.95707833062168        0.72964953599404       -0.62545530469833
H            4.52421426509677       -2.87647047759566       -0.01136110969879
H            2.33891635455307       -4.00208772210746        0.02150912587117
H            2.56006831513059        0.90032001338477       -0.07510412692276
H           -0.90203737760471       -0.59942317892664        2.45848506446176
H           -0.70305393112109        0.63404515530915        4.56377969940196
H            0.40769605470344        2.84236376406805        4.61266871952332
H            1.33216529469639        3.78349301700573        2.52295203652496
H            1.12909228769756        2.56010814708608        0.42116890321374
H           -1.12915918767627        2.56020396833085       -0.42027577453016
H           -1.33223983519950        3.78427008305559       -2.52166008809909
H           -0.40768353570140        2.84387062125770       -4.61166602374352
H            0.70317285846070        0.63559058519905       -4.56347911141195
H            0.90218262153635       -0.59855185760208       -2.45857888445729
H           -2.56000118513657        0.90036572483245        0.07597421959282
H           -5.78802594597677       -0.82851394455836        0.49331671283903
H           -4.95696049140068        0.72962932420301        0.62589463572730
H           -5.31750688961850        0.05219376039712       -0.96063539737069
H           -4.52429000824781       -2.87631137737735        0.01000174342224
H           -2.33903352594779       -4.00199225366499       -0.02360812024608
H           -0.00005421248704       -3.84697199871913       -0.00105308615465

          :  Hamiltonian                  GFN2-xTB          :
         :: gradient norm              0.000066073749 Eh/a0 ::
         :: HOMO-LUMO gap              3.093002521838 eV    ::
         :: SCC energy               -73.870195425292 Eh    ::
         :: -> dispersion             -0.068260591328 Eh    ::
         :: -> Gsolv                  -0.027735794547 Eh    ::
         :: repulsion energy           1.357098929268 Eh    ::

    * Orbital Energies and Occupations

         #    Occupation            Energy/Eh            Energy/eV
      -------------------------------------------------------------
         1        2.0000           -0.6639038             -18.0657
       ...           ...                  ...                  ...
        56        2.0000           -0.4236975             -11.5294
        57        2.0000           -0.4210051             -11.4561
        58        2.0000           -0.4203065             -11.4371
        59        2.0000           -0.4126404             -11.2285
        60        2.0000           -0.4112209             -11.1899
        61        2.0000           -0.4040854             -10.9957
        62        2.0000           -0.4003766             -10.8948
        63        2.0000           -0.3998111             -10.8794
        64        2.0000           -0.3917590             -10.6603
        65        2.0000           -0.3893216             -10.5940
        66        2.0000           -0.3872732             -10.5382
        67        2.0000           -0.3860344             -10.5045
        68        2.0000           -0.3424438              -9.3184 (HOMO)
        69                         -0.2287781              -6.2254 (LUMO)
        70                         -0.2226520              -6.0587
        71                         -0.2201920              -5.9917
        72                         -0.2181839              -5.9371
        73                         -0.2173265              -5.9138
        74                         -0.2126831              -5.7874
        75                         -0.2091800              -5.6921
        76                         -0.1840107              -5.0072
        77                         -0.0941427              -2.5618
        78                         -0.0915845              -2.4921
        79                         -0.0848500              -2.3089
       ...                                ...                  ...
       135                          0.6793173              18.4852
      -------------------------------------------------------------
                  HL-Gap            0.1136657 Eh            3.0930 eV

     #   Z          covCN         q      C6AA      α(0)
     1   6 C        3.757    -0.107    22.601     6.778
     2   6 C        2.964     0.001    27.992     8.678
     3   6 C        2.924    -0.044    29.090     8.845
     4   6 C        2.922    -0.066    29.641     8.928
     5   6 C        2.918     0.060    26.656     8.466
     6   6 C        2.984    -0.011    28.277     8.723
     7   6 C        2.932    -0.049    29.207     8.863
     8   6 C        3.919     0.011    20.335     6.409
     9   6 C        2.980     0.013    27.715     8.636
    10   6 C        2.926    -0.036    28.895     8.815
    11   6 C        2.919    -0.032    28.798     8.800
    12   6 C        2.919    -0.034    28.856     8.809
    13   6 C        2.919    -0.033    28.813     8.802
    14   6 C        2.924    -0.035    28.866     8.811
    15   6 C        2.980     0.013    27.715     8.636
    16   6 C        2.924    -0.035    28.866     8.811
    17   6 C        2.919    -0.033    28.813     8.802
    18   6 C        2.919    -0.034    28.856     8.809
    19   6 C        2.919    -0.032    28.798     8.800
    20   6 C        2.926    -0.036    28.895     8.815
    21   6 C        2.984    -0.011    28.277     8.723
    22   6 C        2.932    -0.049    29.207     8.863
    23   6 C        2.964     0.001    27.992     8.678
    24   6 C        3.757    -0.107    22.601     6.778
    25   6 C        2.924    -0.044    29.090     8.845
    26   6 C        2.922    -0.066    29.641     8.928
    27   6 C        2.918     0.060    26.656     8.466
    28   7 N        2.704    -0.147    24.191     7.305
    29   1 H        0.924     0.045     2.383     2.414
    30   1 H        0.925     0.042     2.424     2.435
    31   1 H        0.925     0.042     2.423     2.434
    32   1 H        0.926     0.030     2.589     2.516
    33   1 H        0.925     0.024     2.670     2.555
    34   1 H        0.926     0.032     2.564     2.504
    35   1 H        0.926     0.026     2.645     2.543
    36   1 H        0.926     0.028     2.610     2.526
    37   1 H        0.926     0.029     2.603     2.523
    38   1 H        0.926     0.030     2.593     2.518
    39   1 H        0.926     0.033     2.551     2.498
    40   1 H        0.926     0.033     2.551     2.498
    41   1 H        0.926     0.030     2.593     2.518
    42   1 H        0.926     0.029     2.603     2.523
    43   1 H        0.926     0.028     2.610     2.526
    44   1 H        0.926     0.026     2.645     2.543
    45   1 H        0.926     0.032     2.564     2.504
    46   1 H        0.925     0.042     2.424     2.435
    47   1 H        0.925     0.042     2.423     2.434
    48   1 H        0.924     0.045     2.383     2.414
    49   1 H        0.926     0.030     2.589     2.516
    50   1 H        0.925     0.024     2.670     2.555
    51   1 H        0.860     0.161     1.332     1.808

molecular dipole:
                 x           y           z       tot (Debye)
 q only:       -0.000      -0.217      -0.000
   full:       -0.000      -0.382      -0.000       0.972

 projected vibrational frequencies (cm⁻¹)
eigval :       -0.00    -0.00    -0.00    -0.00     0.00     0.00
eigval :      -22.51    20.97    21.80    44.18    49.99    59.78
eigval :       65.49    74.11    84.22   101.35   149.84   154.82
eigval :      188.53   201.43   223.05   246.12   263.64   263.87
eigval :      301.86   302.04   328.33   344.01   353.12   376.46
eigval :      376.69   393.98   433.52   434.68   438.95   451.26
eigval :      458.03   489.32   503.38   519.93   549.93   577.23
eigval :      588.13   590.04   603.68   614.78   624.51   667.56
eigval :      669.07   677.27   688.01   689.83   740.11   762.48
eigval :      785.69   796.83   807.53   810.06   866.89   871.00
eigval :      872.50   880.85   884.49   896.91   902.74   906.07
eigval :      908.81   912.05   914.55   932.86   933.09   934.06
eigval :      953.93   959.14   988.72   992.99   999.28  1016.87
eigval :     1029.02  1034.87  1035.15  1087.83  1088.79  1123.36
eigval :     1125.76  1138.86  1141.20  1173.64  1181.33  1182.14
eigval :     1185.06  1192.10  1200.49  1210.25  1211.50  1232.44
eigval :     1233.78  1238.68  1262.97  1279.63  1290.91  1293.68
eigval :     1303.80  1315.07  1320.45  1334.17  1334.91  1389.16
eigval :     1403.19  1403.25  1423.08  1428.23  1434.79  1450.47
eigval :     1472.45  1475.09  1481.10  1481.20  1483.29  1484.93
eigval :     1502.91  1506.49  1575.24  1583.08  1584.15  1588.31
eigval :     1598.76  1600.80  1603.80  1611.56  2986.59  2986.64
eigval :     3028.81  3028.86  3033.03  3033.11  3058.81  3059.07
eigval :     3064.93  3065.16  3067.77  3068.12  3076.34  3076.45
eigval :     3076.74  3077.06  3080.38  3081.23  3087.39  3088.23
eigval :     3098.02  3098.60  3443.20

   temp. (K)  partition function   enthalpy   heat capacity  entropy
                                   cal/mol     cal/K/mol   cal/K/mol   J/K/mol
 298.15  VIB  0.161E+10            12908.519     84.629     78.938
         ROT  0.565E+07              888.752      2.981     33.878
         INT  0.908E+16            13797.272     87.610    112.816
         TR   0.665E+28             1481.254      4.968     43.529
         TOT                       15278.5254    92.5781   156.3445   654.1455

       T/K    H(0)-H(T)+PV         H(T)/Eh          T*S/Eh         G(T)/Eh
   ------------------------------------------------------------------------
    298.15    0.243479E-01    0.433509E+00    0.742843E-01    0.359225E+00
   ------------------------------------------------------------------------

         :::::::::::::::::::::::::::::::::::::::::::::::::::::
         ::                  THERMODYNAMIC                  ::
         :::::::::::::::::::::::::::::::::::::::::::::::::::::
         :: total free energy         -72.153871738423 Eh   ::
         ::.................................................::
         :: total energy              -72.513096491031 Eh   ::
         :: zero point energy           0.409161200320 Eh   ::
         :: G(RRHO) w/o ZPVE           -0.049936447713 Eh   ::
         :: G(RRHO) contrib.            0.359224752607 Eh   ::
         :::::::::::::::::::::::::::::::::::::::::::::::::::::

           -------------------------------------------------
          | TOTAL ENERGY              -72.513096491031 Eh   |
          | TOTAL ENTHALPY            -72.079587410597 Eh   |
          | TOTAL FREE ENERGY         -72.153871738423 Eh   |
          | GRADIENT NORM               0.000066091416 Eh/α |
          | HOMO-LUMO GAP               3.093002179856 eV   |
           -------------------------------------------------

 * finished run on 2025/09/09 at 23:56:02.724
