   * xtb version 6.7.1 (edcfbbe) compiled by 'albert@albert-system' on 2024-07-22

   ID    Z sym.   atoms
    1    6 C      1-27
    2    7 N      28
    3    1 H      29-51

          program call               : xtb data2507/toluene/MPAc/MPAc_toluene_S0_finalOpt.xtbopt.xyz --gfn 2 --uhf 2 --gbsa toluene --ohess vtight --parallel 40 --molden --ceasefiles --namespace data2507/toluene/MPAc/MPAc_toluene_T1_preOpt
      * Solvation model:               GBSA
        Solvent                        toluene
        Solvent mass                       9.2140E+01 g/mol
          :  Hamiltonian                  GFN2-xTB          :
 * total energy  :   -72.3853826 Eh     change       -0.8457874E-09 Eh
 * total energy  :   -72.3908750 Eh     change       -0.5492458E-02 Eh
 * total energy  :   -72.3941140 Eh     change       -0.3238968E-02 Eh
 * total energy  :   -72.3946570 Eh     change       -0.5429467E-03 Eh
 * total energy  :   -72.3951025 Eh     change       -0.4455726E-03 Eh
 * total energy  :   -72.3951928 Eh     change       -0.9027191E-04 Eh
 * total energy  :   -72.3952961 Eh     change       -0.1033444E-03 Eh
 * total energy  :   -72.3953450 Eh     change       -0.4885050E-04 Eh
 * total energy  :   -72.3953847 Eh     change       -0.3970428E-04 Eh
 * total energy  :   -72.3954321 Eh     change       -0.4741907E-04 Eh
 * total energy  :   -72.4002793 Eh     change       -0.1277540E-05 Eh
 * total energy  :   -72.4002799 Eh     change       -0.6026497E-06 Eh
 * total energy  :   -72.4002802 Eh     change       -0.3114415E-06 Eh
 * total energy  :   -72.4002802 Eh     change        0.5256811E-07 Eh
 * total energy  :   -72.4002804 Eh     change       -0.2087849E-06 Eh
 * total energy  :   -72.4002806 Eh     change       -0.2392124E-06 Eh
 * total energy  :   -72.4002808 Eh     change       -0.1910685E-06 Eh
 * total energy  :   -72.4002810 Eh     change       -0.1390230E-06 Eh
 * total energy  :   -72.4002810 Eh     change       -0.9785424E-08 Eh
   *** GEOMETRY OPTIMIZATION CONVERGED AFTER 76 ITERATIONS ***

 final structure:
================
51
 xtb: 6.7.1 (edcfbbe)
C            4.97731312446276        0.13088527407196        0.52287532430967
C            3.60943663716501        0.70221515086052        0.69744870740293
C            3.47141368487887        2.02602594907939        1.23078313808787
C            2.23201424917302        2.55365461526508        1.44104955203040
C            1.07551199751898        1.81720381332298        1.12862882968342
C            1.19384183161383        0.50350847497622        0.52906123386103
C            2.47414006548357       -0.00713570503157        0.36106111501993
C           -0.03102548762826       -0.20779078286746        0.02583447447858
C            0.11990925220606        0.04212777392389       -1.47395153565565
C           -0.45583577292381        1.16879902944878       -2.06714291567322
C           -0.28121715395655        1.43166024051508       -3.40924165754062
C            0.47472220959214        0.57752078271920       -4.20372330223378
C            1.05739370263475       -0.54009496145824       -3.62401215203811
C            0.89180576222761       -0.80285255499464       -2.27967564763216
C           -0.04446535909530       -1.67173692912772        0.42670228162140
C           -0.55549084914231       -2.66729139526268       -0.40371936474371
C           -0.59353622204779       -3.98489495152860        0.01843640245090
C           -0.13557235845108       -4.33156582885797        1.27761489963760
C            0.35609726411722       -3.34316209552423        2.11911766266662
C            0.39879821344309       -2.02860232846927        1.69674422787342
C           -1.32472882120670        0.38158767298130        0.52253121620054
C           -2.54334487501305       -0.22028948222463        0.28539670605430
C           -3.74734337314386        0.33340620552255        0.70578277116629
C           -5.05321550938819       -0.34341160784287        0.44870092909552
C           -3.72548387811985        1.57859841929686        1.39410462073802
C           -2.54424118121527        2.21224201902479        1.63638529672911
C           -1.32235643869190        1.64224758109571        1.21501010795442
N           -0.15373747705503        2.29267592610563        1.43886078230746
H            4.93201346852712       -0.87887542552650        0.12259624877185
H            5.56250295960850        0.75138564452008       -0.15794243525805
H            5.50695687766216        0.10719762643662        1.47679281004608
H            4.36000525019909        2.58797834633837        1.47199795788062
H            2.11740436462634        3.54329731345955        1.86350060483713
H            2.58450191716133       -1.00254417524845       -0.04410201121273
H           -1.05781894277298        1.84042401596545       -1.47221265024864
H           -0.74157866580519        2.30732113402881       -3.84543273664375
H            0.60782792136798        0.78222580133329       -5.25573967217417
H            1.65174746814700       -1.21233934155591       -4.22764089570585
H            1.36225229916273       -1.67560046895099       -1.85270430482590
H           -0.91971326172216       -2.41449766833305       -1.38924522807045
H           -0.98718767440600       -4.74491094415519       -0.64220358646600
H           -0.16396178769394       -5.36095655460417        1.60419088876222
H            0.70696617430516       -3.60035902412642        3.10846289844960
H            0.78381069298150       -1.26488935574100        2.35788760548420
H           -2.56586477208495       -1.16059784551957       -0.24458799272977
H           -4.90710964810231       -1.29360262573231       -0.05880464510348
H           -5.58092120686622       -0.52474922610971        1.38631057738178
H           -5.69505744184392        0.28730698476938       -0.16903870973648
H           -4.65839082666308        2.01404404921033        1.71861215475972
H           -2.52030596678873        3.16167757818581        2.15420827637643
H           -0.20324330766267        3.19682116051414        1.89714333343505

          :  Hamiltonian                  GFN2-xTB          :
         :: gradient norm              0.000087023946 Eh/a0 ::
         :: HOMO-LUMO gap              0.429466784481 eV    ::
         :: SCC energy               -73.735975458515 Eh    ::
         :: -> dispersion             -0.068365550366 Eh    ::
         :: -> Gsolv                  -0.028534059254 Eh    ::
         :: repulsion energy           1.335694488538 Eh    ::

    * Orbital Energies and Occupations

         #    Occupation            Energy/Eh            Energy/eV
      -------------------------------------------------------------
         1        2.0000           -0.6770806             -18.4243
       ...           ...                  ...                  ...
        57        2.0000           -0.4208304             -11.4514
        58        2.0000           -0.4168096             -11.3420
        59        2.0000           -0.4117102             -11.2032
        60        2.0000           -0.4083099             -11.1107
        61        2.0000           -0.4042112             -10.9991
        62        2.0000           -0.3969037             -10.8003
        63        2.0000           -0.3950000             -10.7485
        64        2.0000           -0.3915928             -10.6558
        65        2.0000           -0.3905068             -10.6262
        66        2.0000           -0.3844453             -10.4613
        67        2.0000           -0.3792540             -10.3200
        68        1.0000           -0.3440765              -9.3628
        69        0.9997           -0.2366798              -6.4404 (HOMO)
        70        0.0002           -0.2208973              -6.0109 (LUMO)
        71        0.0000           -0.2177900              -5.9264
        72        0.0000           -0.2161402              -5.8815
        73                         -0.2131038              -5.7988
        74                         -0.2104379              -5.7263
        75                         -0.2029596              -5.5228
        76                         -0.1917503              -5.2178
        77                         -0.1007526              -2.7416
        78                         -0.0894289              -2.4335
        79                         -0.0860513              -2.3416
        80                         -0.0766608              -2.0860
       ...                                ...                  ...
       135                          0.6693640              18.2143
      -------------------------------------------------------------
                  HL-Gap            0.0157825 Eh            0.4295 eV

     #   Z          covCN         q      C6AA      α(0)
     1   6 C        3.757    -0.106    22.583     6.775
     2   6 C        2.960     0.004    27.934     8.669
     3   6 C        2.915    -0.057    29.408     8.893
     4   6 C        2.910    -0.053    29.314     8.878
     5   6 C        2.913     0.033    27.253     8.560
     6   6 C        3.009    -0.013    28.326     8.730
     7   6 C        2.916    -0.045    29.109     8.847
     8   6 C        3.921     0.018    20.206     6.389
     9   6 C        3.012     0.007    27.839     8.655
    10   6 C        2.921    -0.043    29.068     8.841
    11   6 C        2.918    -0.037    28.928     8.820
    12   6 C        2.918    -0.048    29.188     8.859
    13   6 C        2.918    -0.035    28.867     8.811
    14   6 C        2.921    -0.043    29.065     8.841
    15   6 C        2.982     0.011    27.765     8.643
    16   6 C        2.922    -0.039    28.968     8.826
    17   6 C        2.919    -0.033    28.829     8.805
    18   6 C        2.919    -0.039    28.972     8.827
    19   6 C        2.919    -0.035    28.871     8.811
    20   6 C        2.924    -0.036    28.902     8.816
    21   6 C        2.978    -0.007    28.179     8.708
    22   6 C        2.918    -0.045    29.129     8.850
    23   6 C        2.962     0.002    27.989     8.678
    24   6 C        3.757    -0.107    22.595     6.777
    25   6 C        2.916    -0.049    29.206     8.862
    26   6 C        2.912    -0.054    29.345     8.883
    27   6 C        2.915     0.034    27.239     8.558
    28   7 N        2.701    -0.062    22.435     7.035
    29   1 H        0.925     0.041     2.436     2.441
    30   1 H        0.924     0.050     2.319     2.382
    31   1 H        0.924     0.050     2.319     2.382
    32   1 H        0.926     0.030     2.585     2.514
    33   1 H        0.925     0.028     2.614     2.528
    34   1 H        0.926     0.029     2.606     2.524
    35   1 H        0.926     0.019     2.754     2.595
    36   1 H        0.926     0.020     2.733     2.585
    37   1 H        0.926     0.018     2.763     2.599
    38   1 H        0.925     0.021     2.720     2.579
    39   1 H        0.926     0.025     2.658     2.549
    40   1 H        0.926     0.029     2.605     2.524
    41   1 H        0.925     0.025     2.661     2.551
    42   1 H        0.926     0.024     2.668     2.554
    43   1 H        0.926     0.026     2.649     2.545
    44   1 H        0.926     0.025     2.659     2.550
    45   1 H        0.926     0.033     2.540     2.492
    46   1 H        0.925     0.042     2.428     2.437
    47   1 H        0.924     0.049     2.327     2.386
    48   1 H        0.924     0.050     2.319     2.381
    49   1 H        0.926     0.034     2.536     2.490
    50   1 H        0.925     0.030     2.589     2.516
    51   1 H        0.860     0.179     1.220     1.730

molecular dipole:
                 x           y           z       tot (Debye)
 q only:       -0.183       0.801       0.906
   full:       -0.176       0.966       0.948       3.469

 projected vibrational frequencies (cm⁻¹)
eigval :       -0.00    -0.00    -0.00     0.00     0.00     0.00
eigval :       18.86    40.87    45.40    55.48    57.87    62.29
eigval :       69.73    75.99    86.23    98.07   148.94   159.22
eigval :      182.10   196.29   223.28   234.25   251.60   254.97
eigval :      275.12   295.63   297.84   335.14   345.60   365.53
eigval :      373.68   376.56   387.51   389.79   414.40   437.09
eigval :      457.70   482.61   488.06   504.15   568.44   575.27
eigval :      584.18   586.49   594.42   607.17   614.44   632.84
eigval :      647.09   657.05   668.52   669.51   720.22   739.92
eigval :      762.18   766.12   778.21   785.19   824.05   839.46
eigval :      857.83   866.32   870.00   873.90   877.37   883.72
eigval :      887.38   891.38   896.68   912.83   916.67   923.65
eigval :      930.45   943.41   954.86   969.57   981.57   999.23
eigval :     1005.14  1014.11  1015.28  1077.55  1081.07  1104.94
eigval :     1110.93  1122.47  1128.66  1160.03  1165.00  1172.72
eigval :     1176.46  1179.51  1190.40  1193.23  1198.70  1207.91
eigval :     1219.93  1223.19  1240.87  1251.21  1281.27  1287.88
eigval :     1300.07  1305.58  1323.93  1328.57  1334.64  1367.53
eigval :     1376.02  1396.11  1398.57  1411.40  1421.19  1422.27
eigval :     1430.49  1445.40  1453.56  1456.46  1466.46  1467.91
eigval :     1468.66  1480.09  1487.21  1492.46  1499.86  1526.79
eigval :     1527.05  1544.96  1557.70  1582.48  2971.33  2971.48
eigval :     2990.73  2991.30  3041.01  3041.97  3050.63  3055.56
eigval :     3058.29  3059.34  3061.68  3063.01  3071.28  3075.56
eigval :     3076.07  3078.51  3082.25  3084.57  3086.78  3088.99
eigval :     3090.27  3094.09  3351.43

   temp. (K)  partition function   enthalpy   heat capacity  entropy
                                   cal/mol     cal/K/mol   cal/K/mol   J/K/mol
 298.15  VIB  0.501E+10            13743.576     88.984     84.825
         ROT  0.113E+08              888.752      2.981     35.257
         INT  0.567E+17            14632.328     91.965    120.082
         TR   0.665E+28             1481.254      4.968     43.529
         TOT                       16113.5823    96.9332   163.6112   684.5491

       T/K    H(0)-H(T)+PV         H(T)/Eh          T*S/Eh         G(T)/Eh
   ------------------------------------------------------------------------
    298.15    0.256786E-01    0.429287E+00    0.777369E-01    0.351550E+00
   ------------------------------------------------------------------------

         :::::::::::::::::::::::::::::::::::::::::::::::::::::
         ::                  THERMODYNAMIC                  ::
         :::::::::::::::::::::::::::::::::::::::::::::::::::::
         :: total free energy         -72.048731203025 Eh   ::
         ::.................................................::
         :: total energy              -72.400280969110 Eh   ::
         :: zero point energy           0.403608077939 Eh   ::
         :: G(RRHO) w/o ZPVE           -0.052058311854 Eh   ::
         :: G(RRHO) contrib.            0.351549766085 Eh   ::
         :::::::::::::::::::::::::::::::::::::::::::::::::::::

           -------------------------------------------------
          | TOTAL ENERGY              -72.400280969110 Eh   |
          | TOTAL ENTHALPY            -71.970994263286 Eh   |
          | TOTAL FREE ENERGY         -72.048731203025 Eh   |
          | GRADIENT NORM               0.000086888110 Eh/α |
          | HOMO-LUMO GAP               0.429465001759 eV   |
           -------------------------------------------------

 * finished run on 2025/09/09 at 23:57:54.209
