   * xtb version 6.7.1 (edcfbbe) compiled by 'albert@albert-system' on 2024-07-22

   ID    Z sym.   atoms
    1    6 C      1-27
    2    7 N      28
    3    1 H      29-51

          program call               : xtb data2507/toluene/MPAc/MPAc_toluene_S0_crest.xyz --gfn 2 --gbsa toluene --ohess vtight --parallel 40 --molden --ceasefiles --namespace data2507/toluene/MPAc/MPAc_toluene_S0_finalOpt
      * Solvation model:               GBSA
        Solvent                        toluene
        Solvent mass                       9.2140E+01 g/mol
          :  Hamiltonian                  GFN2-xTB          :
 * total energy  :   -72.5143390 Eh     change       -0.5434231E-09 Eh
 * total energy  :   -72.5143578 Eh     change       -0.1872466E-04 Eh
 * total energy  :   -72.5143623 Eh     change       -0.4553924E-05 Eh
 * total energy  :   -72.5143643 Eh     change       -0.1997618E-05 Eh
 * total energy  :   -72.5143670 Eh     change       -0.2727421E-05 Eh
 * total energy  :   -72.5143689 Eh     change       -0.1903413E-05 Eh
 * total energy  :   -72.5143705 Eh     change       -0.1601857E-05 Eh
 * total energy  :   -72.5143716 Eh     change       -0.1087926E-05 Eh
 * total energy  :   -72.5143725 Eh     change       -0.8624227E-06 Eh
 * total energy  :   -72.5143737 Eh     change       -0.1189316E-05 Eh
 * total energy  :   -72.5143913 Eh     change       -0.1394722E-06 Eh
 * total energy  :   -72.5143914 Eh     change       -0.1323051E-06 Eh
 * total energy  :   -72.5143916 Eh     change       -0.1718791E-06 Eh
 * total energy  :   -72.5143919 Eh     change       -0.2657227E-06 Eh
 * total energy  :   -72.5143921 Eh     change       -0.2374848E-06 Eh
 * total energy  :   -72.5143923 Eh     change       -0.2324336E-06 Eh
 * total energy  :   -72.5143925 Eh     change       -0.2175895E-06 Eh
 * total energy  :   -72.5143927 Eh     change       -0.1774007E-06 Eh
 * total energy  :   -72.5143927 Eh     change       -0.5575927E-08 Eh
   *** GEOMETRY OPTIMIZATION CONVERGED AFTER 44 ITERATIONS ***

 final structure:
================
51
 xtb: 6.7.1 (edcfbbe)
C            4.84688524654545       -0.29078128425260        1.30464712965586
C            3.56437898220822        0.47013507316275        1.14183623577632
C            3.50743093900226        1.83250523793909        1.41084226280471
C            2.32702075210384        2.53153419502547        1.26056910126027
C            1.17751980974019        1.88426781311076        0.81522851926483
C            1.22443090432461        0.52305924260138        0.50303379897157
C            2.41542230080455       -0.16301427327349        0.68564933529099
C           -0.00221716196708       -0.13358331717912       -0.11034502115501
C            0.03097138832016        0.11279128854961       -1.62236960017341
C           -1.13839648421132        0.32318293731151       -2.34371612481488
C           -1.10090847260164        0.53234181030300       -3.71168609371650
C            0.10714122360030        0.53375910225080       -4.38645530660125
C            1.27744513661715        0.31817312532105       -3.67920482187708
C            1.23891073704583        0.10970205944325       -2.31197737486206
C           -0.00869370195317       -1.61937781375248        0.21003664947475
C           -0.02991291680769       -2.60540811592419       -0.76574374866392
C           -0.04054547359633       -3.94534128073520       -0.41116709135512
C           -0.03164225844404       -4.31692937224182        0.92121103968449
C           -0.01313579128486       -3.33848995498024        1.90286066787849
C           -0.00274250842437       -2.00293608339511        1.54894542738374
C           -1.24736348687745        0.51717833371744        0.46934302581648
C           -2.44065128442888       -0.17452580246131        0.61490973004752
C           -3.60271197146615        0.45111350241405        1.04624542777824
C           -4.88752232426273       -0.31210503974202        1.17653314880169
C           -3.55744080334135        1.81218867929173        1.32665386231966
C           -2.37711107642135        2.51709092162877        1.20923872925351
C           -1.21402808471048        1.87698162897293        0.78858086303089
N           -0.01924925984572        2.56861034532530        0.69907715864959
H            4.65417829874221       -1.35627478019173        1.40695389176188
H            5.48624423012316       -0.14267085132844        0.43290967932328
H            5.39188543577917        0.05547051536469        2.18068650489651
H            4.39300512452834        2.34825705000045        1.75367784022813
H            2.28467348703930        3.58719506340657        1.49125381778361
H            2.45296545463486       -1.21971313157442        0.45953472551852
H           -2.09188490940642        0.32279658157799       -1.83742658775691
H           -2.02342999506247        0.69457509473224       -4.25090625813170
H            0.13654954894721        0.69889386201170       -5.45381264032194
H            2.22821858138309        0.31156966684653       -4.19313186112842
H            2.16211279215492       -0.05828150944673       -1.77816663303601
H           -0.03874167282633       -2.33160713273581       -1.81047728481567
H           -0.05641407062980       -4.70066091248909       -1.18408948886718
H           -0.03957680967873       -5.36210001730690        1.19510427822834
H           -0.00750566805115       -3.61776280586024        2.94684332707082
H            0.01043491293072       -1.24151860181452        2.31636541337896
H           -2.46860289029281       -1.22776027015265        0.37285924146453
H           -4.70511872637457       -1.38382723263290        1.15323743863000
H           -5.39038542007979       -0.06066922794860        2.10889125463475
H           -5.56158758332815       -0.06079409383096        0.35649435961353
H           -4.45385399743766        2.32172467934261        1.65016888539184
H           -2.34522291299177        3.57193302888447        1.44526512096777
H           -0.02556575047138        3.53038679521409        1.00769095654157

          :  Hamiltonian                  GFN2-xTB          :
         :: gradient norm              0.000046998121 Eh/a0 ::
         :: HOMO-LUMO gap              3.338624657461 eV    ::
         :: SCC energy               -73.868911164416 Eh    ::
         :: -> dispersion             -0.068772264445 Eh    ::
         :: -> Gsolv                  -0.027689469069 Eh    ::
         :: repulsion energy           1.354518433438 Eh    ::

    * Orbital Energies and Occupations

         #    Occupation            Energy/Eh            Energy/eV
      -------------------------------------------------------------
         1        2.0000           -0.6635415             -18.0559
       ...           ...                  ...                  ...
        56        2.0000           -0.4240600             -11.5393
        57        2.0000           -0.4231258             -11.5138
        58        2.0000           -0.4166302             -11.3371
        59        2.0000           -0.4128931             -11.2354
        60        2.0000           -0.4122243             -11.2172
        61        2.0000           -0.4022996             -10.9471
        62        2.0000           -0.4018269             -10.9343
        63        2.0000           -0.3986645             -10.8482
        64        2.0000           -0.3942956             -10.7293
        65        2.0000           -0.3904840             -10.6256
        66        2.0000           -0.3895288             -10.5996
        67        2.0000           -0.3859187             -10.5014
        68        2.0000           -0.3462511              -9.4220 (HOMO)
        69                         -0.2235589              -6.0833 (LUMO)
        70                         -0.2223376              -6.0501
        71                         -0.2216359              -6.0310
        72                         -0.2193231              -5.9681
        73                         -0.2160345              -5.8786
        74                         -0.2153518              -5.8600
        75                         -0.2136691              -5.8142
        76                         -0.1913216              -5.2061
        77                         -0.0921776              -2.5083
        78                         -0.0912084              -2.4819
        79                         -0.0899578              -2.4479
       ...                                ...                  ...
       135                          0.6751201              18.3710
      -------------------------------------------------------------
                  HL-Gap            0.1226922 Eh            3.3386 eV

     #   Z          covCN         q      C6AA      α(0)
     1   6 C        3.757    -0.107    22.598     6.778
     2   6 C        2.964     0.002    27.981     8.677
     3   6 C        2.924    -0.044    29.099     8.846
     4   6 C        2.920    -0.064    29.588     8.920
     5   6 C        2.925     0.060    26.653     8.466
     6   6 C        2.984    -0.010    28.270     8.722
     7   6 C        2.928    -0.047    29.162     8.856
     8   6 C        3.920     0.010    20.340     6.410
     9   6 C        2.977     0.013    27.715     8.636
    10   6 C        2.924    -0.037    28.926     8.820
    11   6 C        2.920    -0.032    28.799     8.800
    12   6 C        2.919    -0.034    28.852     8.808
    13   6 C        2.919    -0.032    28.801     8.801
    14   6 C        2.924    -0.037    28.923     8.820
    15   6 C        2.978     0.016    27.659     8.627
    16   6 C        2.922    -0.037    28.914     8.818
    17   6 C        2.920    -0.032    28.793     8.799
    18   6 C        2.919    -0.034    28.847     8.808
    19   6 C        2.919    -0.031    28.785     8.798
    20   6 C        2.926    -0.032    28.788     8.799
    21   6 C        2.984    -0.010    28.270     8.722
    22   6 C        2.928    -0.047    29.163     8.856
    23   6 C        2.964     0.002    27.980     8.676
    24   6 C        3.757    -0.107    22.600     6.778
    25   6 C        2.925    -0.044    29.100     8.846
    26   6 C        2.920    -0.064    29.585     8.920
    27   6 C        2.925     0.060    26.646     8.465
    28   7 N        2.701    -0.162    24.496     7.351
    29   1 H        0.925     0.041     2.436     2.441
    30   1 H        0.924     0.045     2.377     2.411
    31   1 H        0.925     0.043     2.408     2.427
    32   1 H        0.926     0.031     2.574     2.509
    33   1 H        0.925     0.024     2.670     2.555
    34   1 H        0.925     0.028     2.609     2.526
    35   1 H        0.926     0.032     2.563     2.504
    36   1 H        0.926     0.029     2.598     2.521
    37   1 H        0.926     0.029     2.597     2.520
    38   1 H        0.926     0.029     2.597     2.520
    39   1 H        0.926     0.033     2.545     2.495
    40   1 H        0.926     0.029     2.602     2.522
    41   1 H        0.926     0.029     2.597     2.520
    42   1 H        0.926     0.030     2.592     2.518
    43   1 H        0.926     0.030     2.588     2.516
    44   1 H        0.926     0.026     2.637     2.539
    45   1 H        0.926     0.028     2.614     2.528
    46   1 H        0.925     0.040     2.443     2.444
    47   1 H        0.925     0.044     2.400     2.422
    48   1 H        0.924     0.045     2.378     2.411
    49   1 H        0.926     0.031     2.571     2.507
    50   1 H        0.925     0.024     2.668     2.554
    51   1 H        0.860     0.159     1.343     1.815

molecular dipole:
                 x           y           z       tot (Debye)
 q only:       -0.001       0.173       0.143
   full:       -0.003       0.330       0.237       1.034

 projected vibrational frequencies (cm⁻¹)
eigval :       -0.00    -0.00    -0.00    -0.00     0.00     0.00
eigval :       19.42    31.33    45.01    55.13    57.57    59.21
eigval :       69.18    77.84    83.02    94.68   137.86   179.69
eigval :      199.99   207.39   232.29   252.76   257.14   270.70
eigval :      291.63   301.85   329.10   350.98   357.85   372.32
eigval :      375.48   381.47   435.37   442.11   445.74   464.64
eigval :      489.36   508.77   526.25   539.29   545.47   588.95
eigval :      589.29   603.61   608.73   616.26   621.32   668.72
eigval :      672.27   678.04   681.73   695.41   746.64   754.97
eigval :      784.43   806.55   811.44   817.14   867.67   877.13
eigval :      880.89   887.32   892.72   895.77   900.36   907.03
eigval :      910.15   914.15   918.92   931.15   932.48   933.22
eigval :      934.82   959.95   990.01   993.93   999.74  1018.11
eigval :     1027.29  1034.23  1036.62  1087.00  1091.41  1124.66
eigval :     1126.88  1134.59  1141.06  1173.76  1180.17  1181.67
eigval :     1186.13  1195.39  1203.63  1211.49  1212.44  1223.77
eigval :     1233.65  1236.96  1265.84  1286.15  1287.96  1295.16
eigval :     1305.22  1316.15  1317.84  1334.33  1335.04  1383.04
eigval :     1402.77  1404.76  1424.97  1430.78  1433.04  1445.59
eigval :     1472.63  1474.39  1480.01  1480.49  1485.59  1487.82
eigval :     1491.02  1502.66  1576.59  1582.40  1585.73  1587.48
eigval :     1598.33  1601.26  1602.01  1611.45  2986.46  2989.92
eigval :     3020.22  3025.75  3035.49  3038.34  3060.37  3060.97
eigval :     3064.90  3065.19  3067.18  3068.84  3072.18  3074.04
eigval :     3075.08  3078.33  3079.55  3080.86  3083.23  3090.73
eigval :     3092.29  3095.18  3422.76

   temp. (K)  partition function   enthalpy   heat capacity  entropy
                                   cal/mol     cal/K/mol   cal/K/mol   J/K/mol
 298.15  VIB  0.376E+10            13296.069     86.064     82.186
         ROT  0.113E+08              888.752      2.981     35.254
         INT  0.424E+17            14184.821     89.045    117.440
         TR   0.665E+28             1481.254      4.968     43.529
         TOT                       15666.0749    94.0133   160.9687   673.4929

       T/K    H(0)-H(T)+PV         H(T)/Eh          T*S/Eh         G(T)/Eh
   ------------------------------------------------------------------------
    298.15    0.249655E-01    0.434667E+00    0.764814E-01    0.358185E+00
   ------------------------------------------------------------------------

         :::::::::::::::::::::::::::::::::::::::::::::::::::::
         ::                  THERMODYNAMIC                  ::
         :::::::::::::::::::::::::::::::::::::::::::::::::::::
         :: total free energy         -72.156207384515 Eh   ::
         ::.................................................::
         :: total energy              -72.514392729713 Eh   ::
         :: zero point energy           0.409701277516 Eh   ::
         :: G(RRHO) w/o ZPVE           -0.051515932318 Eh   ::
         :: G(RRHO) contrib.            0.358185345198 Eh   ::
         :::::::::::::::::::::::::::::::::::::::::::::::::::::

           -------------------------------------------------
          | TOTAL ENERGY              -72.514392729713 Eh   |
          | TOTAL ENTHALPY            -72.079725972787 Eh   |
          | TOTAL FREE ENERGY         -72.156207384515 Eh   |
          | GRADIENT NORM               0.000046998644 Eh/α |
          | HOMO-LUMO GAP               3.338624677213 eV   |
           -------------------------------------------------

 * finished run on 2025/09/09 at 23:57:49.624
