   * xtb version 6.7.1 (edcfbbe) compiled by 'albert@albert-system' on 2024-07-22

   ID    Z sym.   atoms
    1    6 C      1-20, 22-25, 27-58, 60-64, 66-72, 74-80, 82-97
    2    7 N      21, 26, 59, 65, 73, 81
    3    1 H      98-171

          program call               : xtb data2507/toluene/c-D2T/c-D2T.xyz --gfn 2 --gbsa toluene --ohess vtight --parallel 40 --molden --ceasefiles --namespace data2507/toluene/c-D2T/c-D2T_toluene_S0_preOpt
      * Solvation model:               GBSA
        Solvent                        toluene
        Solvent mass                       9.2140E+01 g/mol
          :  Hamiltonian                  GFN2-xTB          :
 * total energy  :  -250.4142063 Eh     change       -0.8144241E-08 Eh
 * total energy  :  -250.4426849 Eh     change       -0.2847862E-01 Eh
 * total energy  :  -250.4538592 Eh     change       -0.1117436E-01 Eh
 * total energy  :  -250.4571967 Eh     change       -0.3337506E-02 Eh
 * total energy  :  -250.4593868 Eh     change       -0.2190088E-02 Eh
 * total energy  :  -250.4610362 Eh     change       -0.1649395E-02 Eh
 * total energy  :  -250.4622222 Eh     change       -0.1186000E-02 Eh
 * total energy  :  -250.4630656 Eh     change       -0.8433382E-03 Eh
 * total energy  :  -250.4636353 Eh     change       -0.5697305E-03 Eh
 * total energy  :  -250.4640347 Eh     change       -0.3993709E-03 Eh
 * total energy  :  -250.4689260 Eh     change       -0.2203398E-05 Eh
 * total energy  :  -250.4689283 Eh     change       -0.2286445E-05 Eh
 * total energy  :  -250.4689306 Eh     change       -0.2328788E-05 Eh
 * total energy  :  -250.4689329 Eh     change       -0.2262945E-05 Eh
 * total energy  :  -250.4689349 Eh     change       -0.2089468E-05 Eh
 * total energy  :  -250.4689370 Eh     change       -0.2042800E-05 Eh
 * total energy  :  -250.4689390 Eh     change       -0.2034784E-05 Eh
 * total energy  :  -250.4689410 Eh     change       -0.1999687E-05 Eh
 * total energy  :  -250.4689410 Eh     change       -0.7362587E-08 Eh
   *** GEOMETRY OPTIMIZATION CONVERGED AFTER 221 ITERATIONS ***

 final structure:
================
171
 xtb: 6.7.1 (edcfbbe)
C          -11.36404444116562       -6.92420042652086        0.41307938889124
C           -9.90330626817571       -6.65228174674235        0.78627734224350
C           -9.01634637615475       -7.58286470942638       -0.05469284239124
C           -9.72652094920380       -6.97428774427797        2.27772942651907
C           -9.49251647812675       -5.20845983648243        0.52962589929713
C           -8.18230216780064       -4.81233668549143        0.83186219412601
C           -7.71744995097456       -3.52976549810043        0.62125029918518
C           -8.59148340574368       -2.60058826685613        0.07826236841628
C           -9.92346724970913       -2.96510895111670       -0.20922656301145
C          -10.36421054717829       -4.26354572075360        0.01322289691617
C          -10.57492150541671       -1.78036429357108       -0.69796919769906
C          -11.86397988838853       -1.52669226576877       -1.14990136588625
C          -12.20291140526423       -0.25730692120610       -1.58929194650694
C          -13.59705492155087        0.09530539582864       -2.09035692411338
C          -13.50539828447746        0.56663112369917       -3.54956877662470
C          -14.56088225041233       -1.09417140890507       -2.03553820435268
C          -14.17743290579162        1.21786855556197       -1.21695383142352
C          -11.21537764386366        0.73736583053548       -1.58056140913426
C           -9.92714592840946        0.51339273553661       -1.13848635172814
C           -9.60825446831589       -0.75370314824017       -0.67468588158039
N           -8.40889856863543       -1.25930346520010       -0.20563743845721
C           -7.22366194271776       -0.53450968945138       -0.04815706731449
C           -7.23757953328150        0.69332191497885        0.61073815862178
C           -6.07303064425188        1.42259354534466        0.74358692255080
C           -4.87466550613927        0.93237120154781        0.23691536878133
N           -3.69431416227544        1.70865545896354        0.38752459529392
C           -3.12606864799435        2.34119613570147       -0.71080983859161
C           -3.58274672579154        2.08520657232809       -2.00529999298932
C           -2.99004353029994        2.68943788041220       -3.09647196450258
C           -1.93060027928705        3.56221114874452       -2.92177907726977
C           -1.49836677524994        3.85135212194675       -1.63965908029853
C           -2.08579253691771        3.26104516739703       -0.53234639036104
C           -1.69017321460631        3.70346615613357        0.85762149912585
C           -2.41114780499472        5.00301111702977        1.18436295386454
C           -3.76651904000249        5.24112711056391        1.24215204469182
C           -4.20428811843494        6.51933125390451        1.56309984388498
C           -3.29666361782657        7.53606709923821        1.81884945159503
C           -1.93208743140694        7.30216659196443        1.75684333585432
C           -1.49092951346833        6.02852705759439        1.43653589565408
C           -0.14682284940908        5.49166048081850        1.29094064921134
C            1.08493958539054        6.11115829011080        1.43333997518717
C            2.21474831315781        5.33487425566511        1.22783752874325
C            2.11285834719422        3.97491347941637        0.88864449997364
C            0.88387706881441        3.35801324972879        0.74390766294826
C           -0.24357742284791        4.13187612611955        0.94884508366260
C            3.48362060973265        3.36008140809543        0.72095456780058
C            4.38665452866382        4.54912938466543        1.01771649315695
C            5.76298238146162        4.59934111355890        1.03184936333907
C            6.38123855264921        5.80626352381454        1.33177418551989
C            5.62985209135988        6.93720213894675        1.61319722980365
C            4.24482381836517        6.88957064170677        1.60508881348869
C            3.62367984659311        5.68790731081794        1.30591893860745
C            3.73394939765496        2.88089994038295       -0.68830182215454
C            3.14344656381616        3.52459894764625       -1.76458197065806
C            3.41559765264596        3.14134201844026       -3.06547719445681
C            4.28897062438865        2.09217801647392       -3.29518043721040
C            4.88039043501434        1.43514704222628       -2.23459499552139
C            4.62245393442885        1.82750569308720       -0.91931805741817
N            5.20565042441956        1.14141262116111        0.14278934602452
C            6.30504882174182        0.29535188881199       -0.12871198848232
C            7.50389084817543        0.86708851613159       -0.55360590313817
C            8.60034074692478        0.07353891286545       -0.81236133713088
C            8.52116865360515       -1.30977033615933       -0.64985252451400
C            9.69243340161716       -2.14567908248812       -0.90622404944980
N            9.62061249361556       -3.43810019160922       -0.59832360918450
C           10.71152073086013       -4.15521140529358       -0.85095866138601
C           10.69550346454723       -5.58048468754950       -0.52347464109792
C           11.81369452550913       -6.37116914630541       -0.78704787520561
C           11.79858419531502       -7.71735845208109       -0.47643910264305
C           10.67247561099846       -8.28564945701141        0.09984492290542
C            9.55817729504569       -7.50409398127031        0.36570143011170
C            9.56652526353921       -6.15738437419265        0.05716687979602
N           11.82555865269370       -3.65178533681257       -1.38282819212946
C           11.81325876942139       -2.35419058459284       -1.64618835605355
C           13.02738330529693       -1.72727982535757       -2.27199156451221
C           13.34385493145507       -0.37808830771873       -1.61584821428973
C           13.85697191740391       -0.57541689360706       -0.19250070844954
C           15.09746933346444       -1.46353525944843       -0.18996854518683
C           14.77960393342164       -2.81724660654342       -0.81758971073868
C           14.25115215673856       -2.64385730815653       -2.23923501763344
N           10.76968225307608       -1.56301882226866       -1.42856833061803
C            7.31510212871946       -1.88261379464323       -0.24746714764781
C            6.21448723950154       -1.08931012555714        0.00513863556696
C            4.68562334420159        1.25371794017569        1.43044297133726
C            5.08004419390969        0.38882810952936        2.45290317318718
C            4.52586599728210        0.48373582190144        3.71456173433261
C            3.57123953595955        1.44701480763477        3.98808944421249
C            3.21655613834119        2.34370108625179        2.99656306292676
C            3.76814610911671        2.26918847642524        1.72721064712027
C           -2.04902442843902        2.65851270225768        1.88805325907700
C           -1.42447690866727        2.65073492134743        3.12497162164267
C           -1.79531957524881        1.75248499454530        4.10998194682713
C           -2.81152435710862        0.84785540433775        3.85533357912187
C           -3.44077069776126        0.83683764771217        2.62644602385582
C           -3.07240395462130        1.74168401655770        1.62849069673846
C           -4.85348755794123       -0.30547506512900       -0.39734980952970
C           -6.02048283144593       -1.02918361156327       -0.54830853566316
H          -11.53956814228573       -6.73719204970984       -0.64403790218042
H          -12.03985684344297       -6.30842726617920        1.00243772107312
H          -11.60068918986854       -7.96759851323646        0.61298696503180
H           -7.96840617137703       -7.48250347399010        0.21459823232053
H           -9.30947684249959       -8.61961614640086        0.09831822732500
H           -9.12064984804515       -7.34677974844915       -1.11213039343707
H          -10.03962532085380       -7.99680213615722        2.47933284884004
H           -8.69034559316938       -6.86973459020565        2.58740658522076
H          -10.33248113344716       -6.30195655674181        2.88230793412844
H           -7.49583322739043       -5.53217124042663        1.25141077916647
H           -6.70503065790401       -3.26386394520461        0.88656470967890
H          -11.38738523070605       -4.50695859707972       -0.21962102900386
H          -12.57741762337342       -2.33377510500323       -1.15222160957435
H          -14.49778279967318        0.79767709860927       -3.93168550112360
H          -13.06922316515140       -0.21409975007882       -4.17005526727041
H          -12.89023244344308        1.45755961666117       -3.64182073865971
H          -14.67860931435198       -1.45579335753307       -1.01640908392532
H          -15.53960876399937       -0.78428986529939       -2.39708103923173
H          -14.21338874840658       -1.90927815684831       -2.66645995354396
H          -14.22493863646343        0.89895278862555       -0.17731051700502
H          -15.18357663351916        1.46795805235173       -1.54765116522700
H          -13.56959663006913        2.11702063866913       -1.26953637433411
H          -11.45846932899879        1.72697634766645       -1.93685787083065
H           -9.19312077960638        1.30488641696131       -1.16746372547252
H           -8.16236796009976        1.06627834295880        1.02363959321791
H           -6.08357944017835        2.37248315223312        1.25728833683559
H           -4.41252523824117        1.41294121520979       -2.15837664605313
H           -3.36104683988092        2.47411983518128       -4.08787682152194
H           -1.45878672421130        4.03137613354828       -3.77172423965180
H           -0.69869165130555        4.56200997135831       -1.49062317989676
H           -4.47613139769493        4.45332307049832        1.03739320824837
H           -5.26398036266243        6.72427764324407        1.61264270355005
H           -3.65902777866788        8.52334494715959        2.06715764347339
H           -1.22929594308078        8.09842725627815        1.95324506486453
H            1.16130714663691        7.15556421401066        1.69421626695314
H            0.80726743291814        2.31268080121935        0.48128115977852
H            6.35274026589398        3.71962495182674        0.82087836154000
H            7.45998976937361        5.86344983779393        1.34713366259835
H            6.13141833815940        7.86609240670236        1.84396623285980
H            3.66386665188333        7.77211137808286        1.82868668137464
H            2.46739673024614        4.34542336538042       -1.57655311191525
H            2.95028627526249        3.65847868816199       -3.89064091203020
H            4.50836261054281        1.77610439526203       -4.30434435638129
H            5.54718078393523        0.60746320183248       -2.42408265182393
H            7.56347886851916        1.93793473492781       -0.68124718245148
H            9.53474737665049        0.50682304799294       -1.13228798109574
H           12.68117763798205       -5.91123102315372       -1.23442351921725
H           12.66649460757993       -8.32596433909046       -0.68273615352348
H           10.66316128377193       -9.33805298850121        0.34206847291265
H            8.68181159140725       -7.94698049625176        0.81528626388077
H            8.70945200147626       -5.53394861354750        0.25894423247168
H           12.74880804248532       -1.54124563638478       -3.31898257595070
H           14.10641204429845        0.13067799035193       -2.20894024043001
H           12.44343758690001        0.23712163252119       -1.60908281451218
H           14.08871598188713        0.39510344580362        0.25180229685801
H           13.07387329850692       -1.04074266101072        0.41348956932419
H           15.45385551543878       -1.60238187924175        0.83302554979015
H           15.89152294963429       -0.97512804125621       -0.75983243134944
H           14.02607813919242       -3.33056766237597       -0.21640279952114
H           15.67601105642251       -3.44069202602563       -0.83535274911570
H           13.98705008058066       -3.61619428829481       -2.65703750639836
H           15.03073741753076       -2.20144077952384       -2.86329858585307
H            7.25613833551815       -2.95509359811282       -0.14770976898400
H            5.27464863463538       -1.53702798065694        0.29225152687639
H            5.83682370692514       -0.35669438121292        2.26754127193537
H            4.84723645476164       -0.20046495365145        4.48603021821980
H            3.12741630750340        1.51913595417550        4.96922632174433
H            2.51079005438673        3.13200833648040        3.21296389956931
H           -0.64208187831451        3.36919614553364        3.32096867405489
H           -1.29907719706187        1.76496232839197        5.06849773894343
H           -3.11571875950297        0.14205364955272        4.61437749120201
H           -4.22523021997415        0.12084270628168        2.43335836532648
H           -3.92012876599777       -0.69285810310858       -0.77870731723808
H           -6.00794471010674       -1.97652346150489       -1.06567790244677

          :  Hamiltonian                  GFN2-xTB          :
         :: gradient norm              0.000063669720 Eh/a0 ::
         :: HOMO-LUMO gap              1.427924166186 eV    ::
         :: SCC energy              -254.968599346393 Eh    ::
         :: -> dispersion             -0.252643099174 Eh    ::
         :: -> Gsolv                  -0.099172801978 Eh    ::
         :: repulsion energy           4.499658313535 Eh    ::

    * Orbital Energies and Occupations

         #    Occupation            Energy/Eh            Energy/eV
      -------------------------------------------------------------
         1        2.0000           -0.6924177             -18.8416
       ...           ...                  ...                  ...
       222        2.0000           -0.3977997             -10.8247
       223        2.0000           -0.3967799             -10.7969
       224        2.0000           -0.3950414             -10.7496
       225        2.0000           -0.3949932             -10.7483
       226        2.0000           -0.3926268             -10.6839
       227        2.0000           -0.3852812             -10.4840
       228        2.0000           -0.3811471             -10.3715
       229        2.0000           -0.3805216             -10.3545
       230        2.0000           -0.3725323             -10.1371
       231        2.0000           -0.3718138             -10.1176
       232        2.0000           -0.3569605              -9.7134
       233        2.0000           -0.3524927              -9.5918
       234        2.0000           -0.3480774              -9.4717 (HOMO)
       235                         -0.2956021              -8.0437 (LUMO)
       236                         -0.2831139              -7.7039
       237                         -0.2554902              -6.9522
       238                         -0.2486004              -6.7648
       239                         -0.2448714              -6.6633
       240                         -0.2422150              -6.5910
       241                         -0.2384513              -6.4886
       242                         -0.2360464              -6.4232
       243                         -0.2345661              -6.3829
       244                         -0.2332730              -6.3477
       245                         -0.2327260              -6.3328
       ...                                ...                  ...
       462                          0.7428105              20.2129
      -------------------------------------------------------------
                  HL-Gap            0.0524753 Eh            1.4279 eV

     #   Z          covCN         q      C6AA      α(0)
     1   6 C        3.761    -0.106    22.576     6.773
     2   6 C        3.902     0.025    20.103     6.373
     3   6 C        3.761    -0.104    22.540     6.768
     4   6 C        3.761    -0.104    22.541     6.768
     5   6 C        2.972    -0.003    28.094     8.694
     6   6 C        2.931    -0.041    29.011     8.833
     7   6 C        2.908    -0.055    29.370     8.886
     8   6 C        3.076     0.043    26.960     8.513
     9   6 C        3.066    -0.021    28.461     8.748
    10   6 C        2.918    -0.045    29.126     8.850
    11   6 C        3.066    -0.021    28.461     8.748
    12   6 C        2.918    -0.045    29.126     8.850
    13   6 C        2.972    -0.003    28.093     8.694
    14   6 C        3.902     0.025    20.103     6.373
    15   6 C        3.761    -0.104    22.540     6.768
    16   6 C        3.761    -0.106    22.576     6.773
    17   6 C        3.761    -0.104    22.541     6.768
    18   6 C        2.931    -0.041    29.010     8.833
    19   6 C        2.908    -0.055    29.371     8.886
    20   6 C        3.077     0.043    26.960     8.513
    21   7 N        2.801    -0.048    22.165     6.992
    22   6 C        2.912     0.066    26.533     8.446
    23   6 C        2.922    -0.042    29.055     8.839
    24   6 C        2.922    -0.037    28.925     8.820
    25   6 C        2.924     0.063    26.591     8.456
    26   7 N        2.753    -0.073    22.663     7.070
    27   6 C        2.925     0.060    26.662     8.468
    28   6 C        2.923    -0.060    29.480     8.904
    29   6 C        2.920    -0.034    28.850     8.808
    30   6 C        2.917    -0.044    29.101     8.846
    31   6 C        2.925    -0.037    28.912     8.818
    32   6 C        2.984    -0.009    28.231     8.716
    33   6 C        3.949     0.014    20.271     6.398
    34   6 C        3.060     0.001    27.942     8.669
    35   6 C        2.914    -0.035    28.863     8.810
    36   6 C        2.922    -0.034    28.838     8.806
    37   6 C        2.921    -0.034    28.846     8.808
    38   6 C        2.915    -0.035    28.873     8.811
    39   6 C        3.033     0.000    27.992     8.678
    40   6 C        3.037    -0.003    28.060     8.688
    41   6 C        2.910    -0.041    29.015     8.833
    42   6 C        3.037    -0.003    28.061     8.689
    43   6 C        3.055     0.000    27.971     8.674
    44   6 C        2.909    -0.035    28.866     8.810
    45   6 C        3.055     0.000    27.963     8.672
    46   6 C        3.950     0.014    20.278     6.399
    47   6 C        3.059     0.001    27.948     8.669
    48   6 C        2.914    -0.035    28.872     8.811
    49   6 C        2.922    -0.034    28.838     8.806
    50   6 C        2.921    -0.034    28.838     8.806
    51   6 C        2.915    -0.035    28.868     8.810
    52   6 C        3.033     0.001    27.981     8.676
    53   6 C        2.984    -0.006    28.165     8.705
    54   6 C        2.924    -0.035    28.881     8.813
    55   6 C        2.918    -0.042    29.035     8.836
    56   6 C        2.919    -0.033    28.824     8.804
    57   6 C        2.923    -0.056    29.396     8.891
    58   6 C        2.930     0.058    26.699     8.474
    59   7 N        2.752    -0.068    22.552     7.053
    60   6 C        2.924     0.074    26.341     8.417
    61   6 C        2.921    -0.037    28.932     8.821
    62   6 C        2.923    -0.025    28.638     8.776
    63   6 C        2.983    -0.011    28.287     8.724
    64   6 C        2.983     0.217    23.434     7.941
    65   7 N        1.843    -0.323    29.220     8.011
    66   6 C        2.983     0.216    23.438     7.941
    67   6 C        2.983    -0.010    28.255     8.719
    68   6 C        2.923    -0.026    28.659     8.779
    69   6 C        2.918    -0.027    28.679     8.782
    70   6 C        2.920    -0.022    28.554     8.763
    71   6 C        2.918    -0.027    28.682     8.782
    72   6 C        2.923    -0.026    28.656     8.779
    73   7 N        1.842    -0.317    29.073     7.991
    74   6 C        2.975     0.228    23.219     7.904
    75   6 C        3.863    -0.028    21.028     6.521
    76   6 C        3.808    -0.059    21.632     6.621
    77   6 C        3.805    -0.050    21.475     6.597
    78   6 C        3.805    -0.058    21.619     6.619
    79   6 C        3.805    -0.055    21.554     6.609
    80   6 C        3.807    -0.060    21.649     6.624
    81   7 N        1.843    -0.324    29.249     8.015
    82   6 C        2.922    -0.026    28.647     8.777
    83   6 C        2.919    -0.039    28.974     8.827
    84   6 C        2.923     0.058    26.695     8.473
    85   6 C        2.923    -0.059    29.477     8.903
    86   6 C        2.920    -0.033    28.834     8.806
    87   6 C        2.917    -0.043    29.056     8.839
    88   6 C        2.925    -0.036    28.891     8.815
    89   6 C        2.985    -0.007    28.188     8.709
    90   6 C        2.983    -0.008    28.220     8.714
    91   6 C        2.924    -0.036    28.906     8.817
    92   6 C        2.918    -0.044    29.089     8.844
    93   6 C        2.919    -0.034    28.843     8.807
    94   6 C        2.923    -0.058    29.435     8.897
    95   6 C        2.929     0.060    26.663     8.468
    96   6 C        2.920    -0.038    28.950     8.823
    97   6 C        2.922    -0.043    29.072     8.842
    98   1 H        0.925     0.035     2.512     2.478
    99   1 H        0.925     0.035     2.513     2.479
   100   1 H        0.925     0.036     2.502     2.474
   101   1 H        0.925     0.035     2.510     2.478
   102   1 H        0.925     0.037     2.487     2.466
   103   1 H        0.925     0.032     2.559     2.502
   104   1 H        0.925     0.037     2.486     2.466
   105   1 H        0.925     0.035     2.512     2.479
   106   1 H        0.925     0.032     2.560     2.502
   107   1 H        0.926     0.029     2.595     2.519
   108   1 H        0.926     0.025     2.653     2.547
   109   1 H        0.926     0.037     2.483     2.464
   110   1 H        0.926     0.037     2.483     2.464
   111   1 H        0.925     0.037     2.486     2.465
   112   1 H        0.925     0.032     2.561     2.503
   113   1 H        0.925     0.035     2.512     2.479
   114   1 H        0.925     0.035     2.511     2.478
   115   1 H        0.925     0.036     2.502     2.474
   116   1 H        0.925     0.035     2.513     2.479
   117   1 H        0.925     0.032     2.558     2.501
   118   1 H        0.925     0.037     2.487     2.466
   119   1 H        0.925     0.035     2.510     2.478
   120   1 H        0.926     0.029     2.595     2.519
   121   1 H        0.926     0.026     2.649     2.545
   122   1 H        0.926     0.050     2.320     2.382
   123   1 H        0.926     0.044     2.390     2.418
   124   1 H        0.926     0.031     2.573     2.509
   125   1 H        0.926     0.031     2.578     2.511
   126   1 H        0.926     0.028     2.618     2.530
   127   1 H        0.926     0.026     2.645     2.543
   128   1 H        0.926     0.025     2.654     2.547
   129   1 H        0.926     0.032     2.564     2.504
   130   1 H        0.926     0.032     2.556     2.500
   131   1 H        0.926     0.033     2.544     2.494
   132   1 H        0.926     0.034     2.524     2.484
   133   1 H        0.926     0.025     2.664     2.552
   134   1 H        0.926     0.025     2.657     2.549
   135   1 H        0.926     0.032     2.556     2.500
   136   1 H        0.926     0.033     2.545     2.494
   137   1 H        0.926     0.034     2.531     2.488
   138   1 H        0.926     0.030     2.583     2.513
   139   1 H        0.926     0.032     2.554     2.499
   140   1 H        0.926     0.033     2.537     2.491
   141   1 H        0.926     0.028     2.622     2.532
   142   1 H        0.926     0.051     2.310     2.377
   143   1 H        0.926     0.059     2.215     2.327
   144   1 H        0.926     0.053     2.280     2.361
   145   1 H        0.926     0.048     2.349     2.397
   146   1 H        0.926     0.050     2.323     2.384
   147   1 H        0.926     0.047     2.354     2.399
   148   1 H        0.926     0.050     2.318     2.381
   149   1 H        0.923     0.046     2.370     2.408
   150   1 H        0.924     0.045     2.384     2.414
   151   1 H        0.924     0.043     2.408     2.427
   152   1 H        0.924     0.034     2.525     2.485
   153   1 H        0.924     0.016     2.801     2.617
   154   1 H        0.924     0.031     2.574     2.509
   155   1 H        0.924     0.040     2.451     2.448
   156   1 H        0.924     0.030     2.590     2.517
   157   1 H        0.924     0.035     2.514     2.480
   158   1 H        0.924     0.041     2.433     2.439
   159   1 H        0.924     0.042     2.420     2.433
   160   1 H        0.926     0.057     2.230     2.335
   161   1 H        0.926     0.056     2.246     2.343
   162   1 H        0.926     0.033     2.545     2.495
   163   1 H        0.926     0.033     2.542     2.493
   164   1 H        0.926     0.031     2.571     2.508
   165   1 H        0.926     0.029     2.596     2.520
   166   1 H        0.926     0.026     2.639     2.540
   167   1 H        0.926     0.029     2.607     2.525
   168   1 H        0.926     0.031     2.571     2.508
   169   1 H        0.926     0.028     2.615     2.529
   170   1 H        0.926     0.048     2.342     2.393
   171   1 H        0.926     0.050     2.324     2.384

molecular dipole:
                 x           y           z       tot (Debye)
 q only:       -0.427      -0.785       0.014
   full:       -0.322      -0.710      -0.038       1.984

 projected vibrational frequencies (cm⁻¹)
eigval :       -0.00    -0.00    -0.00    -0.00    -0.00     0.00
eigval :       -3.47     2.78     6.37     7.47     9.00    10.59
eigval :       14.29    16.43    19.41    22.11    27.22    30.36
eigval :       31.29    34.76    36.52    39.27    44.13    45.72
eigval :       48.72    54.80    56.73    57.89    62.30    63.39
eigval :       67.62    69.99    73.98    75.67    79.80    87.42
eigval :       90.64    91.48    97.06   102.49   107.39   117.69
eigval :      120.90   121.53   126.60   140.81   150.42   154.47
eigval :      157.00   158.42   167.94   170.88   173.54   174.67
eigval :      179.18   190.85   196.38   199.24   204.24   215.09
eigval :      220.57   220.93   225.59   228.20   230.94   238.44
eigval :      241.29   246.71   255.14   260.13   262.75   266.64
eigval :      268.78   277.63   279.49   289.84   293.23   303.39
eigval :      315.65   320.13   322.36   325.35   326.67   336.34
eigval :      341.72   349.75   352.71   360.08   361.60   364.10
eigval :      369.86   370.04   372.45   376.86   381.22   388.35
eigval :      392.68   393.45   395.61   400.96   406.74   409.91
eigval :      410.93   411.89   413.13   415.50   422.56   424.63
eigval :      428.46   431.70   440.98   441.65   443.25   452.87
eigval :      458.54   460.56   465.69   467.46   468.84   470.06
eigval :      474.37   478.47   484.10   491.74   498.41   503.09
eigval :      509.29   510.50   515.74   516.82   517.83   524.44
eigval :      528.81   546.34   559.28   571.16   579.58   579.95
eigval :      583.64   586.24   588.73   591.47   595.02   597.74
eigval :      600.09   604.42   608.10   611.10   611.70   616.44
eigval :      623.73   631.55   632.21   635.09   640.00   645.44
eigval :      657.96   661.86   667.59   671.05   674.78   679.50
eigval :      687.12   688.94   690.42   691.36   698.48   703.73
eigval :      705.87   709.92   719.50   720.61   727.34   729.27
eigval :      732.66   733.63   747.22   764.86   771.29   773.31
eigval :      774.08   775.61   778.02   779.85   793.48   814.63
eigval :      816.04   820.81   821.80   826.31   829.19   830.29
eigval :      842.62   843.82   852.60   863.19   864.10   865.33
eigval :      869.94   872.36   873.40   873.76   875.05   875.58
eigval :      875.95   876.72   877.68   878.25   879.74   880.73
eigval :      896.59   897.80   900.52   903.93   906.97   907.54
eigval :      907.97   908.19   908.43   910.03   911.70   913.05
eigval :      915.12   915.91   917.73   918.81   919.38   920.55
eigval :      922.43   923.45   925.04   926.53   926.64   927.67
eigval :      929.81   930.01   930.25   933.51   935.71   938.21
eigval :      938.54   944.72   945.21   955.82   956.46   957.82
eigval :      959.26   960.10   961.19   962.58   963.28   963.91
eigval :      989.24  1003.00  1004.86  1005.49  1015.61  1020.80
eigval :     1030.29  1034.62  1035.23  1035.98  1040.55  1054.13
eigval :     1074.75  1075.09  1078.25  1081.26  1084.37  1093.34
eigval :     1099.75  1103.25  1104.02  1105.46  1106.11  1107.65
eigval :     1108.68  1109.83  1114.97  1120.42  1122.31  1122.63
eigval :     1123.63  1127.81  1131.27  1134.59  1137.48  1139.84
eigval :     1142.09  1161.18  1162.77  1172.32  1173.46  1174.88
eigval :     1175.16  1176.11  1178.73  1179.33  1180.85  1181.20
eigval :     1181.76  1183.35  1184.18  1184.70  1194.19  1196.92
eigval :     1201.97  1204.42  1206.78  1210.40  1213.76  1221.43
eigval :     1225.94  1226.01  1226.82  1228.89  1229.37  1230.11
eigval :     1236.27  1236.91  1238.52  1240.44  1244.74  1244.95
eigval :     1249.86  1250.71  1251.87  1258.77  1259.47  1259.97
eigval :     1263.65  1265.32  1266.40  1268.85  1270.24  1279.02
eigval :     1283.19  1287.88  1299.95  1305.19  1307.98  1308.91
eigval :     1312.23  1316.27  1317.93  1323.08  1324.81  1325.63
eigval :     1327.10  1328.47  1329.22  1330.61  1332.36  1333.97
eigval :     1342.40  1345.07  1345.10  1352.27  1356.24  1357.16
eigval :     1357.23  1359.05  1369.05  1374.51  1378.93  1382.04
eigval :     1399.55  1402.17  1403.04  1403.35  1405.71  1405.86
eigval :     1414.58  1420.48  1425.97  1427.12  1427.17  1429.94
eigval :     1435.74  1436.45  1437.29  1437.71  1440.54  1443.47
eigval :     1454.75  1464.72  1466.99  1469.07  1470.91  1473.15
eigval :     1473.58  1478.84  1480.77  1483.30  1484.85  1486.49
eigval :     1486.88  1487.60  1488.58  1489.74  1490.84  1491.58
eigval :     1491.66  1493.55  1499.43  1500.25  1500.46  1501.66
eigval :     1503.00  1512.10  1512.16  1512.50  1518.43  1518.59
eigval :     1519.56  1556.82  1561.28  1569.87  1571.38  1571.80
eigval :     1572.28  1580.84  1581.54  1583.87  1584.33  1586.09
eigval :     1586.94  1587.12  1591.11  1592.61  1592.66  1592.79
eigval :     1596.65  1599.80  1600.83  1602.41  1603.40  1604.15
eigval :     1615.70  2880.02  2948.35  2963.18  2967.19  2972.08
eigval :     2973.95  2977.22  2982.53  2985.90  2995.05  2997.99
eigval :     3018.05  3018.36  3018.92  3018.99  3022.52  3022.63
eigval :     3023.86  3024.06  3026.35  3026.52  3029.88  3030.37
eigval :     3035.35  3035.49  3042.75  3043.51  3046.37  3047.36
eigval :     3068.92  3068.97  3074.86  3074.96  3075.47  3075.56
eigval :     3075.57  3075.80  3076.31  3076.53  3077.15  3077.59
eigval :     3080.21  3081.07  3081.94  3081.95  3082.38  3082.91
eigval :     3083.03  3084.43  3086.40  3086.47  3087.96  3088.44
eigval :     3088.83  3089.76  3089.83  3090.42  3090.80  3091.07
eigval :     3092.36  3092.49  3094.44  3096.99  3097.53  3098.14
eigval :     3100.12  3101.05  3103.05  3104.54  3106.38  3107.02
eigval :     3108.88  3114.40  3117.28

   temp. (K)  partition function   enthalpy   heat capacity  entropy
                                   cal/mol     cal/K/mol   cal/K/mol   J/K/mol
 298.15  VIB  0.744E+42            49392.553    304.649    314.082
         ROT  0.105E+10              888.752      2.981     44.262
         INT  0.782E+51            50281.305    307.630    358.344
         TR   0.428E+29             1481.254      4.968     47.229
         TOT                       51762.5592   312.5981   405.5734  1696.9190

       T/K    H(0)-H(T)+PV         H(T)/Eh          T*S/Eh         G(T)/Eh
   ------------------------------------------------------------------------
    298.15    0.824889E-01    0.145192E+01    0.192701E+00    0.125922E+01
   ------------------------------------------------------------------------

         :::::::::::::::::::::::::::::::::::::::::::::::::::::
         ::                  THERMODYNAMIC                  ::
         :::::::::::::::::::::::::::::::::::::::::::::::::::::
         :: total free energy        -249.209722771313 Eh   ::
         ::.................................................::
         :: total energy             -250.468941031790 Eh   ::
         :: zero point energy           1.369430370264 Eh   ::
         :: G(RRHO) w/o ZPVE           -0.110212109787 Eh   ::
         :: G(RRHO) contrib.            1.259218260477 Eh   ::
         :::::::::::::::::::::::::::::::::::::::::::::::::::::

           -------------------------------------------------
          | TOTAL ENERGY             -250.468941031790 Eh   |
          | TOTAL ENTHALPY           -249.017021772865 Eh   |
          | TOTAL FREE ENERGY        -249.209722771313 Eh   |
          | GRADIENT NORM               0.000063666666 Eh/α |
          | HOMO-LUMO GAP               1.427924306629 eV   |
           -------------------------------------------------

 * finished run on 2025/09/09 at 02:06:24.269
