   * xtb version 6.7.1 (edcfbbe) compiled by 'albert@albert-system' on 2024-07-22

   ID    Z sym.   atoms
    1    6 C      1-20, 22-25, 27-58, 60-64, 66-72, 74-80, 82-97
    2    7 N      21, 26, 59, 65, 73, 81
    3    1 H      98-171

          program call               : xtb data2507/toluene/c-D2T/c-D2T_toluene_T1_crest.xyz --gfn 2 --uhf 2 --gbsa toluene --ohess vtight --parallel 40 --molden --ceasefiles --namespace data2507/toluene/c-D2T/c-D2T_toluene_T1_finalOpt
      * Solvation model:               GBSA
        Solvent                        toluene
        Solvent mass                       9.2140E+01 g/mol
          :  Hamiltonian                  GFN2-xTB          :
 * total energy  :  -250.4047952 Eh     change        0.6837695E-09 Eh
 * total energy  :  -250.4051332 Eh     change       -0.3379849E-03 Eh
 * total energy  :  -250.4053685 Eh     change       -0.2353106E-03 Eh
 * total energy  :  -250.4054520 Eh     change       -0.8346254E-04 Eh
 * total energy  :  -250.4055720 Eh     change       -0.1200905E-03 Eh
 * total energy  :  -250.4056526 Eh     change       -0.8052619E-04 Eh
 * total energy  :  -250.4057107 Eh     change       -0.5814521E-04 Eh
 * total energy  :  -250.4057577 Eh     change       -0.4694543E-04 Eh
 * total energy  :  -250.4057950 Eh     change       -0.3734013E-04 Eh
 * total energy  :  -250.4058209 Eh     change       -0.2586476E-04 Eh
 * total energy  :  -250.4063990 Eh     change       -0.1105189E-05 Eh
 * total energy  :  -250.4064001 Eh     change       -0.1109765E-05 Eh
 * total energy  :  -250.4064012 Eh     change       -0.1147681E-05 Eh
 * total energy  :  -250.4064024 Eh     change       -0.1178736E-05 Eh
 * total energy  :  -250.4064037 Eh     change       -0.1222845E-05 Eh
 * total energy  :  -250.4064050 Eh     change       -0.1318690E-05 Eh
 * total energy  :  -250.4064064 Eh     change       -0.1445246E-05 Eh
 * total energy  :  -250.4064063 Eh     change        0.8248665E-07 Eh
 * total energy  :  -250.4064064 Eh     change       -0.5472589E-07 Eh
   *** GEOMETRY OPTIMIZATION CONVERGED AFTER 95 ITERATIONS ***

 final structure:
================
171
 xtb: 6.7.1 (edcfbbe)
C           -7.40375240867223        4.98897275800772       -2.14490256515603
C           -5.89477544561234        5.12006787074959       -2.37201559467596
C           -5.34479236806718        6.14396994647965       -1.36780101874412
C           -5.67282675271469        5.62716429086486       -3.80512670296848
C           -5.16080063134528        3.79957050831952       -2.18743509780252
C           -3.77510523743572        3.75798483764895       -2.38808648858305
C           -3.02659895250783        2.60608635323778       -2.24504278437934
C           -3.68056997745826        1.44151280650300       -1.86959897816954
C           -5.07920295096308        1.45282184097414       -1.69341255821185
C           -5.80936672662760        2.62288288627988       -1.84557828354510
C           -5.46865670369528        0.09921803526802       -1.40746975465412
C           -6.70164056400042       -0.49016163562183       -1.17158436333664
C           -6.78035715267578       -1.85648556331446       -0.95214189159312
C           -8.10259246925061       -2.58270467982517       -0.75627299403364
C           -8.04001969941490       -3.42626659698140        0.52576915228584
C           -9.28343326474552       -1.61508979992774       -0.63716893158555
C           -8.34440013937295       -3.49760132875366       -1.96708952163270
C           -5.59002817964792       -2.59239985035513       -0.92863579846422
C           -4.34832725972893       -2.02584767735582       -1.13862428394148
C           -4.28731004461502       -0.66942472373558       -1.41819951698983
N           -3.20397206484882        0.14944214976061       -1.69897623174019
C           -1.87619827353031       -0.25591926150865       -1.81672191096579
C           -1.55079185488392       -1.44986665824342       -2.46385366769554
C           -0.23672515937094       -1.86378987946651       -2.55192097865594
C            0.78125215787276       -1.07260048571377       -2.03033348131871
N            2.14425411746635       -1.46584492840771       -2.11000793966019
C            2.63237561698301       -2.46198909142751       -1.27872652511865
C            1.76482888827261       -3.21810654538728       -0.48421468792176
C            2.24848764662243       -4.22713990311583        0.32295470692843
C            3.60588633499989       -4.50436898445623        0.35846587152907
C            4.47476057915690       -3.73949628030858       -0.39877679480701
C            4.00932454148588       -2.71812257506093       -1.21248092901968
C            4.99196083906101       -1.82044242539494       -1.91578310573014
C            6.24380194883197       -2.52404879191583       -2.39143415248033
C            6.34716261557294       -3.59147278799473       -3.25668238819142
C            7.61314865592610       -4.06323319305578       -3.58006714248989
C            8.74870741641728       -3.46828139994002       -3.05092219879505
C            8.64984650403923       -2.39133695676360       -2.18341339520215
C            7.38992364501243       -1.91963209702951       -1.85239429066847
C            6.97556000836278       -0.84125609562214       -0.96579956017918
C            7.72334072321380        0.06858688301225       -0.23319310988112
C            7.03012328626752        0.98287503665904        0.54646950648761
C            5.62959903985468        0.94865834345591        0.62486218813400
C            4.88045354728148        0.06452776704101       -0.12504819656831
C            5.57300046402984       -0.81114812671611       -0.93631355024570
C            5.11644997395019        2.02356325640556        1.57382777218509
C            6.39978581639593        2.74178313727106        1.92772703577184
C            6.56338686395005        3.85198718916217        2.72771231578358
C            7.85040118667847        4.32469820323703        2.95106930691913
C            8.94729604763912        3.68858459733507        2.38908246140014
C            8.78757840720400        2.56988542835800        1.58599461162054
C            7.50615524005241        2.09668498499745        1.35440487944747
C            4.50638643433630        1.37092635432715        2.79074222730207
C            5.31431963100158        0.88549189851465        3.80771721849429
C            4.77199611396696        0.26335750223706        4.91766035619106
C            3.39539291195925        0.13278727539731        5.02248226703064
C            2.57674877326458        0.60052717431215        4.01737449724137
C            3.11846411364555        1.20610612677885        2.87698005695641
N            2.28135913725303        1.66038570709096        1.86883493572452
C            0.95585125881708        1.15583280283874        1.83653385018317
C           -0.16312883086185        1.97928201215269        2.01257678571215
C           -1.42683786427616        1.44746779824230        1.97611851135744
C           -1.63088247812161        0.05889911682944        1.80991076979309
C           -2.94082373675229       -0.49047312820980        1.83581940804912
N           -4.00345712185347        0.31550997099942        1.82906576189885
C           -5.20393259204461       -0.19865323307216        1.95568563237434
C           -6.35055891156510        0.68329439796087        1.91700254395087
C           -6.20280650601347        2.02721570344113        1.55390497574308
C           -7.29506898754074        2.86692090051877        1.53167430040348
C           -8.55621216068896        2.39102305053758        1.86620429896880
C           -8.71230231102955        1.06132654339717        2.23266167388404
C           -7.62341392266975        0.21488346721547        2.25976186075446
N           -5.41370322012054       -1.53189674691670        2.17421478191697
C           -4.31988066480693       -2.28366690807496        2.14831354254565
C           -4.56245995112564       -3.74232831153349        2.46108185629187
C           -3.71186703289415       -4.72451103858472        1.65400211506222
C           -2.24528278411267       -4.71435349060787        2.06968394667994
C           -2.10136854407988       -4.98057187575102        3.56360453100740
C           -2.88026841721540       -3.92983555107601        4.34842874029566
C           -4.35576945524369       -3.97082597321153        3.96686243422267
N           -3.10331490093329       -1.85493366997507        1.93868921924624
C           -0.49039417443736       -0.76113562787090        1.67093979382485
C            0.76914204394993       -0.22342834874993        1.67071127990795
C            2.73821998316598        2.57161146006451        0.92928362520983
C            1.85656162867878        3.21306997883657        0.05104130436453
C            2.31184820665847        4.15616012575150       -0.84664822545451
C            3.65737894845574        4.48447600791573       -0.89546097408023
C            4.54575313333410        3.82008415650262       -0.06880752387663
C            4.10923239896343        2.86201943099109        0.83237726084345
C            4.34058574299884       -1.03930825193472       -3.03537801811894
C            5.11901084298715       -0.43582520471729       -4.01125136510815
C            4.54965371519792        0.34361486431065       -5.00207568987898
C            3.17628577139574        0.52774173853698       -5.02049986697664
C            2.38475028657620       -0.06597774296788       -4.06000365995924
C            2.95359521598760       -0.85202300447291       -3.05228389305432
C            0.46660657524878        0.14123139877410       -1.43151924885487
C           -0.84834880259929        0.53712710900216       -1.30780706792941
H           -7.62017218040319        4.64128746472163       -1.13770334290494
H           -7.84786798351377        4.29997612363835       -2.85991837414597
H           -7.87608906996882        5.96067501032751       -2.27552472564964
H           -4.28530427429549        6.32532792239174       -1.52627296080682
H           -5.87244711479244        7.08992008713657       -1.47051077374149
H           -5.47891636212293        5.78214722229091       -0.35026304670482
H           -6.22289427992597        6.55257641651101       -3.96228777075027
H           -4.62185955023793        5.81878466697583       -4.00207888960818
H           -6.02580439367595        4.88898325654123       -4.52262923240690
H           -3.25561439895746        4.65906131362839       -2.67593955459855
H           -1.96674451910181        2.62380309247181       -2.44650018086577
H           -6.87497371244179        2.58463456343742       -1.69534961466670
H           -7.57863737186291        0.13500125980750       -1.16364090447512
H           -7.39760261574185       -4.29397072088549        0.39826873056689
H           -9.03287778268694       -3.78102554678983        0.79422112964673
H           -7.64558433832850       -2.82664255928557        1.34352399675550
H           -9.13279175985058       -0.92715553519283        0.19145953355407
H           -9.41766814592962       -1.04525458910344       -1.55381611970373
H          -10.19765790982438       -2.17689181903322       -0.45639914862559
H           -9.27585607421557       -4.04533891866762       -1.84081926121380
H           -7.53550467951998       -4.21473651995656       -2.08284905550068
H           -8.40925634519439       -2.90681246882379       -2.87872341205895
H           -5.63306921241639       -3.65287703830609       -0.73283031091922
H           -3.45615942207874       -2.62972044537190       -1.06495201589516
H           -2.33060587090232       -2.04166562137221       -2.91699166973069
H            0.00694771848106       -2.79259111287091       -3.04624226234276
H            0.70811876224442       -3.00292166217987       -0.49558656812862
H            1.56172806628268       -4.79775518797966        0.92949467581467
H            3.98599379256518       -5.29644949827978        0.98491080023204
H            5.53756101750577       -3.92612411523180       -0.35310831113323
H            5.46309037375640       -4.05404280880244       -3.67098867505840
H            7.71372380984521       -4.90228065123375       -4.25279343720500
H            9.72322801064890       -3.85058816306005       -3.31815950533791
H            9.53762001495566       -1.93350397845686       -1.77339927933110
H            8.80141256003888        0.07327114043823       -0.27707385519772
H            3.80080008689591        0.06312497503683       -0.08806327140921
H            5.70945195605548        4.34453475721875        3.16991130866526
H            7.99811893897274        5.19631308828257        3.57167202639878
H            9.93943664909801        4.07140798573767        2.57965716532332
H            9.64553953482682        2.07931383126423        1.15120667917916
H            6.38504403474136        0.99659124614984        3.72660498853411
H            5.41753410902085       -0.10972556319228        5.69763842281454
H            2.95643783558377       -0.33181128684445        5.89267901110991
H            1.50561999380975        0.50757247042933        4.10895424322900
H           -0.02384780963016        3.03368235649902        2.20579954528924
H           -2.29433781363328        2.07672429213333        2.11058149337917
H           -5.22028046922142        2.38693796133341        1.28750582816289
H           -7.16843278275973        3.90357395286159        1.25360172873679
H           -9.41012470544459        3.05213424285026        1.84482964519071
H           -9.69083690764431        0.68798062266984        2.50118281588799
H           -7.72879212662074       -0.81825589922154        2.55423183475253
H           -5.62014851410825       -3.91591369091664        2.23596200259471
H           -4.12314045423594       -5.72693995425649        1.80712900659626
H           -3.79343848922404       -4.48794939171395        0.59125543560481
H           -1.69982881269370       -5.46707593608729        1.49519532334289
H           -1.83211848886272       -3.73106479686126        1.84354492977391
H           -1.04723163614891       -4.95058837071932        3.84765188040257
H           -2.48842762932288       -5.97490224438944        3.80132285176398
H           -2.47552682108242       -2.94052273079108        4.12117886621544
H           -2.77515905487534       -4.10153322744797        5.42240984778117
H           -4.91393144995830       -3.21451806625711        4.52597386578112
H           -4.76783342087065       -4.95003727233832        4.22555688107258
H           -0.63314076478287       -1.82393621269892        1.55514694987030
H            1.63445690569294       -0.86099535604102        1.55081215068620
H            0.80799337616372        2.96624214035619        0.07269290500239
H            1.60950247471891        4.63716378585148       -1.51078424457248
H            4.01517450034109        5.23037595885906       -1.58803202771901
H            5.60273673570234        4.03288038423299       -0.13057761908218
H            6.18927265692929       -0.57535020661285       -3.98960468935162
H            5.17368686344672        0.80426228694135       -5.75219344774911
H            2.71746726778876        1.13138251272479       -5.78899416375911
H            1.31467308476148        0.06921242938238       -4.08772837340460
H            1.25966608045992        0.76649700730260       -1.05139886611746
H           -1.09041318539711        1.44450192730170       -0.78028739710116

          :  Hamiltonian                  GFN2-xTB          :
         :: gradient norm              0.000083048767 Eh/a0 ::
         :: HOMO-LUMO gap              0.372636153662 eV    ::
         :: SCC energy              -254.898532027248 Eh    ::
         :: -> dispersion             -0.288604782605 Eh    ::
         :: -> Gsolv                  -0.089839640659 Eh    ::
         :: repulsion energy           4.492125598680 Eh    ::

    * Orbital Energies and Occupations

         #    Occupation            Energy/Eh            Energy/eV
      -------------------------------------------------------------
         1        2.0000           -0.6829557             -18.5842
       ...           ...                  ...                  ...
       223        2.0000           -0.4012126             -10.9176
       224        2.0000           -0.3986883             -10.8489
       225        2.0000           -0.3953950             -10.7592
       226        2.0000           -0.3908296             -10.6350
       227        2.0000           -0.3898260             -10.6077
       228        2.0000           -0.3776974             -10.2777
       229        2.0000           -0.3764841             -10.2447
       230        1.9993           -0.3641149              -9.9081
       231        1.8992           -0.3592976              -9.7770
       232        1.8776           -0.3590900              -9.7713
       233        1.7194           -0.3581130              -9.7448
       234        1.5046           -0.3572360              -9.7209
       235        0.9992           -0.2760751              -7.5124 (HOMO)
       236        0.0007           -0.2623817              -7.1398 (LUMO)
       237        0.0000           -0.2590095              -7.0480
       238                         -0.2534851              -6.8977
       239                         -0.2513539              -6.8397
       240                         -0.2445304              -6.6540
       241                         -0.2408495              -6.5538
       242                         -0.2381358              -6.4800
       243                         -0.2371761              -6.4539
       244                         -0.2324873              -6.3263
       245                         -0.2311122              -6.2889
       246                         -0.2304303              -6.2703
       ...                                ...                  ...
       462                          0.7388940              20.1063
      -------------------------------------------------------------
                  HL-Gap            0.0136934 Eh            0.3726 eV

     #   Z          covCN         q      C6AA      α(0)
     1   6 C        3.761    -0.107    22.596     6.776
     2   6 C        3.902     0.025    20.090     6.371
     3   6 C        3.761    -0.105    22.548     6.769
     4   6 C        3.761    -0.107    22.589     6.775
     5   6 C        2.972     0.002    27.979     8.676
     6   6 C        2.930    -0.041    29.010     8.833
     7   6 C        2.909    -0.055    29.364     8.886
     8   6 C        3.071     0.047    26.873     8.500
     9   6 C        3.067    -0.017    28.374     8.734
    10   6 C        2.918    -0.042    29.051     8.839
    11   6 C        3.066    -0.018    28.397     8.738
    12   6 C        2.919    -0.045    29.110     8.848
    13   6 C        2.973     0.003    27.962     8.674
    14   6 C        3.903     0.025    20.100     6.373
    15   6 C        3.761    -0.102    22.502     6.762
    16   6 C        3.761    -0.108    22.604     6.778
    17   6 C        3.761    -0.106    22.565     6.772
    18   6 C        2.931    -0.039    28.980     8.829
    19   6 C        2.909    -0.052    29.281     8.873
    20   6 C        3.073     0.053    26.736     8.478
    21   7 N        2.799    -0.050    22.205     6.999
    22   6 C        2.910     0.070    26.440     8.432
    23   6 C        2.923    -0.045    29.110     8.848
    24   6 C        2.919    -0.037    28.932     8.821
    25   6 C        2.927     0.059    26.668     8.469
    26   7 N        2.753    -0.046    22.139     6.988
    27   6 C        2.925     0.059    26.670     8.469
    28   6 C        2.922    -0.053    29.306     8.878
    29   6 C        2.919    -0.030    28.749     8.793
    30   6 C        2.917    -0.037    28.930     8.820
    31   6 C        2.924    -0.034    28.852     8.809
    32   6 C        2.981    -0.004    28.117     8.698
    33   6 C        3.949     0.014    20.274     6.398
    34   6 C        3.053     0.002    27.935     8.668
    35   6 C        2.914    -0.032    28.800     8.800
    36   6 C        2.922    -0.032    28.788     8.799
    37   6 C        2.921    -0.032    28.801     8.801
    38   6 C        2.914    -0.034    28.851     8.808
    39   6 C        3.036     0.002    27.946     8.671
    40   6 C        3.033    -0.000    28.006     8.680
    41   6 C        2.911    -0.038    28.949     8.823
    42   6 C        3.033    -0.001    28.009     8.681
    43   6 C        3.068     0.001    27.939     8.667
    44   6 C        2.909    -0.038    28.956     8.824
    45   6 C        3.070     0.001    27.938     8.667
    46   6 C        3.949     0.014    20.265     6.397
    47   6 C        3.053     0.002    27.942     8.669
    48   6 C        2.914    -0.032    28.797     8.800
    49   6 C        2.922    -0.032    28.787     8.799
    50   6 C        2.921    -0.032    28.799     8.800
    51   6 C        2.914    -0.034    28.849     8.808
    52   6 C        3.035     0.002    27.943     8.671
    53   6 C        2.983    -0.002    28.064     8.690
    54   6 C        2.923    -0.035    28.870     8.811
    55   6 C        2.918    -0.036    28.884     8.813
    56   6 C        2.918    -0.030    28.754     8.793
    57   6 C        2.923    -0.049    29.208     8.863
    58   6 C        2.933     0.060    26.653     8.467
    59   7 N        2.751    -0.039    22.002     6.967
    60   6 C        2.925     0.036    27.185     8.550
    61   6 C        2.913    -0.045    29.124     8.849
    62   6 C        2.922    -0.044    29.088     8.844
    63   6 C        2.976    -0.022    28.560     8.766
    64   6 C        2.942     0.186    24.036     8.041
    65   7 N        1.847    -0.297    28.555     7.920
    66   6 C        2.948     0.211    23.538     7.957
    67   6 C        2.981    -0.012    28.311     8.728
    68   6 C        2.923    -0.033    28.827     8.805
    69   6 C        2.917    -0.032    28.796     8.800
    70   6 C        2.919    -0.038    28.953     8.824
    71   6 C        2.917    -0.034    28.840     8.806
    72   6 C        2.924    -0.035    28.863     8.810
    73   7 N        1.843    -0.378    30.714     8.213
    74   6 C        2.941     0.241    22.977     7.862
    75   6 C        3.864    -0.027    21.010     6.518
    76   6 C        3.806    -0.051    21.479     6.598
    77   6 C        3.805    -0.058    21.609     6.618
    78   6 C        3.806    -0.055    21.564     6.611
    79   6 C        3.805    -0.053    21.526     6.605
    80   6 C        3.809    -0.049    21.450     6.593
    81   7 N        1.838    -0.334    29.526     8.053
    82   6 C        2.921    -0.043    29.060     8.840
    83   6 C        2.916    -0.042    29.040     8.837
    84   6 C        2.923     0.059    26.670     8.469
    85   6 C        2.922    -0.054    29.349     8.884
    86   6 C        2.919    -0.031    28.762     8.795
    87   6 C        2.917    -0.036    28.896     8.815
    88   6 C        2.923    -0.034    28.854     8.809
    89   6 C        2.984    -0.003    28.098     8.695
    90   6 C        2.986    -0.002    28.076     8.692
    91   6 C        2.924    -0.035    28.862     8.810
    92   6 C        2.918    -0.037    28.915     8.818
    93   6 C        2.919    -0.030    28.747     8.792
    94   6 C        2.923    -0.053    29.312     8.879
    95   6 C        2.930     0.059    26.680     8.471
    96   6 C        2.922    -0.035    28.864     8.810
    97   6 C        2.923    -0.041    29.010     8.833
    98   1 H        0.925     0.035     2.511     2.478
    99   1 H        0.925     0.035     2.513     2.479
   100   1 H        0.925     0.039     2.460     2.453
   101   1 H        0.925     0.038     2.478     2.462
   102   1 H        0.925     0.041     2.441     2.443
   103   1 H        0.925     0.031     2.577     2.510
   104   1 H        0.925     0.041     2.435     2.440
   105   1 H        0.925     0.038     2.469     2.457
   106   1 H        0.925     0.033     2.537     2.491
   107   1 H        0.926     0.039     2.464     2.455
   108   1 H        0.926     0.033     2.540     2.492
   109   1 H        0.926     0.039     2.461     2.453
   110   1 H        0.926     0.037     2.494     2.470
   111   1 H        0.925     0.031     2.573     2.509
   112   1 H        0.925     0.039     2.461     2.453
   113   1 H        0.925     0.035     2.511     2.478
   114   1 H        0.925     0.036     2.502     2.473
   115   1 H        0.925     0.036     2.502     2.473
   116   1 H        0.925     0.040     2.452     2.449
   117   1 H        0.925     0.043     2.406     2.426
   118   1 H        0.925     0.035     2.517     2.481
   119   1 H        0.925     0.034     2.524     2.484
   120   1 H        0.926     0.028     2.621     2.532
   121   1 H        0.926     0.021     2.725     2.582
   122   1 H        0.926     0.051     2.301     2.372
   123   1 H        0.926     0.056     2.251     2.346
   124   1 H        0.926     0.035     2.514     2.479
   125   1 H        0.926     0.038     2.470     2.458
   126   1 H        0.926     0.038     2.471     2.458
   127   1 H        0.926     0.038     2.481     2.463
   128   1 H        0.926     0.030     2.585     2.514
   129   1 H        0.926     0.035     2.521     2.483
   130   1 H        0.926     0.035     2.520     2.482
   131   1 H        0.926     0.036     2.500     2.473
   132   1 H        0.926     0.042     2.416     2.431
   133   1 H        0.926     0.020     2.726     2.582
   134   1 H        0.926     0.030     2.591     2.517
   135   1 H        0.926     0.035     2.520     2.482
   136   1 H        0.926     0.035     2.515     2.480
   137   1 H        0.926     0.037     2.494     2.470
   138   1 H        0.926     0.040     2.449     2.447
   139   1 H        0.926     0.041     2.439     2.442
   140   1 H        0.926     0.039     2.456     2.451
   141   1 H        0.926     0.037     2.494     2.469
   142   1 H        0.926     0.035     2.511     2.478
   143   1 H        0.926     0.027     2.622     2.532
   144   1 H        0.926     0.027     2.624     2.533
   145   1 H        0.926     0.029     2.598     2.521
   146   1 H        0.926     0.032     2.552     2.498
   147   1 H        0.925     0.031     2.575     2.510
   148   1 H        0.926     0.033     2.546     2.495
   149   1 H        0.924     0.035     2.511     2.478
   150   1 H        0.924     0.035     2.516     2.480
   151   1 H        0.924     0.024     2.676     2.558
   152   1 H        0.924     0.030     2.582     2.513
   153   1 H        0.924     0.048     2.350     2.397
   154   1 H        0.924     0.031     2.567     2.506
   155   1 H        0.924     0.035     2.513     2.479
   156   1 H        0.924     0.029     2.597     2.520
   157   1 H        0.924     0.029     2.602     2.522
   158   1 H        0.924     0.018     2.760     2.598
   159   1 H        0.924     0.040     2.451     2.448
   160   1 H        0.926     0.029     2.600     2.521
   161   1 H        0.925     0.027     2.634     2.538
   162   1 H        0.926     0.043     2.404     2.425
   163   1 H        0.926     0.040     2.443     2.444
   164   1 H        0.926     0.040     2.452     2.449
   165   1 H        0.926     0.038     2.477     2.461
   166   1 H        0.926     0.039     2.469     2.457
   167   1 H        0.926     0.040     2.452     2.449
   168   1 H        0.926     0.041     2.435     2.440
   169   1 H        0.926     0.036     2.507     2.476
   170   1 H        0.926     0.048     2.342     2.393
   171   1 H        0.926     0.049     2.330     2.387

molecular dipole:
                 x           y           z       tot (Debye)
 q only:        4.010       0.421      -2.032
   full:        3.852       0.307      -1.819      10.855

 projected vibrational frequencies (cm⁻¹)
eigval :       -0.00    -0.00     0.00     0.00     0.00     0.00
eigval :        6.97    10.27    11.49    15.38    17.79    22.00
eigval :       22.34    29.04    30.94    36.90    40.45    43.29
eigval :       45.06    46.18    47.64    50.63    53.82    56.89
eigval :       57.49    59.63    62.80    64.47    69.36    70.94
eigval :       74.14    74.99    77.81    91.87    93.64   101.87
eigval :      105.62   107.23   110.36   113.76   114.96   118.93
eigval :      123.92   126.79   128.65   133.63   147.44   155.65
eigval :      166.00   170.06   173.83   178.85   184.44   186.01
eigval :      192.34   198.39   198.52   202.45   206.09   211.41
eigval :      215.86   220.92   224.31   226.87   229.17   234.70
eigval :      245.37   248.60   251.05   254.17   261.35   265.70
eigval :      270.63   275.51   277.27   287.40   293.90   299.28
eigval :      312.30   313.83   317.07   321.82   324.42   333.12
eigval :      338.54   348.19   349.43   354.02   358.43   359.97
eigval :      362.91   371.09   374.30   381.73   382.34   389.59
eigval :      391.19   392.81   397.18   399.51   401.71   404.40
eigval :      406.19   411.69   413.28   416.36   423.12   424.61
eigval :      427.28   431.38   434.07   443.54   444.58   453.67
eigval :      455.00   456.18   457.55   465.12   466.23   467.89
eigval :      471.58   476.32   484.74   487.56   490.04   499.23
eigval :      505.37   505.76   513.03   515.23   517.04   518.84
eigval :      525.62   528.03   559.22   568.40   570.93   572.50
eigval :      580.11   585.10   586.69   588.95   591.32   593.74
eigval :      597.56   599.60   604.12   608.03   609.33   611.37
eigval :      616.93   624.06   631.95   632.77   641.99   642.87
eigval :      645.08   656.21   659.66   663.87   670.76   673.13
eigval :      677.41   684.63   689.00   690.74   694.20   698.54
eigval :      699.82   706.36   709.82   712.07   721.68   723.14
eigval :      724.42   730.26   730.59   745.95   755.47   770.44
eigval :      772.21   773.94   775.70   776.65   778.38   797.45
eigval :      804.74   812.38   813.82   817.87   820.77   829.10
eigval :      830.88   831.41   845.20   846.86   862.68   864.90
eigval :      868.28   868.85   870.00   871.89   872.66   872.86
eigval :      873.12   875.07   876.57   878.27   879.63   879.75
eigval :      888.02   893.64   896.43   898.44   898.54   905.09
eigval :      907.78   909.23   909.91   910.48   910.83   911.45
eigval :      911.78   912.25   913.20   917.23   919.28   919.57
eigval :      920.39   921.06   922.14   922.85   923.50   925.00
eigval :      925.43   927.14   929.83   930.29   933.07   934.06
eigval :      940.21   941.61   941.97   944.65   954.59   956.34
eigval :      957.73   960.08   960.81   962.65   964.92   967.79
eigval :      972.50   984.25   991.73   995.81  1004.34  1005.00
eigval :     1020.63  1031.50  1034.21  1034.54  1037.93  1041.97
eigval :     1058.97  1073.09  1073.40  1075.91  1078.59  1080.85
eigval :     1088.50  1095.83  1099.15  1101.78  1103.24  1103.73
eigval :     1105.12  1107.82  1109.73  1115.14  1117.00  1122.08
eigval :     1122.98  1126.03  1126.76  1127.77  1135.29  1138.11
eigval :     1139.74  1142.06  1142.59  1145.62  1171.91  1172.04
eigval :     1173.61  1175.46  1176.42  1178.04  1178.64  1179.29
eigval :     1180.31  1180.87  1181.72  1182.55  1183.09  1193.38
eigval :     1194.44  1199.38  1204.30  1211.50  1215.57  1222.68
eigval :     1225.02  1225.85  1226.23  1228.84  1229.52  1231.70
eigval :     1232.74  1234.56  1235.81  1243.78  1247.37  1250.18
eigval :     1251.80  1253.12  1254.62  1256.86  1258.63  1259.50
eigval :     1261.38  1264.04  1265.25  1270.73  1272.10  1273.91
eigval :     1284.51  1287.86  1296.84  1297.71  1298.15  1300.73
eigval :     1302.44  1309.10  1310.14  1312.63  1320.54  1322.99
eigval :     1325.03  1325.57  1329.96  1331.14  1331.65  1332.54
eigval :     1333.76  1340.66  1345.61  1346.52  1349.15  1352.67
eigval :     1353.16  1354.62  1358.67  1368.08  1375.80  1385.32
eigval :     1397.79  1400.43  1401.33  1401.90  1403.96  1405.73
eigval :     1415.91  1416.20  1419.47  1422.20  1423.82  1424.96
eigval :     1426.25  1428.62  1431.91  1432.11  1433.43  1437.21
eigval :     1439.59  1443.43  1451.76  1454.15  1458.43  1461.29
eigval :     1464.93  1471.53  1475.12  1475.94  1476.74  1477.12
eigval :     1481.68  1482.27  1482.41  1483.30  1484.83  1484.90
eigval :     1487.37  1487.57  1490.97  1491.43  1494.29  1498.41
eigval :     1499.32  1500.84  1501.34  1505.73  1509.53  1512.32
eigval :     1517.50  1521.86  1553.06  1554.06  1555.44  1561.47
eigval :     1565.92  1568.53  1568.89  1571.98  1573.61  1575.59
eigval :     1578.48  1579.15  1585.95  1587.67  1589.12  1590.20
eigval :     1592.56  1593.06  1594.21  1595.97  1601.07  1602.21
eigval :     1608.35  2938.27  2944.23  2947.72  2955.11  2959.18
eigval :     2961.21  2966.37  2975.15  2979.56  2980.98  3003.16
eigval :     3020.10  3020.98  3021.55  3022.87  3024.46  3024.85
eigval :     3026.54  3026.90  3028.60  3031.76  3032.26  3033.78
eigval :     3037.47  3038.40  3039.46  3040.28  3045.37  3048.75
eigval :     3063.25  3063.86  3065.55  3069.67  3072.09  3072.59
eigval :     3075.50  3076.12  3076.56  3077.73  3081.08  3082.09
eigval :     3082.75  3083.06  3083.11  3083.33  3083.57  3083.78
eigval :     3085.32  3086.55  3086.81  3088.61  3088.84  3089.02
eigval :     3089.14  3090.75  3091.72  3093.05  3093.49  3093.56
eigval :     3095.47  3096.96  3098.02  3098.21  3098.34  3098.51
eigval :     3099.14  3102.94  3103.35  3103.51  3108.36  3118.47
eigval :     3118.65  3120.17  3122.36

   temp. (K)  partition function   enthalpy   heat capacity  entropy
                                   cal/mol     cal/K/mol   cal/K/mol   J/K/mol
 298.15  VIB  0.242E+38            49097.343    309.471    305.633
         ROT  0.407E+09              888.752      2.981     42.379
         INT  0.987E+46            49986.096    312.452    348.012
         TR   0.428E+29             1481.254      4.968     47.229
         TOT                       51467.3496   317.4203   395.2412  1653.6891

       T/K    H(0)-H(T)+PV         H(T)/Eh          T*S/Eh         G(T)/Eh
   ------------------------------------------------------------------------
    298.15    0.820184E-01    0.144866E+01    0.187792E+00    0.126087E+01
   ------------------------------------------------------------------------

         :::::::::::::::::::::::::::::::::::::::::::::::::::::
         ::                  THERMODYNAMIC                  ::
         :::::::::::::::::::::::::::::::::::::::::::::::::::::
         :: total free energy        -249.145540926534 Eh   ::
         ::.................................................::
         :: total energy             -250.406406420997 Eh   ::
         :: zero point energy           1.366638888324 Eh   ::
         :: G(RRHO) w/o ZPVE           -0.105773393862 Eh   ::
         :: G(RRHO) contrib.            1.260865494462 Eh   ::
         :::::::::::::::::::::::::::::::::::::::::::::::::::::

           -------------------------------------------------
          | TOTAL ENERGY             -250.406406420997 Eh   |
          | TOTAL ENTHALPY           -248.957749090458 Eh   |
          | TOTAL FREE ENERGY        -249.145540926534 Eh   |
          | GRADIENT NORM               0.000085383467 Eh/α |
          | HOMO-LUMO GAP               0.372617294023 eV   |
           -------------------------------------------------

 * finished run on 2025/09/09 at 03:56:06.934
