   * xtb version 6.7.1 (edcfbbe) compiled by 'albert@albert-system' on 2024-07-22

   ID    Z sym.   atoms
    1    6 C      1-20, 22-25, 27-58, 60-64, 66-72, 74-80, 82-97
    2    7 N      21, 26, 59, 65, 73, 81
    3    1 H      98-171

          program call               : xtb data2507/toluene/c-D2T/c-D2T_toluene_S0_crest.xyz --gfn 2 --gbsa toluene --ohess vtight --parallel 40 --molden --ceasefiles --namespace data2507/toluene/c-D2T/c-D2T_toluene_S0_finalOpt
      * Solvation model:               GBSA
        Solvent                        toluene
        Solvent mass                       9.2140E+01 g/mol
          :  Hamiltonian                  GFN2-xTB          :
 * total energy  :  -250.4796317 Eh     change       -0.1170969E-07 Eh
 * total energy  :  -250.4797713 Eh     change       -0.1395612E-03 Eh
 * total energy  :  -250.4798950 Eh     change       -0.1237386E-03 Eh
 * total energy  :  -250.4799657 Eh     change       -0.7066403E-04 Eh
 * total energy  :  -250.4800579 Eh     change       -0.9217972E-04 Eh
 * total energy  :  -250.4801271 Eh     change       -0.6921694E-04 Eh
 * total energy  :  -250.4801648 Eh     change       -0.3766914E-04 Eh
 * total energy  :  -250.4801997 Eh     change       -0.3497404E-04 Eh
 * total energy  :  -250.4802154 Eh     change       -0.1565952E-04 Eh
 * total energy  :  -250.4802424 Eh     change       -0.2703055E-04 Eh
 * total energy  :  -250.4809857 Eh     change       -0.3876184E-06 Eh
 * total energy  :  -250.4809861 Eh     change       -0.3271995E-06 Eh
 * total energy  :  -250.4809863 Eh     change       -0.2571649E-06 Eh
 * total energy  :  -250.4809866 Eh     change       -0.2611505E-06 Eh
 * total energy  :  -250.4809869 Eh     change       -0.2806289E-06 Eh
 * total energy  :  -250.4809872 Eh     change       -0.3357360E-06 Eh
 * total energy  :  -250.4809876 Eh     change       -0.3752818E-06 Eh
 * total energy  :  -250.4809880 Eh     change       -0.4225531E-06 Eh
 * total energy  :  -250.4809880 Eh     change       -0.4581011E-08 Eh
   *** GEOMETRY OPTIMIZATION CONVERGED AFTER 94 ITERATIONS ***

 final structure:
================
171
 xtb: 6.7.1 (edcfbbe)
C           -8.71735275871972        4.93616360015688       -0.77008810483030
C           -7.21768999139774        5.23603028643317       -0.85297832611996
C           -6.83535319073867        6.08761625404701        0.36565406620072
C           -6.96196885017286        6.03289074764727       -2.14164756683798
C           -6.37092746597218        3.97063040952630       -0.87959690325364
C           -4.97760645095018        4.08582453212814       -0.96474734875795
C           -4.13390903577661        2.99468599743257       -1.03150037404580
C           -4.69854266122137        1.72964596854889       -1.00213428848841
C           -6.09848488357214        1.58636907814416       -0.92508605122304
C           -6.92363988668361        2.70072202367735       -0.85987321277227
C           -6.37152291240849        0.17683727253527       -0.98207846102986
C           -7.54862021114078       -0.55881347997721       -0.94978736961947
C           -7.50108160081604       -1.94087389316313       -1.03101281621773
C           -8.75234220875788       -2.80922196127097       -1.02643288359477
C          -10.04045142504472       -1.98352435688417       -0.95338686446853
C           -8.79403553418196       -3.63883490493367       -2.31872363641427
C           -8.71507580055468       -3.74597745112494        0.18998785266748
C           -6.24660773673765       -2.55858187013619       -1.12009306489800
C           -5.06195960791664       -1.85061254454076       -1.15351620945686
C           -5.12464270786172       -0.46747230084077       -1.10560995619777
N           -4.11153892829223        0.47728252919752       -1.11104013270904
C           -2.76139469303440        0.22469884381470       -1.36971694180378
C           -2.39798701333942       -0.64874569769917       -2.39526693589867
C           -1.06715950590600       -0.88773230237454       -2.67201016905003
C           -0.07213840436394       -0.25637210100036       -1.93281578104366
N            1.29914487440755       -0.47705492731853       -2.23016613549018
C            1.88200590577862       -1.70155965743536       -1.93270334135316
C            1.12274898429349       -2.73079804839167       -1.36853046705098
C            1.69142432209899       -3.95185419706728       -1.06655353124113
C            3.03445144455831       -4.17682941358904       -1.31589529452958
C            3.79544732264269       -3.16094922607404       -1.86398528861465
C            3.24090685961546       -1.92790527821859       -2.17513030744464
C            4.14093771401357       -0.85842712300216       -2.74158614654057
C            4.96230863359044       -1.37150812877603       -3.90830482855833
C            4.51527243400787       -1.89369481212537       -5.10199349679635
C            5.45340981291816       -2.29175914236968       -6.04582168841345
C            6.81116291246820       -2.16394017560854       -5.79404975617006
C            7.26588074749435       -1.63704277328159       -4.59519436894939
C            6.33488906886281       -1.24016164389369       -3.64915835877979
C            6.50464011189340       -0.66451997559340       -2.32225688727350
C            7.65009074379350       -0.28866888864642       -1.63625435997945
C            7.48636266939248        0.26778273283159       -0.37610737980945
C            6.21156291545334        0.40647685934303        0.19431766473658
C            5.06963678420077        0.04857003356760       -0.49450583118417
C            5.23235615849081       -0.47443329699627       -1.76089477377129
C            6.30596622342929        1.04871671435848        1.57098132645858
C            7.78599894441034        1.33112843561415        1.66796079698311
C            8.47527168289497        1.94954793987974        2.68972185747569
C            9.85423081267113        2.07544531379705        2.58119863066292
C           10.52653256978216        1.58260215273714        1.47253427109497
C            9.83880661289622        0.95873272071331        0.44336492396596
C            8.46228664328537        0.83514473934888        0.54307428352644
C            5.84805145065947        0.07444906198872        2.63081350531411
C            6.72573940652514       -0.82238347494000        3.22082674139282
C            6.28629824123175       -1.73398410958172        4.16409809139530
C            4.95223934622006       -1.74385734009267        4.53498088081799
C            4.06665860027247       -0.85591225595807        3.95826672374448
C            4.49898793867102        0.04835409249150        2.98675396936358
N            3.59154482993289        0.95204100678844        2.42890706387094
C            2.24180354544035        0.55446294134801        2.37880661307920
C            1.21047695140931        1.29577935280867        2.95566507576211
C           -0.09722375225783        0.86491554272023        2.84905588306276
C           -0.39849641693547       -0.33266425110587        2.20398150877434
C           -1.78028892452895       -0.78774556591114        2.08004745508046
N           -2.74771906812742        0.10946746483523        2.23892523012234
C           -3.98765139652430       -0.34840459291580        2.09304633745217
C           -5.08552263366469        0.60873588675251        2.19649634494110
C           -4.81622834029647        1.96935029235043        2.33383391293139
C           -5.85303598838529        2.87271277921713        2.45068672545341
C           -7.16535744451320        2.42744652020844        2.42936332973073
C           -7.43980295904234        1.07627887491626        2.28754239579352
C           -6.40674165422790        0.16743930001966        2.16806359789504
N           -4.28747570235333       -1.63074482754285        1.89397574299368
C           -3.26037487384323       -2.45784942482380        1.78490946952113
C           -3.52984682508659       -3.92140652701807        1.57204981304901
C           -2.54462903351688       -4.78235754928184        2.37059179621612
C           -2.82333018941689       -4.67955418029916        3.86729693465528
C           -4.25812697564710       -5.09667707912259        4.17517324380751
C           -5.23979855461893       -4.21988160349337        3.40387429830981
C           -4.97398851708077       -4.29889892933516        1.90310674817187
N           -1.98946725879762       -2.07631482598348        1.82209297134271
C            0.63892774733500       -1.10422308056143        1.68230862790750
C            1.93866129155428       -0.65990564380343        1.75521684306725
C            4.05916883632184        2.14444178656592        1.87092411362311
C            3.21016009285151        3.21363685768253        1.58653108365072
C            3.70952685538762        4.40459606386179        1.09422263496646
C            5.06608792578861        4.55698787221871        0.87344008964198
C            5.90775949883336        3.47975973565049        1.08656175078775
C            5.42151887183005        2.27350254140201        1.56343794000145
C            3.37698260694530        0.38597617888616       -3.13755851087005
C            4.05954876488689        1.41296664042412       -3.77353436775086
C            3.41922391500384        2.57643862170022       -4.15657815923385
C            2.06366551416945        2.71123699420577       -3.91097348791763
C            1.36843990908395        1.70030503336718       -3.27941289762657
C            2.01377524554904        0.53069378144201       -2.86705939455298
C           -0.43152848608039        0.61850945015719       -0.91372067384674
C           -1.76255357354189        0.85740237749924       -0.63233768740563
H           -8.95358281301651        4.37239959702688        0.12902547554101
H           -9.05227963960483        4.37652288364442       -1.64036310718221
H           -9.27241482336512        5.87165746249957       -0.73808261426183
H           -5.78207674248539        6.35349479330837        0.35034227427461
H           -7.41837143362450        7.00631774081074        0.37675968914722
H           -7.03816226930865        5.53901506601892        1.28228432613340
H           -7.58825332310219        6.92242327262347       -2.16271038315161
H           -5.92421518303863        6.34603506519732       -2.21546759371457
H           -7.19641982259776        5.42431218859077       -3.01297216355159
H           -4.52785580121913        5.06666380175748       -0.99316548037314
H           -3.06786378878840        3.13666404368385       -1.12595153218258
H           -7.98814567798810        2.54783254217888       -0.81014196279710
H           -8.48221920352830       -0.03010628000080       -0.85982836045600
H          -10.89927181026120       -2.65159700663268       -0.96991025222710
H          -10.12164419410342       -1.31036659873611       -1.80370209073568
H          -10.08336816332598       -1.40532758674999       -0.03367449430819
H           -8.79680616778505       -2.98262899224782       -3.18696048894215
H           -7.93549165964338       -4.30024901266914       -2.39495606565335
H           -9.69531110555622       -4.24777631458288       -2.34294433905875
H           -9.61711459064291       -4.35342302726896        0.22231256809074
H           -8.65604978830905       -3.16708945067922        1.10952063048939
H           -7.85792632045854       -4.41209915218941        0.15103200846386
H           -6.18867543871426       -3.63519613597252       -1.17034137163826
H           -4.11548938314495       -2.36918959581589       -1.20809809301190
H           -3.16572972418271       -1.11642642896502       -2.99287052138057
H           -0.79183112098870       -1.55611741945213       -3.47464374809082
H            0.07568842684326       -2.56794250940574       -1.16305217172545
H            1.07905288511979       -4.72904214686778       -0.63285306576629
H            3.48490224023594       -5.12910847828268       -1.08200930624959
H            4.84707217783759       -3.31839230904627       -2.05613297090975
H            3.45738861070366       -1.99249631833033       -5.29937653688551
H            5.12093869904197       -2.70523707087411       -6.98681402468262
H            7.52330211516027       -2.47913179952986       -6.54308321409038
H            8.32440218307224       -1.53992764393442       -4.40434572503121
H            8.62961247604473       -0.40570455051353       -2.07417391560285
H            4.08295724780214        0.19007682923332       -0.08094084606296
H            7.95248794055454        2.32869601591065        3.55604422879749
H           10.40949810929627        2.56052658316478        3.37074055877878
H           11.60016294609907        1.68786208143940        1.41081014049339
H           10.36690855429961        0.57731110342334       -0.41785368211613
H            7.76557643673991       -0.81155952515605        2.93078694490750
H            6.98226546986280       -2.42950049552544        4.60761713396221
H            4.59768842807999       -2.44016776065984        5.28031037245193
H            3.02984483168222       -0.85780313147624        4.26017750250192
H            1.43671668363671        2.18962606522940        3.51677019028062
H           -0.90016666919697        1.43859306885847        3.28657930598998
H           -3.78852663405497        2.29779779397329        2.35033101663135
H           -5.63646186470764        3.92441375806160        2.55909983555758
H           -7.97593092590812        3.13407683031049        2.52732905681687
H           -8.46286849762405        0.73207808834341        2.27223716210979
H           -6.59695611957439       -0.88808526274523        2.05174084209999
H           -3.35146672338328       -4.10135729540465        0.50259351673656
H           -2.64932163885595       -5.82226559157070        2.05392957511676
H           -1.52597767662224       -4.45515686134859        2.15783703254912
H           -2.12168822204353       -5.31267672913966        4.41473228899318
H           -2.66460248972054       -3.64738955940991        4.19390904213484
H           -4.44806094905733       -5.01432931972084        5.24753789376092
H           -4.39930635002991       -6.14105432094180        3.88725666429184
H           -5.13795935955651       -3.18216851231418        3.73012119996208
H           -6.26447449541404       -4.53598758505848        3.60979171775559
H           -5.64789515767319       -3.62542724171284        1.37306531030871
H           -5.15384493311284       -5.31978307726938        1.55848641831419
H            0.40515767829490       -2.04051173344940        1.20268889800604
H            2.73616809147747       -1.25485620522365        1.33444994580662
H            2.14674466291730        3.11477292777868        1.72718165125571
H            3.02840440178436        5.21597291523491        0.88416998434253
H            5.46219007060265        5.49093040139872        0.50530926664805
H            6.95961600316187        3.56513655480972        0.85689394147729
H            5.11500756962972        1.29255244498702       -3.96959388193697
H            3.97072749768761        3.36396789874959       -4.64661622743160
H            1.53952943693755        3.60537801878623       -4.21469962596487
H            0.30911549837600        1.81324659747456       -3.10732315270610
H            0.34013728552606        1.11433305994523       -0.34453049019790
H           -2.03459517592107        1.51660627386352        0.17695401429453

          :  Hamiltonian                  GFN2-xTB          :
         :: gradient norm              0.000058054808 Eh/a0 ::
         :: HOMO-LUMO gap              1.578239603574 eV    ::
         :: SCC energy              -254.984632051490 Eh    ::
         :: -> dispersion             -0.287992674362 Eh    ::
         :: -> Gsolv                  -0.085878515846 Eh    ::
         :: repulsion energy           4.503644040768 Eh    ::

    * Orbital Energies and Occupations

         #    Occupation            Energy/Eh            Energy/eV
      -------------------------------------------------------------
         1        2.0000           -0.6912847             -18.8108
       ...           ...                  ...                  ...
       222        2.0000           -0.3988927             -10.8544
       223        2.0000           -0.3985941             -10.8463
       224        2.0000           -0.3979218             -10.8280
       225        2.0000           -0.3969391             -10.8013
       226        2.0000           -0.3948830             -10.7453
       227        2.0000           -0.3865425             -10.5184
       228        2.0000           -0.3814339             -10.3793
       229        2.0000           -0.3797180             -10.3327
       230        2.0000           -0.3766278             -10.2486
       231        2.0000           -0.3735401             -10.1645
       232        2.0000           -0.3630834              -9.8800
       233        2.0000           -0.3555819              -9.6759
       234        2.0000           -0.3514192              -9.5626 (HOMO)
       235                         -0.2934199              -7.9844 (LUMO)
       236                         -0.2816202              -7.6633
       237                         -0.2574374              -7.0052
       238                         -0.2509174              -6.8278
       239                         -0.2495447              -6.7905
       240                         -0.2459290              -6.6921
       241                         -0.2417925              -6.5795
       242                         -0.2415073              -6.5717
       243                         -0.2341232              -6.3708
       244                         -0.2327174              -6.3326
       245                         -0.2318151              -6.3080
       ...                                ...                  ...
       462                          0.7396453              20.1268
      -------------------------------------------------------------
                  HL-Gap            0.0579992 Eh            1.5782 eV

     #   Z          covCN         q      C6AA      α(0)
     1   6 C        3.761    -0.109    22.625     6.781
     2   6 C        3.902     0.025    20.096     6.372
     3   6 C        3.761    -0.107    22.586     6.775
     4   6 C        3.761    -0.106    22.574     6.773
     5   6 C        2.972    -0.001    28.049     8.687
     6   6 C        2.931    -0.041    29.017     8.834
     7   6 C        2.909    -0.057    29.414     8.893
     8   6 C        3.074     0.046    26.891     8.502
     9   6 C        3.068    -0.022    28.490     8.752
    10   6 C        2.919    -0.046    29.146     8.853
    11   6 C        3.066    -0.022    28.483     8.751
    12   6 C        2.918    -0.046    29.143     8.853
    13   6 C        2.972    -0.001    28.046     8.687
    14   6 C        3.902     0.025    20.096     6.372
    15   6 C        3.761    -0.109    22.630     6.781
    16   6 C        3.761    -0.107    22.587     6.775
    17   6 C        3.761    -0.106    22.571     6.773
    18   6 C        2.931    -0.041    29.025     8.835
    19   6 C        2.909    -0.051    29.271     8.871
    20   6 C        3.076     0.049    26.815     8.490
    21   7 N        2.799    -0.069    22.574     7.057
    22   6 C        2.911     0.066    26.511     8.443
    23   6 C        2.922    -0.048    29.193     8.860
    24   6 C        2.921    -0.040    29.002     8.831
    25   6 C        2.925     0.064    26.572     8.453
    26   7 N        2.752    -0.074    22.679     7.073
    27   6 C        2.923     0.059    26.673     8.469
    28   6 C        2.924    -0.058    29.436     8.897
    29   6 C        2.919    -0.034    28.839     8.806
    30   6 C        2.917    -0.044    29.099     8.846
    31   6 C        2.926    -0.036    28.896     8.816
    32   6 C        2.981    -0.009    28.247     8.718
    33   6 C        3.949     0.013    20.290     6.401
    34   6 C        3.056     0.001    27.955     8.671
    35   6 C        2.914    -0.033    28.828     8.804
    36   6 C        2.922    -0.033    28.815     8.803
    37   6 C        2.921    -0.033    28.828     8.805
    38   6 C        2.914    -0.035    28.878     8.812
    39   6 C        3.035     0.001    27.971     8.675
    40   6 C        3.033    -0.003    28.061     8.689
    41   6 C        2.911    -0.040    28.988     8.829
    42   6 C        3.033    -0.003    28.062     8.689
    43   6 C        3.067    -0.000    27.971     8.672
    44   6 C        2.910    -0.040    28.999     8.830
    45   6 C        3.066    -0.001    27.991     8.676
    46   6 C        3.950     0.014    20.277     6.399
    47   6 C        3.051     0.001    27.953     8.671
    48   6 C        2.914    -0.032    28.807     8.801
    49   6 C        2.922    -0.033    28.821     8.804
    50   6 C        2.921    -0.033    28.826     8.804
    51   6 C        2.914    -0.035    28.869     8.811
    52   6 C        3.036     0.001    27.967     8.674
    53   6 C        2.984    -0.005    28.132     8.700
    54   6 C        2.923    -0.037    28.908     8.817
    55   6 C        2.918    -0.040    28.999     8.831
    56   6 C        2.919    -0.033    28.822     8.804
    57   6 C        2.923    -0.053    29.324     8.880
    58   6 C        2.936     0.057    26.717     8.477
    59   7 N        2.752    -0.069    22.585     7.058
    60   6 C        2.924     0.073    26.371     8.421
    61   6 C        2.918    -0.044    29.092     8.845
    62   6 C        2.923    -0.027    28.683     8.783
    63   6 C        2.984    -0.012    28.309     8.728
    64   6 C        2.990     0.227    23.232     7.906
    65   7 N        1.845    -0.332    29.455     8.043
    66   6 C        2.990     0.233    23.124     7.888
    67   6 C        2.985    -0.008    28.214     8.713
    68   6 C        2.925    -0.026    28.656     8.779
    69   6 C        2.918    -0.027    28.677     8.782
    70   6 C        2.921    -0.020    28.514     8.757
    71   6 C        2.919    -0.026    28.652     8.778
    72   6 C        2.924    -0.024    28.615     8.772
    73   7 N        1.842    -0.322    29.209     8.010
    74   6 C        2.982     0.238    23.034     7.873
    75   6 C        3.863    -0.025    20.983     6.514
    76   6 C        3.808    -0.060    21.639     6.622
    77   6 C        3.805    -0.050    21.470     6.596
    78   6 C        3.805    -0.059    21.627     6.620
    79   6 C        3.805    -0.054    21.532     6.606
    80   6 C        3.807    -0.061    21.661     6.625
    81   7 N        1.843    -0.335    29.547     8.056
    82   6 C        2.923    -0.026    28.649     8.778
    83   6 C        2.923    -0.039    28.970     8.827
    84   6 C        2.920     0.058    26.698     8.473
    85   6 C        2.922    -0.060    29.490     8.905
    86   6 C        2.920    -0.034    28.841     8.807
    87   6 C        2.917    -0.042    29.038     8.837
    88   6 C        2.924    -0.037    28.914     8.818
    89   6 C        2.987    -0.007    28.181     8.708
    90   6 C        2.984    -0.008    28.222     8.714
    91   6 C        2.926    -0.036    28.905     8.817
    92   6 C        2.917    -0.044    29.081     8.843
    93   6 C        2.920    -0.033    28.832     8.805
    94   6 C        2.924    -0.059    29.461     8.901
    95   6 C        2.926     0.059    26.686     8.472
    96   6 C        2.922    -0.039    28.971     8.827
    97   6 C        2.921    -0.045    29.117     8.849
    98   1 H        0.925     0.037     2.485     2.465
    99   1 H        0.925     0.036     2.498     2.471
   100   1 H        0.925     0.040     2.455     2.450
   101   1 H        0.925     0.036     2.509     2.477
   102   1 H        0.925     0.040     2.445     2.445
   103   1 H        0.925     0.036     2.509     2.477
   104   1 H        0.925     0.040     2.443     2.444
   105   1 H        0.925     0.036     2.500     2.473
   106   1 H        0.925     0.032     2.555     2.500
   107   1 H        0.926     0.035     2.512     2.479
   108   1 H        0.926     0.023     2.682     2.561
   109   1 H        0.926     0.043     2.404     2.424
   110   1 H        0.926     0.044     2.390     2.418
   111   1 H        0.925     0.040     2.451     2.448
   112   1 H        0.925     0.037     2.485     2.465
   113   1 H        0.925     0.037     2.486     2.466
   114   1 H        0.925     0.033     2.542     2.493
   115   1 H        0.925     0.036     2.506     2.476
   116   1 H        0.925     0.041     2.436     2.441
   117   1 H        0.925     0.041     2.431     2.438
   118   1 H        0.925     0.032     2.559     2.502
   119   1 H        0.925     0.036     2.499     2.472
   120   1 H        0.926     0.033     2.548     2.496
   121   1 H        0.926     0.006     2.952     2.687
   122   1 H        0.926     0.048     2.346     2.395
   123   1 H        0.926     0.051     2.311     2.377
   124   1 H        0.926     0.021     2.719     2.579
   125   1 H        0.926     0.031     2.573     2.509
   126   1 H        0.926     0.032     2.554     2.499
   127   1 H        0.926     0.030     2.584     2.514
   128   1 H        0.926     0.025     2.660     2.551
   129   1 H        0.926     0.033     2.547     2.496
   130   1 H        0.926     0.034     2.534     2.489
   131   1 H        0.926     0.034     2.525     2.485
   132   1 H        0.926     0.038     2.475     2.460
   133   1 H        0.926     0.020     2.730     2.584
   134   1 H        0.926     0.029     2.594     2.519
   135   1 H        0.926     0.033     2.541     2.493
   136   1 H        0.926     0.033     2.542     2.493
   137   1 H        0.926     0.034     2.534     2.489
   138   1 H        0.926     0.036     2.508     2.477
   139   1 H        0.926     0.036     2.505     2.475
   140   1 H        0.926     0.036     2.503     2.474
   141   1 H        0.926     0.028     2.616     2.529
   142   1 H        0.926     0.057     2.237     2.339
   143   1 H        0.926     0.051     2.303     2.373
   144   1 H        0.926     0.043     2.405     2.425
   145   1 H        0.926     0.047     2.356     2.400
   146   1 H        0.926     0.049     2.331     2.388
   147   1 H        0.926     0.047     2.353     2.399
   148   1 H        0.926     0.048     2.341     2.392
   149   1 H        0.923     0.040     2.451     2.448
   150   1 H        0.924     0.044     2.401     2.423
   151   1 H        0.924     0.042     2.424     2.435
   152   1 H        0.924     0.034     2.528     2.487
   153   1 H        0.924     0.013     2.842     2.636
   154   1 H        0.924     0.031     2.574     2.509
   155   1 H        0.924     0.041     2.437     2.441
   156   1 H        0.924     0.024     2.671     2.556
   157   1 H        0.924     0.036     2.498     2.472
   158   1 H        0.924     0.047     2.353     2.399
   159   1 H        0.924     0.040     2.449     2.447
   160   1 H        0.926     0.052     2.301     2.372
   161   1 H        0.926     0.044     2.396     2.420
   162   1 H        0.926     0.035     2.515     2.480
   163   1 H        0.926     0.035     2.523     2.484
   164   1 H        0.926     0.033     2.543     2.494
   165   1 H        0.926     0.033     2.544     2.494
   166   1 H        0.926     0.030     2.589     2.516
   167   1 H        0.926     0.032     2.555     2.500
   168   1 H        0.926     0.034     2.536     2.490
   169   1 H        0.926     0.026     2.650     2.546
   170   1 H        0.926     0.039     2.456     2.451
   171   1 H        0.926     0.045     2.385     2.415

molecular dipole:
                 x           y           z       tot (Debye)
 q only:       -1.027       0.440       0.150
   full:       -0.849       0.345       0.054       2.334

 projected vibrational frequencies (cm⁻¹)
eigval :       -0.00    -0.00     0.00     0.00     0.00     0.00
eigval :        8.65     9.83    12.96    16.16    17.67    22.59
eigval :       24.20    29.32    35.24    37.02    38.17    40.30
eigval :       41.45    42.81    46.22    47.34    52.57    53.96
eigval :       56.95    59.16    61.27    61.55    67.52    69.48
eigval :       70.56    74.61    76.77    88.13    90.23    97.25
eigval :      101.48   102.65   110.42   114.90   117.63   119.13
eigval :      125.88   130.69   134.23   146.93   150.91   159.00
eigval :      163.08   166.86   173.54   177.30   177.96   182.78
eigval :      183.78   196.73   201.69   203.75   204.80   207.21
eigval :      220.29   221.60   224.88   231.85   233.99   242.71
eigval :      245.81   251.24   252.92   254.44   263.85   266.31
eigval :      271.84   278.80   279.54   290.87   293.88   306.74
eigval :      315.64   316.88   317.79   322.83   326.59   336.52
eigval :      347.34   348.89   351.43   359.44   361.08   365.25
eigval :      368.23   371.84   375.83   379.17   384.98   390.88
eigval :      394.49   395.61   398.79   401.96   402.98   406.92
eigval :      409.17   413.09   414.66   415.61   427.47   431.27
eigval :      433.40   434.59   442.34   443.25   447.66   449.79
eigval :      457.01   459.31   465.72   466.52   469.27   472.72
eigval :      474.87   483.21   485.37   493.16   499.83   504.28
eigval :      510.37   512.08   515.00   517.21   519.83   525.72
eigval :      529.29   550.10   560.26   570.37   575.17   579.33
eigval :      584.85   587.94   588.73   592.78   594.57   598.15
eigval :      599.36   602.27   607.95   610.53   611.65   615.87
eigval :      625.55   631.89   635.34   639.48   641.87   644.91
eigval :      648.60   660.38   667.29   673.34   677.22   680.47
eigval :      681.73   688.49   691.63   695.90   698.09   704.19
eigval :      707.19   712.16   718.02   721.34   724.42   728.86
eigval :      731.23   732.42   747.15   763.73   770.94   773.06
eigval :      775.42   775.76   777.60   779.93   793.10   817.04
eigval :      818.71   819.92   823.75   829.12   830.21   831.27
eigval :      844.03   848.47   853.46   860.94   865.24   868.01
eigval :      871.57   872.27   872.64   873.17   874.67   875.11
eigval :      875.72   875.98   876.38   877.02   883.02   884.34
eigval :      895.91   898.83   899.34   906.58   907.68   908.72
eigval :      908.96   909.81   910.10   910.40   911.48   912.42
eigval :      917.58   918.03   918.32   920.68   920.74   921.15
eigval :      922.70   924.01   925.14   927.57   927.92   928.50
eigval :      929.22   930.45   931.45   935.16   936.62   940.99
eigval :      941.78   942.48   947.16   955.61   957.40   958.49
eigval :      958.99   959.28   961.18   962.54   962.82   963.51
eigval :      990.27  1001.67  1004.56  1006.74  1014.49  1020.15
eigval :     1030.11  1034.22  1034.91  1035.12  1040.70  1055.28
eigval :     1073.48  1075.92  1076.97  1081.47  1084.44  1095.65
eigval :     1098.88  1104.39  1105.07  1106.90  1107.65  1108.72
eigval :     1110.27  1112.63  1114.97  1121.16  1123.89  1126.03
eigval :     1126.96  1130.19  1131.42  1135.66  1138.88  1141.83
eigval :     1142.76  1145.81  1165.78  1173.76  1174.87  1175.44
eigval :     1178.06  1178.65  1179.40  1180.43  1180.77  1181.31
eigval :     1182.76  1183.15  1184.87  1186.87  1195.28  1196.10
eigval :     1203.83  1207.84  1209.31  1213.47  1216.90  1221.54
eigval :     1225.26  1225.73  1226.03  1229.40  1230.60  1231.38
eigval :     1233.62  1235.15  1237.62  1243.80  1245.33  1250.46
eigval :     1252.11  1254.25  1257.02  1257.82  1258.67  1260.17
eigval :     1267.21  1268.79  1269.89  1270.27  1273.31  1281.66
eigval :     1283.35  1288.12  1300.06  1301.38  1304.11  1306.08
eigval :     1307.38  1313.54  1315.24  1320.66  1325.14  1326.18
eigval :     1328.64  1330.74  1331.86  1332.06  1332.58  1333.25
eigval :     1343.76  1347.34  1347.64  1352.70  1355.61  1358.11
eigval :     1358.26  1359.95  1373.07  1377.45  1379.50  1380.21
eigval :     1397.46  1399.37  1402.01  1403.19  1405.54  1406.76
eigval :     1415.31  1418.06  1423.98  1425.53  1426.52  1433.45
eigval :     1434.31  1434.62  1435.46  1438.35  1441.93  1444.59
eigval :     1455.14  1466.05  1467.37  1467.43  1470.75  1474.86
eigval :     1478.37  1480.20  1481.36  1483.94  1484.81  1485.38
eigval :     1486.72  1488.01  1488.81  1490.06  1490.45  1492.83
eigval :     1492.90  1492.98  1498.80  1499.64  1501.80  1502.08
eigval :     1502.71  1509.44  1510.87  1514.61  1516.77  1519.12
eigval :     1522.68  1555.97  1559.76  1571.37  1572.21  1572.27
eigval :     1573.82  1582.89  1583.56  1584.84  1585.63  1585.89
eigval :     1587.70  1588.09  1588.80  1590.91  1594.36  1596.34
eigval :     1596.74  1599.29  1600.67  1602.74  1603.77  1605.43
eigval :     1617.74  2878.92  2947.05  2961.83  2966.80  2971.41
eigval :     2973.75  2976.04  2981.28  2984.90  2997.56  3002.78
eigval :     3020.71  3021.39  3021.85  3021.97  3025.41  3025.80
eigval :     3026.55  3027.23  3029.38  3032.56  3033.96  3036.27
eigval :     3039.10  3039.42  3045.02  3045.93  3048.40  3049.86
eigval :     3067.26  3069.83  3070.59  3072.87  3073.54  3074.48
eigval :     3077.29  3077.69  3077.75  3078.33  3078.65  3080.14
eigval :     3080.45  3081.32  3082.21  3083.47  3084.60  3084.75
eigval :     3086.65  3087.07  3087.86  3089.41  3089.71  3090.21
eigval :     3090.59  3090.63  3091.14  3091.68  3092.49  3093.45
eigval :     3093.89  3095.34  3096.02  3096.70  3097.12  3099.19
eigval :     3099.67  3100.01  3102.59  3105.16  3107.65  3118.29
eigval :     3118.75  3121.46  3124.32

   temp. (K)  partition function   enthalpy   heat capacity  entropy
                                   cal/mol     cal/K/mol   cal/K/mol   J/K/mol
 298.15  VIB  0.194E+38            48841.616    306.992    303.978
         ROT  0.432E+09              888.752      2.981     42.498
         INT  0.839E+46            49730.369    309.973    346.476
         TR   0.428E+29             1481.254      4.968     47.229
         TOT                       51211.6225   314.9407   393.7047  1647.2606

       T/K    H(0)-H(T)+PV         H(T)/Eh          T*S/Eh         G(T)/Eh
   ------------------------------------------------------------------------
    298.15    0.816109E-01    0.145272E+01    0.187062E+00    0.126566E+01
   ------------------------------------------------------------------------

         :::::::::::::::::::::::::::::::::::::::::::::::::::::
         ::                  THERMODYNAMIC                  ::
         :::::::::::::::::::::::::::::::::::::::::::::::::::::
         :: total free energy        -249.215330115390 Eh   ::
         ::.................................................::
         :: total energy             -250.480988015810 Eh   ::
         :: zero point energy           1.371108811967 Eh   ::
         :: G(RRHO) w/o ZPVE           -0.105450911548 Eh   ::
         :: G(RRHO) contrib.            1.265657900419 Eh   ::
         :::::::::::::::::::::::::::::::::::::::::::::::::::::

           -------------------------------------------------
          | TOTAL ENERGY             -250.480988015810 Eh   |
          | TOTAL ENTHALPY           -249.028268288575 Eh   |
          | TOTAL FREE ENERGY        -249.215330115390 Eh   |
          | GRADIENT NORM               0.000058052745 Eh/α |
          | HOMO-LUMO GAP               1.578239533582 eV   |
           -------------------------------------------------

 * finished run on 2025/09/09 at 02:39:48.212
