   * xtb version 6.7.1 (edcfbbe) compiled by 'albert@albert-system' on 2024-07-22

   ID    Z sym.   atoms
    1    6 C      1-20, 22-25, 27-58, 60-64, 66-72, 74-80, 82-97
    2    7 N      21, 26, 59, 65, 73, 81
    3    1 H      98-171

          program call               : xtb data2507/toluene/c-D2T/c-D2T_toluene_S0_finalOpt.xtbopt.xyz --gfn 2 --uhf 2 --gbsa toluene --ohess vtight --parallel 40 --molden --ceasefiles --namespace data2507/toluene/c-D2T/c-D2T_toluene_T1_preOpt
      * Solvation model:               GBSA
        Solvent                        toluene
        Solvent mass                       9.2140E+01 g/mol
          :  Hamiltonian                  GFN2-xTB          :
 * total energy  :  -250.4008489 Eh     change       -0.4278243E-07 Eh
 * total energy  :  -250.4042233 Eh     change       -0.3374417E-02 Eh
 * total energy  :  -250.4053547 Eh     change       -0.1131402E-02 Eh
 * total energy  :  -250.4054521 Eh     change       -0.9741276E-04 Eh
 * total energy  :  -250.4055360 Eh     change       -0.8387522E-04 Eh
 * total energy  :  -250.4055620 Eh     change       -0.2597568E-04 Eh
 * total energy  :  -250.4055930 Eh     change       -0.3101912E-04 Eh
 * total energy  :  -250.4056190 Eh     change       -0.2601757E-04 Eh
 * total energy  :  -250.4056447 Eh     change       -0.2573370E-04 Eh
 * total energy  :  -250.4056666 Eh     change       -0.2185825E-04 Eh
 * total energy  :  -250.4058817 Eh     change       -0.3888074E-06 Eh
 * total energy  :  -250.4058821 Eh     change       -0.4332335E-06 Eh
 * total energy  :  -250.4058826 Eh     change       -0.4310161E-06 Eh
 * total energy  :  -250.4058830 Eh     change       -0.4397967E-06 Eh
 * total energy  :  -250.4058834 Eh     change       -0.4050368E-06 Eh
 * total energy  :  -250.4058838 Eh     change       -0.3985838E-06 Eh
 * total energy  :  -250.4058843 Eh     change       -0.4815292E-06 Eh
 * total energy  :  -250.4058849 Eh     change       -0.6322268E-06 Eh
 * total energy  :  -250.4058849 Eh     change       -0.1001493E-07 Eh
   *** GEOMETRY OPTIMIZATION CONVERGED AFTER 68 ITERATIONS ***

 final structure:
================
171
 xtb: 6.7.1 (edcfbbe)
C           -8.71433249442387        4.92688626192843       -0.59646824939783
C           -7.21848028385996        5.24038271235457       -0.69537529628818
C           -6.82689150996772        6.07602742340757        0.53113849921369
C           -6.98529468533313        6.05778305101395       -1.97561955199828
C           -6.36263431412681        3.98288201514247       -0.75229087641940
C           -4.97103605660401        4.10847214514507       -0.84531616455921
C           -4.12147884769351        3.02417217134752       -0.94608075126537
C           -4.67890462128774        1.75506086094984       -0.94398168521731
C           -6.07783549383112        1.60240653727365       -0.85813820751927
C           -6.90833845608250        2.70804378676326       -0.75797820184269
C           -6.34445748264524        0.19268260436032       -0.95630895320056
C           -7.51641608796550       -0.54887081256109       -0.93775306775047
C           -7.46209179877935       -1.92898407439364       -1.06518130549426
C           -8.70908417769934       -2.80254535785846       -1.08344217986558
C          -10.00037926633523       -1.98637334011903       -0.97120286928001
C           -8.75525564898054       -3.58457436688734       -2.40513106663359
C           -8.65912122784879       -3.78353614444936        0.09710753579734
C           -6.20527918983105       -2.53649553856994       -1.18196290555065
C           -5.02478921364225       -1.82100010546749       -1.20219068700011
C           -5.09533495179262       -0.44006485924666       -1.11207847729207
N           -4.08881628420518        0.51087086908685       -1.10444299350798
C           -2.73941943519880        0.26660448886540       -1.35979188701844
C           -2.37206532532037       -0.59315510696858       -2.39648024337227
C           -1.04118257992054       -0.83238938462402       -2.66927310467684
C           -0.04890007313790       -0.20782918451557       -1.91901753430859
N            1.32135293869946       -0.43407631405677       -2.21373374454747
C            1.87962257276004       -1.67862249940246       -1.96290530805285
C            1.10266224610460       -2.70809980372271       -1.41897309753493
C            1.64584437296720       -3.95119246259770       -1.17130332540246
C            2.98046951864207       -4.19952630939286       -1.45148567875680
C            3.76121888831248       -3.18315725537709       -1.96891957402188
C            3.23246803285394       -1.92662321380319       -2.22834060847417
C            4.15088721168533       -0.85454070349060       -2.75121887833157
C            4.97118868228154       -1.33201394317041       -3.93518592386037
C            4.52021677093574       -1.79740415951748       -5.15043992729322
C            5.45650852895949       -2.17278337028774       -6.10558298318509
C            6.81492649385681       -2.07863528522606       -5.84307316341868
C            7.27310343001194       -1.60855298471655       -4.62204170727892
C            6.34456493504876       -1.23414513174428       -3.66453916649508
C            6.51787078435333       -0.71025334734713       -2.31651084928785
C            7.66293482111535       -0.35996140011762       -1.61608157762887
C            7.49715125217947        0.17808915517266       -0.34765664325600
C            6.22064044143959        0.31495197487145        0.21827783273879
C            5.07943167266625       -0.03116698495004       -0.47686992190967
C            5.24633844077494       -0.52678655093839       -1.75271390041539
C            6.30608275313886        0.98271236929065        1.58690764036616
C            7.78902781133031        1.24726209917563        1.69529038855620
C            8.47444393624279        1.86539776178892        2.71974318413488
C            9.85569247089009        1.97635891809897        2.62300985451413
C           10.53301756440132        1.47101283103338        1.52306385378642
C            9.84853287086464        0.84952437378629        0.49029927079856
C            8.47008768196751        0.73940331496701        0.57852137969843
C            5.80615552364900        0.05808693338547        2.66729680410606
C            6.65040739132401       -0.83504134843417        3.30773907901902
C            6.16942350241049       -1.70226414173859        4.27319301689171
C            4.82513135170694       -1.67393936614633        4.61266874837292
C            3.96928380332037       -0.79735150917409        3.98039279638688
C            4.44344450274022        0.06782535781248        2.98857588929374
N            3.56938032854113        0.94483927839021        2.35842346839039
C            2.20550059073571        0.56723825909715        2.30621568144262
C            1.17191328022271        1.34410438863758        2.84346703731110
C           -0.13267958641824        0.92768203513815        2.74270271194003
C           -0.45924252858576       -0.30861073518813        2.14698644496799
C           -1.80862842213849       -0.74782541951606        2.02592343787783
N           -2.80721009412015        0.10537768909595        2.25506561425185
C           -4.04339085512998       -0.32693537431778        2.12359282231029
C           -5.13562877851077        0.60364865424393        2.27659621405722
C           -4.88700390555657        1.96715015187409        2.47822645773240
C           -5.92977592399748        2.85143481993132        2.63852331674042
C           -7.24242215000619        2.40063666307214        2.59648068953620
C           -7.50061712405731        1.05267867079682        2.38965803642864
C           -6.46278261397371        0.16017694094171        2.22988143726469
N           -4.33545629675938       -1.64122485354904        1.88201178047799
C           -3.30212770269413       -2.44131930422875        1.69802668075807
C           -3.56971776863803       -3.90844007934621        1.44726511837031
C           -2.54774260954924       -4.77920714113549        2.18426325791927
C           -2.76488717978031       -4.71635165784303        3.69307696244883
C           -4.18121457174292       -5.15692084998392        4.04918558508094
C           -5.20088120762478       -4.27190820441251        3.33945432941705
C           -4.99432646744714       -4.30931245111147        1.82801215725946
N           -2.04691005902815       -2.05777499518027        1.68015692424309
C            0.59822868426673       -1.11230913033901        1.67274830723996
C            1.89369221343576       -0.67567041079800        1.73386001860374
C            4.05880921085417        2.09129490760334        1.74846891114622
C            3.21518282582224        3.13636653152993        1.35985374989145
C            3.73331955913585        4.30229892185919        0.83401836271117
C            5.10155906717291        4.45441677652839        0.67824037904288
C            5.94039258362715        3.39693434634425        0.98529019774843
C            5.43760918288560        2.21360744381560        1.49856184329038
C            3.41680326836471        0.42310713617662       -3.08389721207649
C            4.12213482026870        1.46555094178371       -3.66857784908905
C            3.50923060800437        2.66388384223311       -3.98119474850827
C            2.15752404269172        2.82107190047128       -3.71867673829038
C            1.43918178938829        1.79648071466309       -3.14000509745141
C            2.05749827657094        0.58866019493525       -2.79452685527821
C           -0.41085958685912        0.65978105015280       -0.89412730409052
C           -1.74228053044724        0.89139663721237       -0.61132867336165
H           -8.93098809006733        4.34368863127247        0.29528975663717
H           -9.05856651683426        4.38134085554248       -1.47206599665557
H           -9.27629904465676        5.85690266490212       -0.53736820438509
H           -5.77846711847710        6.35923584019006        0.50257283918028
H           -7.42480087312950        6.98431452008600        0.57061480757978
H           -7.00317839504950        5.50590086611286        1.44011709379846
H           -7.61506390203920        6.94499729212709       -1.97248210686767
H           -5.94972047300782        6.37516921394175       -2.05997062984312
H           -7.23160929128189        5.46155998084698       -2.85208579874617
H           -4.52782709895829        5.09257721386376       -0.85215603827162
H           -3.05716745580045        3.17504834676673       -1.04393033328040
H           -7.97128663550735        2.54789149374271       -0.70048510389914
H           -8.45203243795127       -0.02944312457515       -0.81928192447208
H          -10.85615631071727       -2.65766271375643       -1.00494268199179
H          -10.09121433130520       -1.28325092759781       -1.79589567043569
H          -10.03829230044037       -1.44197687553169       -0.03076385386808
H           -8.77186543067875       -2.89661374753911       -3.24810221434485
H           -7.89154558104987       -4.23472675435762       -2.51243284999234
H           -9.65146319204136       -4.20013699480662       -2.44288129972291
H           -9.56138878298092       -4.39120903168841        0.11735194747152
H           -8.58887190969841       -3.23890927398055        1.03672922595424
H           -7.80287435218150       -4.44808382291711        0.02487346292367
H           -6.14165847909087       -3.61099556431392       -1.26156421560023
H           -4.07594435218701       -2.33206030499600       -1.27284942989369
H           -3.13750229578755       -1.04931188443142       -3.00544609715374
H           -0.76377738217363       -1.49196501346514       -3.47823042989640
H            0.06708967042030       -2.52455598972568       -1.17998183108289
H            1.02291732425844       -4.72775532608008       -0.75284097901139
H            3.40901281414899       -5.17088473036116       -1.25939964039566
H            4.80654155838418       -3.35800646082908       -2.17734199840773
H            3.46211378834115       -1.87007647619495       -5.35657467746969
H            5.12158754040966       -2.54212006261945       -7.06371971006898
H            7.52493923797885       -2.37544894553124       -6.60136794376743
H            8.33197358741058       -1.53733170172755       -4.42311645126896
H            8.64342469283743       -0.47257917357878       -2.05234367184631
H            4.09112351422917        0.10389846921550       -0.06614170289174
H            7.94812432799037        2.25426847612649        3.57940554515056
H           10.40851994167740        2.45917680033140        3.41547179809863
H           11.60810087110568        1.56465583367325        1.47110367647442
H           10.38057284620031        0.45879726160656       -0.36404531283417
H            7.69666871348243       -0.85485499623852        3.04292183311571
H            6.84028046984409       -2.39344205759373        4.75966004825686
H            4.44126924893440       -2.33530911680453        5.37483428108516
H            2.92488856564616       -0.76929461966874        4.25161609863891
H            1.40708347393349        2.25782056905087        3.37019248866777
H           -0.93320265728168        1.52675306982142        3.15074598131741
H           -3.86231829685265        2.30669144284736        2.51020348832083
H           -5.72168077188251        3.89923130974187        2.80035799261587
H           -8.05902128412256        3.09503663231414        2.72883369092810
H           -8.52189588066015        0.70050141246217        2.35869438197502
H           -6.64700881024357       -0.89087256468438        2.06568450503035
H           -3.43502533788134       -4.05967568849906        0.36710307412833
H           -2.65192672072662       -5.81319650161678        1.84587331614107
H           -1.54217052360889       -4.43223808175009        1.94055632771106
H           -2.03390489806939       -5.35317062240240        4.19702056433113
H           -2.60513549722627       -3.68969387500061        4.03543081660899
H           -4.32842091480017       -5.10159467026069        5.13027995522260
H           -4.32419115463421       -6.19601694234873        3.74213527274654
H           -5.09413531392629       -3.24101605173488        3.68499891056238
H           -6.21457516847777       -4.60186967966291        3.57855665398775
H           -5.69423120516102       -3.62604918385294        1.34538532781849
H           -5.18236108328915       -5.32245133942228        1.46281796794406
H            0.35850865629439       -2.07144678266935        1.24255488420433
H            2.69211658573935       -1.29304476098915        1.34557631386045
H            2.14781027957737        3.03004795281512        1.45975436589914
H            3.06164294649425        5.09690334205229        0.54568838715404
H            5.50939686546614        5.37297352814673        0.28574423985289
H            7.00144596033859        3.47966218261294        0.80310352881916
H            5.17206872243956        1.32837211280197       -3.88024180123070
H            4.07743048099643        3.46262663230311       -4.43180869309982
H            1.65637917568286        3.74354404405094       -3.97058600098595
H            0.38406137896633        1.92560131059693       -2.95772189463589
H            0.35742237081679        1.14150299944848       -0.30942099824687
H           -2.01791851848990        1.53073846850149        0.21193705691889

          :  Hamiltonian                  GFN2-xTB          :
         :: gradient norm              0.000139697084 Eh/a0 ::
         :: HOMO-LUMO gap              0.359668927684 eV    ::
         :: SCC energy              -254.898419884125 Eh    ::
         :: -> dispersion             -0.288958216827 Eh    ::
         :: -> Gsolv                  -0.089996966170 Eh    ::
         :: repulsion energy           4.492534969712 Eh    ::

    * Orbital Energies and Occupations

         #    Occupation            Energy/Eh            Energy/eV
      -------------------------------------------------------------
         1        2.0000           -0.6839495             -18.6112
       ...           ...                  ...                  ...
       223        2.0000           -0.4011180             -10.9150
       224        2.0000           -0.3993042             -10.8656
       225        2.0000           -0.3955358             -10.7631
       226        2.0000           -0.3908741             -10.6362
       227        2.0000           -0.3889140             -10.5829
       228        2.0000           -0.3781910             -10.2911
       229        2.0000           -0.3770028             -10.2588
       230        1.9997           -0.3651730              -9.9369
       231        1.9355           -0.3600925              -9.7986
       232        1.8601           -0.3592768              -9.7764
       233        1.7169           -0.3584340              -9.7535
       234        1.4878           -0.3575052              -9.7282
       235        0.9990           -0.2755229              -7.4974 (HOMO)
       236        0.0009           -0.2623029              -7.1376 (LUMO)
       237        0.0000           -0.2591245              -7.0511
       238        0.0000           -0.2536741              -6.9028
       239                         -0.2517456              -6.8503
       240                         -0.2453389              -6.6760
       241                         -0.2418809              -6.5819
       242                         -0.2392778              -6.5111
       243                         -0.2379072              -6.4738
       244                         -0.2331759              -6.3450
       245                         -0.2319007              -6.3103
       246                         -0.2309448              -6.2843
       ...                                ...                  ...
       462                          0.7399036              20.1338
      -------------------------------------------------------------
                  HL-Gap            0.0132200 Eh            0.3597 eV

     #   Z          covCN         q      C6AA      α(0)
     1   6 C        3.761    -0.108    22.617     6.779
     2   6 C        3.902     0.026    20.088     6.371
     3   6 C        3.761    -0.106    22.568     6.772
     4   6 C        3.761    -0.107    22.588     6.775
     5   6 C        2.972     0.003    27.962     8.674
     6   6 C        2.931    -0.040    28.992     8.830
     7   6 C        2.909    -0.054    29.344     8.882
     8   6 C        3.073     0.048    26.837     8.494
     9   6 C        3.068    -0.018    28.387     8.736
    10   6 C        2.918    -0.043    29.064     8.841
    11   6 C        3.065    -0.018    28.385     8.736
    12   6 C        2.918    -0.043    29.075     8.842
    13   6 C        2.972     0.002    27.967     8.675
    14   6 C        3.902     0.026    20.088     6.371
    15   6 C        3.761    -0.109    22.623     6.780
    16   6 C        3.761    -0.107    22.596     6.776
    17   6 C        3.761    -0.104    22.540     6.768
    18   6 C        2.931    -0.040    28.989     8.830
    19   6 C        2.909    -0.046    29.151     8.853
    20   6 C        3.076     0.054    26.706     8.473
    21   7 N        2.800    -0.055    22.304     7.014
    22   6 C        2.911     0.071    26.418     8.428
    23   6 C        2.923    -0.046    29.147     8.853
    24   6 C        2.920    -0.039    28.980     8.828
    25   6 C        2.926     0.062    26.618     8.461
    26   7 N        2.752    -0.047    22.144     6.989
    27   6 C        2.924     0.061    26.641     8.464
    28   6 C        2.923    -0.050    29.251     8.869
    29   6 C        2.919    -0.029    28.737     8.791
    30   6 C        2.917    -0.037    28.928     8.820
    31   6 C        2.925    -0.034    28.846     8.808
    32   6 C        2.981    -0.004    28.106     8.696
    33   6 C        3.948     0.013    20.284     6.400
    34   6 C        3.055     0.002    27.934     8.668
    35   6 C        2.914    -0.033    28.811     8.802
    36   6 C        2.922    -0.031    28.782     8.798
    37   6 C        2.921    -0.032    28.795     8.800
    38   6 C        2.914    -0.034    28.847     8.807
    39   6 C        3.035     0.002    27.940     8.670
    40   6 C        3.032    -0.001    28.012     8.681
    41   6 C        2.911    -0.038    28.954     8.823
    42   6 C        3.032    -0.000    28.008     8.681
    43   6 C        3.071     0.001    27.933     8.666
    44   6 C        2.910    -0.040    28.986     8.828
    45   6 C        3.070     0.000    27.954     8.669
    46   6 C        3.949     0.015    20.261     6.396
    47   6 C        3.050     0.001    27.948     8.670
    48   6 C        2.914    -0.032    28.795     8.799
    49   6 C        2.922    -0.032    28.793     8.799
    50   6 C        2.921    -0.032    28.797     8.800
    51   6 C        2.914    -0.034    28.841     8.806
    52   6 C        3.036     0.002    27.941     8.670
    53   6 C        2.982    -0.001    28.051     8.688
    54   6 C        2.922    -0.035    28.870     8.811
    55   6 C        2.918    -0.035    28.870     8.811
    56   6 C        2.918    -0.030    28.757     8.794
    57   6 C        2.922    -0.047    29.167     8.857
    58   6 C        2.937     0.060    26.658     8.468
    59   7 N        2.752    -0.041    22.025     6.970
    60   6 C        2.924     0.038    27.151     8.545
    61   6 C        2.913    -0.047    29.159     8.855
    62   6 C        2.920    -0.044    29.085     8.844
    63   6 C        2.978    -0.021    28.533     8.762
    64   6 C        2.949     0.188    23.998     8.035
    65   7 N        1.845    -0.313    28.966     7.976
    66   6 C        2.949     0.210    23.556     7.960
    67   6 C        2.981    -0.013    28.342     8.733
    68   6 C        2.924    -0.037    28.931     8.821
    69   6 C        2.917    -0.033    28.828     8.805
    70   6 C        2.920    -0.037    28.919     8.819
    71   6 C        2.917    -0.032    28.810     8.802
    72   6 C        2.923    -0.035    28.875     8.812
    73   7 N        1.840    -0.351    29.974     8.114
    74   6 C        2.936     0.241    22.979     7.862
    75   6 C        3.863    -0.023    20.941     6.508
    76   6 C        3.808    -0.056    21.577     6.612
    77   6 C        3.805    -0.049    21.447     6.593
    78   6 C        3.805    -0.057    21.593     6.615
    79   6 C        3.805    -0.052    21.503     6.601
    80   6 C        3.807    -0.056    21.582     6.613
    81   7 N        1.842    -0.358    30.173     8.141
    82   6 C        2.921    -0.042    29.040     8.837
    83   6 C        2.918    -0.043    29.065     8.841
    84   6 C        2.923     0.060    26.650     8.466
    85   6 C        2.921    -0.053    29.326     8.881
    86   6 C        2.919    -0.031    28.772     8.796
    87   6 C        2.918    -0.036    28.890     8.814
    88   6 C        2.922    -0.035    28.879     8.813
    89   6 C        2.990    -0.002    28.074     8.692
    90   6 C        2.985    -0.003    28.089     8.694
    91   6 C        2.925    -0.034    28.849     8.808
    92   6 C        2.917    -0.037    28.916     8.818
    93   6 C        2.919    -0.030    28.745     8.792
    94   6 C        2.923    -0.054    29.334     8.882
    95   6 C        2.926     0.059    26.675     8.470
    96   6 C        2.921    -0.035    28.860     8.810
    97   6 C        2.921    -0.039    28.964     8.826
    98   1 H        0.925     0.036     2.497     2.471
    99   1 H        0.925     0.037     2.491     2.468
   100   1 H        0.925     0.040     2.448     2.447
   101   1 H        0.925     0.036     2.505     2.475
   102   1 H        0.925     0.041     2.439     2.442
   103   1 H        0.925     0.035     2.522     2.483
   104   1 H        0.925     0.042     2.425     2.435
   105   1 H        0.925     0.038     2.481     2.463
   106   1 H        0.925     0.034     2.536     2.490
   107   1 H        0.926     0.038     2.473     2.459
   108   1 H        0.926     0.028     2.620     2.531
   109   1 H        0.926     0.045     2.389     2.417
   110   1 H        0.926     0.045     2.378     2.411
   111   1 H        0.925     0.041     2.441     2.443
   112   1 H        0.925     0.038     2.474     2.459
   113   1 H        0.925     0.036     2.500     2.472
   114   1 H        0.925     0.035     2.521     2.483
   115   1 H        0.925     0.037     2.493     2.469
   116   1 H        0.925     0.042     2.419     2.432
   117   1 H        0.925     0.042     2.424     2.435
   118   1 H        0.925     0.030     2.583     2.513
   119   1 H        0.925     0.036     2.501     2.473
   120   1 H        0.926     0.034     2.529     2.487
   121   1 H        0.926     0.013     2.844     2.637
   122   1 H        0.926     0.051     2.304     2.374
   123   1 H        0.926     0.055     2.263     2.353
   124   1 H        0.926     0.031     2.566     2.505
   125   1 H        0.926     0.037     2.494     2.470
   126   1 H        0.926     0.040     2.450     2.448
   127   1 H        0.926     0.038     2.469     2.457
   128   1 H        0.926     0.028     2.615     2.529
   129   1 H        0.926     0.035     2.512     2.479
   130   1 H        0.926     0.036     2.502     2.474
   131   1 H        0.926     0.038     2.481     2.463
   132   1 H        0.926     0.043     2.412     2.429
   133   1 H        0.926     0.023     2.689     2.564
   134   1 H        0.926     0.031     2.567     2.506
   135   1 H        0.926     0.035     2.515     2.480
   136   1 H        0.926     0.035     2.512     2.479
   137   1 H        0.926     0.037     2.492     2.468
   138   1 H        0.926     0.042     2.424     2.435
   139   1 H        0.926     0.042     2.423     2.434
   140   1 H        0.926     0.040     2.445     2.445
   141   1 H        0.926     0.036     2.501     2.473
   142   1 H        0.926     0.037     2.489     2.467
   143   1 H        0.926     0.029     2.601     2.522
   144   1 H        0.926     0.025     2.652     2.547
   145   1 H        0.926     0.029     2.595     2.519
   146   1 H        0.926     0.030     2.593     2.518
   147   1 H        0.926     0.029     2.600     2.522
   148   1 H        0.926     0.030     2.585     2.514
   149   1 H        0.923     0.027     2.627     2.535
   150   1 H        0.924     0.036     2.498     2.472
   151   1 H        0.924     0.038     2.474     2.460
   152   1 H        0.924     0.030     2.582     2.513
   153   1 H        0.924     0.015     2.818     2.625
   154   1 H        0.924     0.028     2.615     2.529
   155   1 H        0.924     0.038     2.480     2.463
   156   1 H        0.924     0.025     2.653     2.547
   157   1 H        0.924     0.031     2.574     2.509
   158   1 H        0.924     0.042     2.421     2.433
   159   1 H        0.924     0.033     2.548     2.496
   160   1 H        0.926     0.033     2.547     2.496
   161   1 H        0.925     0.025     2.652     2.547
   162   1 H        0.926     0.042     2.425     2.435
   163   1 H        0.926     0.041     2.441     2.443
   164   1 H        0.926     0.041     2.439     2.442
   165   1 H        0.926     0.040     2.450     2.448
   166   1 H        0.926     0.038     2.473     2.459
   167   1 H        0.926     0.041     2.434     2.439
   168   1 H        0.926     0.042     2.425     2.435
   169   1 H        0.926     0.034     2.524     2.484
   170   1 H        0.926     0.046     2.365     2.405
   171   1 H        0.926     0.050     2.324     2.384

molecular dipole:
                 x           y           z       tot (Debye)
 q only:        2.783       0.749      -2.191
   full:        2.785       0.602      -2.052       8.926

 projected vibrational frequencies (cm⁻¹)
eigval :       -0.00    -0.00    -0.00     0.00     0.00     0.00
eigval :        4.33     6.32    11.50    13.66    17.21    19.55
eigval :       21.68    25.81    29.04    34.82    37.20    39.39
eigval :       41.42    44.12    46.35    50.39    54.16    54.62
eigval :       58.53    60.01    61.95    64.98    67.31    70.56
eigval :       73.29    74.90    76.95    87.92    93.01    99.47
eigval :      100.78   103.19   112.50   113.94   117.43   119.93
eigval :      126.74   129.59   134.65   145.71   149.56   160.21
eigval :      165.84   171.30   174.58   175.09   178.21   183.69
eigval :      184.69   195.92   201.47   204.09   204.68   211.94
eigval :      221.54   223.71   226.06   231.39   233.58   241.48
eigval :      246.06   250.68   251.71   253.47   261.97   268.33
eigval :      271.59   277.14   279.25   284.73   293.60   304.70
eigval :      313.55   316.26   317.59   318.62   327.34   335.66
eigval :      342.61   349.16   350.82   359.03   360.95   365.34
eigval :      367.47   370.96   376.17   380.27   383.48   388.75
eigval :      393.88   395.06   398.37   400.06   402.29   406.34
eigval :      408.07   410.63   413.05   416.66   424.11   428.24
eigval :      433.34   435.50   437.04   441.37   443.27   447.87
eigval :      452.63   456.97   460.36   465.02   465.60   470.17
eigval :      470.68   475.33   480.63   485.74   489.20   501.06
eigval :      504.00   507.04   514.57   515.26   517.41   521.73
eigval :      526.79   541.92   559.31   559.86   568.66   570.05
eigval :      576.92   579.06   585.02   588.03   589.31   592.33
eigval :      594.06   597.62   599.82   604.50   608.57   610.81
eigval :      612.67   617.30   631.17   633.42   641.78   642.60
eigval :      645.59   650.75   659.43   664.30   671.53   674.70
eigval :      680.97   682.72   685.96   689.10   695.20   697.90
eigval :      700.05   707.45   709.04   712.65   720.56   725.16
eigval :      727.12   730.83   731.28   746.18   752.90   772.22
eigval :      773.40   774.52   776.46   778.77   779.66   802.51
eigval :      807.38   815.71   818.36   819.79   822.62   830.36
eigval :      831.14   832.33   846.20   849.18   863.38   863.75
eigval :      865.92   869.05   869.55   871.75   872.31   873.74
eigval :      873.84   874.73   877.04   879.16   880.30   881.01
eigval :      882.62   893.30   897.72   898.18   899.72   906.78
eigval :      908.10   909.12   910.17   911.00   911.63   912.46
eigval :      913.26   914.40   915.79   917.13   918.00   919.10
eigval :      919.72   922.16   923.01   923.92   924.97   926.52
eigval :      926.92   928.14   930.39   930.88   932.54   936.24
eigval :      939.30   939.90   941.96   945.90   954.72   957.18
eigval :      957.92   958.03   960.26   961.64   962.43   963.34
eigval :      969.69   982.51   993.28   997.86  1005.18  1005.88
eigval :     1019.49  1029.49  1033.29  1033.98  1034.83  1040.33
eigval :     1060.63  1073.17  1073.29  1075.39  1079.40  1080.94
eigval :     1085.73  1096.29  1098.50  1101.38  1102.52  1105.21
eigval :     1107.24  1108.04  1111.46  1113.35  1118.31  1120.71
eigval :     1124.56  1125.65  1126.90  1129.21  1132.01  1133.15
eigval :     1138.93  1139.88  1142.45  1144.87  1171.80  1173.31
eigval :     1174.88  1176.13  1177.60  1178.69  1179.48  1180.56
eigval :     1180.76  1181.26  1182.72  1183.81  1184.96  1194.91
eigval :     1195.69  1200.92  1203.79  1210.86  1217.52  1221.17
eigval :     1222.97  1223.37  1224.99  1225.30  1229.59  1230.73
eigval :     1231.85  1232.83  1236.29  1241.93  1246.84  1247.91
eigval :     1251.51  1253.41  1254.17  1256.70  1257.18  1260.11
eigval :     1262.87  1265.17  1267.42  1271.57  1272.81  1280.37
eigval :     1282.17  1291.99  1296.08  1297.26  1298.17  1299.20
eigval :     1299.54  1307.37  1308.55  1309.04  1319.34  1321.30
eigval :     1325.87  1328.14  1329.29  1331.21  1332.15  1332.30
eigval :     1339.56  1344.14  1346.75  1347.67  1350.64  1351.94
eigval :     1352.41  1354.81  1360.49  1364.25  1374.52  1383.46
eigval :     1396.46  1397.85  1398.64  1400.70  1401.29  1404.71
eigval :     1414.40  1415.96  1416.87  1420.71  1422.99  1423.75
eigval :     1424.78  1426.26  1427.46  1432.32  1433.56  1438.99
eigval :     1439.34  1443.06  1447.74  1454.48  1462.46  1465.11
eigval :     1466.47  1469.29  1471.39  1473.67  1474.56  1478.37
eigval :     1479.78  1480.90  1481.07  1484.46  1486.83  1487.30
eigval :     1487.64  1488.29  1490.32  1492.40  1493.05  1498.55
eigval :     1498.76  1501.09  1501.29  1502.07  1508.82  1509.41
eigval :     1516.12  1517.52  1547.70  1554.21  1555.43  1561.54
eigval :     1565.56  1568.03  1568.86  1572.66  1573.66  1574.78
eigval :     1578.95  1580.94  1583.14  1586.20  1588.94  1590.60
eigval :     1592.57  1593.28  1594.30  1594.64  1601.07  1602.30
eigval :     1607.69  2877.64  2948.06  2954.88  2958.60  2962.54
eigval :     2966.21  2969.85  2977.11  2980.99  2987.72  2995.97
eigval :     3019.83  3020.67  3021.86  3022.09  3025.33  3025.94
eigval :     3026.46  3027.39  3028.77  3032.31  3033.24  3036.28
eigval :     3037.93  3039.58  3045.65  3045.87  3048.64  3049.55
eigval :     3065.80  3066.46  3069.48  3071.78  3072.59  3072.68
eigval :     3073.00  3075.66  3076.79  3079.76  3080.39  3080.65
eigval :     3082.44  3083.37  3083.48  3084.09  3084.40  3085.05
eigval :     3086.35  3086.66  3087.03  3087.93  3088.47  3089.46
eigval :     3090.59  3091.41  3092.13  3092.42  3092.87  3093.31
eigval :     3096.56  3097.53  3098.80  3099.06  3100.25  3100.47
eigval :     3101.95  3103.02  3105.95  3106.13  3106.98  3112.76
eigval :     3119.34  3121.88  3124.82

   temp. (K)  partition function   enthalpy   heat capacity  entropy
                                   cal/mol     cal/K/mol   cal/K/mol   J/K/mol
 298.15  VIB  0.131E+39            49086.120    308.867    306.522
         ROT  0.430E+09              888.752      2.981     42.484
         INT  0.563E+47            49974.873    311.848    349.007
         TR   0.428E+29             1481.254      4.968     47.229
         TOT                       51456.1265   316.8159   396.2357  1657.8503

       T/K    H(0)-H(T)+PV         H(T)/Eh          T*S/Eh         G(T)/Eh
   ------------------------------------------------------------------------
    298.15    0.820006E-01    0.144866E+01    0.188264E+00    0.126039E+01
   ------------------------------------------------------------------------

         :::::::::::::::::::::::::::::::::::::::::::::::::::::
         ::                  THERMODYNAMIC                  ::
         :::::::::::::::::::::::::::::::::::::::::::::::::::::
         :: total free energy        -249.145490032144 Eh   ::
         ::.................................................::
         :: total energy             -250.405884940169 Eh   ::
         :: zero point energy           1.366658736587 Eh   ::
         :: G(RRHO) w/o ZPVE           -0.106263828562 Eh   ::
         :: G(RRHO) contrib.            1.260394908025 Eh   ::
         :::::::::::::::::::::::::::::::::::::::::::::::::::::

           -------------------------------------------------
          | TOTAL ENERGY             -250.405884940169 Eh   |
          | TOTAL ENTHALPY           -248.957225646373 Eh   |
          | TOTAL FREE ENERGY        -249.145490032144 Eh   |
          | GRADIENT NORM               0.000143604190 Eh/α |
          | HOMO-LUMO GAP               0.359734584123 eV   |
           -------------------------------------------------

 * finished run on 2025/09/09 at 02:40:53.466
