   * xtb version 6.7.1 (edcfbbe) compiled by 'albert@albert-system' on 2024-07-22

   ID    Z sym.   atoms
    1    8 O      1, 9
    2    6 C      2-8, 10-15, 17-30, 32-47
    3    7 N      16, 31
    4    1 H      48-73

          program call               : xtb data2507/toluene/Xp-mCP/Xp-mCP_toluene_S0_crest.xyz --gfn 2 --gbsa toluene --ohess vtight --parallel 40 --molden --ceasefiles --namespace data2507/toluene/Xp-mCP/Xp-mCP_toluene_S0_finalOpt
      * Solvation model:               GBSA
        Solvent                        toluene
        Solvent mass                       9.2140E+01 g/mol
          :  Hamiltonian                  GFN2-xTB          :
 * total energy  :  -119.4608439 Eh     change       -0.5673940E-08 Eh
 * total energy  :  -119.4609255 Eh     change       -0.8159869E-04 Eh
 * total energy  :  -119.4609491 Eh     change       -0.2364977E-04 Eh
 * total energy  :  -119.4609529 Eh     change       -0.3762160E-05 Eh
 * total energy  :  -119.4609560 Eh     change       -0.3156546E-05 Eh
 * total energy  :  -119.4609589 Eh     change       -0.2910875E-05 Eh
 * total energy  :  -119.4609613 Eh     change       -0.2399594E-05 Eh
 * total energy  :  -119.4609638 Eh     change       -0.2419913E-05 Eh
 * total energy  :  -119.4609662 Eh     change       -0.2438453E-05 Eh
 * total energy  :  -119.4609684 Eh     change       -0.2170998E-05 Eh
 * total energy  :  -119.4609764 Eh     change       -0.2211266E-05 Eh
 * total energy  :  -119.4609783 Eh     change       -0.1889862E-05 Eh
 * total energy  :  -119.4609797 Eh     change       -0.1435179E-05 Eh
 * total energy  :  -119.4609809 Eh     change       -0.1189039E-05 Eh
 * total energy  :  -119.4609820 Eh     change       -0.1095179E-05 Eh
 * total energy  :  -119.4609830 Eh     change       -0.9811043E-06 Eh
 * total energy  :  -119.4609837 Eh     change       -0.7821735E-06 Eh
 * total energy  :  -119.4609844 Eh     change       -0.6211178E-06 Eh
 * total energy  :  -119.4609844 Eh     change       -0.3912817E-08 Eh
   *** GEOMETRY OPTIMIZATION CONVERGED AFTER 22 ITERATIONS ***

 final structure:
================
73
 xtb: 6.7.1 (edcfbbe)
O            6.35696371824725        2.84280481724876       -1.32028637271367
C            5.96966241683973        1.83744805062756       -0.73274865962128
C            6.88167851616694        0.89326949168496       -0.07610251772017
C            8.26396576034125        1.11125393365495       -0.08663437918232
C            9.12077018769782        0.22920000912796        0.52943750079701
C            8.61109644519743       -0.89666863889746        1.17270840391332
C            7.25448352517080       -1.13486488608410        1.19724755980743
C            6.38112010051885       -0.24183935675463        0.57390476326399
O            5.05916649726689       -0.53180802404601        0.63528544984760
C            4.17005840336305        0.30839518078176        0.05529228786498
C            2.82311402925291       -0.03179507416269        0.16082090339792
C            1.84510004017673        0.77908445554032       -0.39337711390286
C            0.42377704899945        0.42211716512999       -0.26670508022662
C           -0.52955237575683        1.40923711164151       -0.03671116501853
C           -1.87431999257104        1.07485276524522        0.08458930413293
N           -2.82470053051127        2.07750909546660        0.31531387259488
C           -3.78624042642815        2.07589287152325        1.30847816317075
C           -4.02870892421290        1.14122989282521        2.30516702823438
C           -5.05156063923665        1.39977954044131        3.19810826539788
C           -5.81445597695259        2.56265608770929        3.11424383544056
C           -5.56104945796126        3.50868872144507        2.14076552640523
C           -4.53816172444254        3.27099281539496        1.23147757367409
C           -3.99986247653666        4.02354825836198        0.13204232555565
C           -4.32217677838541        5.24922369612242       -0.43697763054310
C           -3.59953700999921        5.68185845833865       -1.53136859088656
C           -2.57862226740786        4.90112052545276       -2.06992342729998
C           -2.24026433986174        3.67854735750569       -1.52131514032933
C           -2.94347360363982        3.25196282907611       -0.40363822755990
C           -2.27364430466609       -0.25375768187077       -0.01126301194736
C           -1.32373815165228       -1.24448893434396       -0.23596759970803
N           -1.71820241331482       -2.58505009427264       -0.33109448557471
C           -1.14125996845424       -3.64074246929060        0.34964853166718
C           -0.12607577713642       -3.63346646656702        1.29573040188210
C            0.25061139140187       -4.84251855936815        1.84926671778466
C           -0.37094074603658       -6.03473977289770        1.48316944027413
C           -1.40114706551776       -6.04467742550946        0.56363149411447
C           -1.79616619365954       -4.84148574728214       -0.00749346487624
C           -2.81552621418488       -4.48420770483457       -0.95510887370305
C           -3.75655382142231       -5.21798947045362       -1.66619751719827
C           -4.59702968727502       -4.55092649002053       -2.53532203510729
C           -4.49734288957347       -3.17228394566987       -2.71073363799426
C           -3.56823764984336       -2.42117769929531       -2.01563337949048
C           -2.73632121771780       -3.08238173175134       -1.12311746246330
C            0.01858052654665       -0.90522609818856       -0.36899006074885
C            2.23041387693522        1.94460215190349       -1.07116259055830
C            3.55700636283123        2.27876210367447       -1.18280631216097
C            4.55427573589247        1.47294699175808       -0.62115841360419
H            8.62566894043462        1.99348294758927       -0.59406316144673
H           10.18471692406962        0.40771850295340        0.51549191234368
H            9.28266760532175       -1.58927797152044        1.65664671092696
H            6.84118438616213       -2.00068171688107        1.69025204976137
H            2.56660422804351       -0.92798750534963        0.70300638293408
H           -0.22731770453168        2.43739787073039        0.08600526782683
H           -3.43365497574764        0.24476366579045        2.39252638530345
H           -5.26203690185775        0.68508733540799        3.98043555087689
H           -6.60775909609605        2.72661046860922        3.82881616513469
H           -6.14119478997170        4.41774143478884        2.08626143372768
H           -5.12511379627979        5.84644331015322       -0.03138948664244
H           -3.83222701085449        6.63362317586799       -1.98615240549608
H           -2.04300487029818        5.25747053112964       -2.93786445884445
H           -1.46314346812035        3.07065564531315       -1.95923441259294
H           -3.31557481014593       -0.51464403091732        0.08910524576527
H            0.34594041105095       -2.71266527514333        1.60307531853041
H            1.04194054355982       -4.86330685363862        2.58449987782194
H           -0.04639460202830       -6.96027227687010        1.93577671854563
H           -1.89519125063180       -6.96623434759087        0.29423435981196
H           -3.82305892400791       -6.28862891475940       -1.54246274965499
H           -5.33762014195830       -5.10251866194284       -3.09566743530895
H           -5.15888120425932       -2.67921168088748       -3.40819411173395
H           -3.48951633667246       -1.35639168730495       -2.17494646109646
H            0.74013771043213       -1.67621383128378       -0.58857813262792
H            1.47949574493142        2.57320473793116       -1.52301947169971
H            3.87169093306956        3.17036199200032       -1.70482405784753

          :  Hamiltonian                  GFN2-xTB          :
         :: gradient norm              0.000059460828 Eh/a0 ::
         :: HOMO-LUMO gap              1.878168044716 eV    ::
         :: SCC energy              -121.609491410833 Eh    ::
         :: -> dispersion             -0.101745654269 Eh    ::
         :: -> Gsolv                  -0.052596335981 Eh    ::
         :: repulsion energy           2.148507050731 Eh    ::

    * Orbital Energies and Occupations

         #    Occupation            Energy/Eh            Energy/eV
      -------------------------------------------------------------
         1        2.0000           -0.7563948             -20.5826
       ...           ...                  ...                  ...
        98        2.0000           -0.4207968             -11.4505
        99        2.0000           -0.4203185             -11.4374
       100        2.0000           -0.4197378             -11.4216
       101        2.0000           -0.4169852             -11.3467
       102        2.0000           -0.4086999             -11.1213
       103        2.0000           -0.4070661             -11.0768
       104        2.0000           -0.4066838             -11.0664
       105        2.0000           -0.3991284             -10.8608
       106        2.0000           -0.3963580             -10.7855
       107        2.0000           -0.3805834             -10.3562
       108        2.0000           -0.3803346             -10.3494
       109        2.0000           -0.3662557              -9.9663
       110        2.0000           -0.3656565              -9.9500 (HOMO)
       111                         -0.2966351              -8.0719 (LUMO)
       112                         -0.2623823              -7.1398
       113                         -0.2506402              -6.8203
       114                         -0.2490873              -6.7780
       115                         -0.2466164              -6.7108
       116                         -0.2412475              -6.5647
       117                         -0.2306414              -6.2761
       118                         -0.2259558              -6.1486
       119                         -0.2239341              -6.0936
       120                         -0.2236962              -6.0871
       121                         -0.1983553              -5.3975
       ...                                ...                  ...
       214                          0.7426876              20.2096
      -------------------------------------------------------------
                  HL-Gap            0.0690214 Eh            1.8782 eV

     #   Z          covCN         q      C6AA      α(0)
     1   8 O        0.857    -0.454    22.790     6.401
     2   6 C        2.831     0.223    23.314     7.912
     3   6 C        2.974    -0.043    29.060     8.842
     4   6 C        2.923    -0.018    28.466     8.749
     5   6 C        2.916    -0.032    28.807     8.801
     6   6 C        2.921    -0.019    28.476     8.751
     7   6 C        2.915    -0.050    29.232     8.866
     8   6 C        2.886     0.142    24.900     8.181
     9   8 O        1.711    -0.212    17.519     5.651
    10   6 C        2.884     0.143    24.896     8.180
    11   6 C        2.922    -0.056    29.392     8.890
    12   6 C        2.977     0.025    27.432     8.591
    13   6 C        2.976     0.018    27.613     8.620
    14   6 C        2.927    -0.052    29.285     8.875
    15   6 C        2.910     0.068    26.481     8.438
    16   7 N        2.803    -0.043    22.062     6.976
    17   6 C        3.072     0.046    26.885     8.502
    18   6 C        2.910    -0.052    29.285     8.874
    19   6 C        2.924    -0.034    28.855     8.809
    20   6 C        2.920    -0.042    29.038     8.837
    21   6 C        2.912    -0.034    28.852     8.808
    22   6 C        3.067    -0.017    28.375     8.735
    23   6 C        3.066    -0.017    28.376     8.735
    24   6 C        2.912    -0.034    28.849     8.807
    25   6 C        2.920    -0.042    29.038     8.837
    26   6 C        2.924    -0.034    28.857     8.809
    27   6 C        2.910    -0.052    29.290     8.874
    28   6 C        3.074     0.046    26.889     8.502
    29   6 C        2.925    -0.058    29.450     8.900
    30   6 C        2.910     0.068    26.479     8.438
    31   7 N        2.802    -0.042    22.058     6.975
    32   6 C        3.074     0.046    26.890     8.502
    33   6 C        2.910    -0.052    29.292     8.875
    34   6 C        2.924    -0.034    28.859     8.810
    35   6 C        2.920    -0.042    29.040     8.837
    36   6 C        2.912    -0.034    28.849     8.807
    37   6 C        3.066    -0.017    28.373     8.735
    38   6 C        3.067    -0.017    28.375     8.735
    39   6 C        2.912    -0.034    28.852     8.808
    40   6 C        2.920    -0.042    29.037     8.837
    41   6 C        2.924    -0.034    28.853     8.809
    42   6 C        2.910    -0.052    29.283     8.873
    43   6 C        3.072     0.046    26.885     8.502
    44   6 C        2.927    -0.052    29.299     8.877
    45   6 C        2.920    -0.038    28.941     8.822
    46   6 C        2.921    -0.019    28.480     8.751
    47   6 C        2.974    -0.045    29.101     8.849
    48   1 H        0.926     0.058     2.217     2.328
    49   1 H        0.926     0.056     2.248     2.345
    50   1 H        0.926     0.062     2.174     2.306
    51   1 H        0.926     0.065     2.136     2.286
    52   1 H        0.926     0.067     2.123     2.278
    53   1 H        0.926     0.055     2.262     2.352
    54   1 H        0.926     0.031     2.578     2.511
    55   1 H        0.926     0.031     2.573     2.508
    56   1 H        0.926     0.029     2.604     2.523
    57   1 H        0.926     0.031     2.566     2.505
    58   1 H        0.926     0.031     2.569     2.506
    59   1 H        0.926     0.029     2.605     2.524
    60   1 H        0.926     0.031     2.569     2.506
    61   1 H        0.926     0.031     2.575     2.509
    62   1 H        0.926     0.055     2.259     2.350
    63   1 H        0.926     0.031     2.572     2.508
    64   1 H        0.926     0.032     2.564     2.504
    65   1 H        0.926     0.029     2.603     2.523
    66   1 H        0.926     0.031     2.570     2.507
    67   1 H        0.926     0.032     2.565     2.504
    68   1 H        0.926     0.029     2.604     2.523
    69   1 H        0.926     0.031     2.575     2.509
    70   1 H        0.926     0.030     2.579     2.511
    71   1 H        0.926     0.055     2.261     2.351
    72   1 H        0.926     0.058     2.225     2.333
    73   1 H        0.926     0.060     2.195     2.317

molecular dipole:
                 x           y           z       tot (Debye)
 q only:       -0.164      -1.276       0.775
   full:       -0.127      -1.294       0.787       3.862

 projected vibrational frequencies (cm⁻¹)
eigval :       -0.00    -0.00    -0.00     0.00     0.00     0.00
eigval :       10.85    17.51    20.94    22.04    23.39    25.26
eigval :       44.73    62.72    70.56    73.19    98.16   104.32
eigval :      115.27   124.38   134.77   140.65   144.98   150.99
eigval :      159.92   205.56   209.94   237.67   241.48   250.28
eigval :      258.94   269.13   270.77   271.56   281.39   305.74
eigval :      311.79   324.44   359.63   373.98   391.81   395.09
eigval :      397.88   404.46   422.02   424.75   427.45   436.20
eigval :      436.92   455.21   470.07   498.83   510.83   514.57
eigval :      517.39   520.21   527.62   539.93   540.64   542.24
eigval :      543.50   558.17   585.63   587.58   605.57   608.49
eigval :      620.62   624.17   639.34   642.42   651.37   668.52
eigval :      672.04   674.00   677.02   687.51   705.56   707.86
eigval :      709.38   740.28   749.20   753.58   767.25   768.09
eigval :      770.15   775.51   778.86   780.06   787.13   829.50
eigval :      837.30   847.79   866.14   868.77   873.91   875.47
eigval :      877.85   879.86   891.46   892.09   897.04   898.12
eigval :      899.02   903.40   903.94   906.19   909.66   920.93
eigval :      921.46   921.54   921.70   924.01   925.87   926.57
eigval :      928.22   982.09   999.62  1011.13  1012.87  1032.75
eigval :     1068.22  1070.30  1071.98  1073.44  1075.39  1093.79
eigval :     1112.25  1119.69  1123.07  1132.54  1149.71  1151.83
eigval :     1163.50  1166.58  1169.58  1176.51  1178.47  1179.99
eigval :     1180.68  1191.73  1202.21  1215.66  1227.86  1230.16
eigval :     1233.06  1234.59  1236.34  1240.03  1245.48  1275.04
eigval :     1280.49  1294.84  1299.49  1300.84  1303.10  1317.05
eigval :     1330.84  1344.01  1352.42  1355.20  1355.78  1359.58
eigval :     1360.72  1386.77  1400.62  1417.48  1422.36  1426.56
eigval :     1428.07  1430.45  1444.86  1452.31  1457.13  1471.65
eigval :     1474.20  1479.63  1486.01  1486.25  1545.33  1564.29
eigval :     1567.89  1568.39  1573.40  1575.06  1585.79  1587.34
eigval :     1588.03  1593.40  1597.32  1597.68  1612.13  1612.73
eigval :     1637.13  3071.41  3071.65  3071.87  3072.06  3077.28
eigval :     3077.59  3077.99  3078.22  3085.00  3085.51  3085.96
eigval :     3086.63  3088.06  3090.08  3091.43  3091.79  3091.89
eigval :     3093.77  3094.17  3101.72  3103.18  3105.84  3106.58
eigval :     3107.79  3108.21  3109.99

   temp. (K)  partition function   enthalpy   heat capacity  entropy
                                   cal/mol     cal/K/mol   cal/K/mol   J/K/mol
 298.15  VIB  0.304E+16            20455.060    132.967    124.954
         ROT  0.917E+08              888.752      2.981     39.415
         INT  0.279E+24            21343.812    135.948    164.370
         TR   0.143E+29             1481.254      4.968     45.052
         TOT                       22825.0660   140.9159   209.4214   876.2191

       T/K    H(0)-H(T)+PV         H(T)/Eh          T*S/Eh         G(T)/Eh
   ------------------------------------------------------------------------
    298.15    0.363741E-01    0.585996E+00    0.995029E-01    0.486493E+00
   ------------------------------------------------------------------------

         :::::::::::::::::::::::::::::::::::::::::::::::::::::
         ::                  THERMODYNAMIC                  ::
         :::::::::::::::::::::::::::::::::::::::::::::::::::::
         :: total free energy        -118.974491150209 Eh   ::
         ::.................................................::
         :: total energy             -119.460984358006 Eh   ::
         :: zero point energy           0.549622013150 Eh   ::
         :: G(RRHO) w/o ZPVE           -0.063128805353 Eh   ::
         :: G(RRHO) contrib.            0.486493207797 Eh   ::
         :::::::::::::::::::::::::::::::::::::::::::::::::::::

           -------------------------------------------------
          | TOTAL ENERGY             -119.460984358006 Eh   |
          | TOTAL ENTHALPY           -118.874988286912 Eh   |
          | TOTAL FREE ENERGY        -118.974491150209 Eh   |
          | GRADIENT NORM               0.000059411877 Eh/α |
          | HOMO-LUMO GAP               1.878167640271 eV   |
           -------------------------------------------------

 * finished run on 2025/09/10 at 14:55:18.478
