   * xtb version 6.7.1 (edcfbbe) compiled by 'albert@albert-system' on 2024-07-22

   ID    Z sym.   atoms
    1    8 O      1, 9
    2    6 C      2-8, 10-15, 17-30, 32-47
    3    7 N      16, 31
    4    1 H      48-73

          program call               : xtb data2507/toluene/Xp-mCP/Xp-mCP.xyz --gfn 2 --gbsa toluene --ohess vtight --parallel 40 --molden --ceasefiles --namespace data2507/toluene/Xp-mCP/Xp-mCP_toluene_S0_preOpt
      * Solvation model:               GBSA
        Solvent                        toluene
        Solvent mass                       9.2140E+01 g/mol
          :  Hamiltonian                  GFN2-xTB          :
 * total energy  :  -119.4426327 Eh     change       -0.4533774E-08 Eh
 * total energy  :  -119.4559949 Eh     change       -0.1336224E-01 Eh
 * total energy  :  -119.4589282 Eh     change       -0.2933236E-02 Eh
 * total energy  :  -119.4595064 Eh     change       -0.5782001E-03 Eh
 * total energy  :  -119.4598893 Eh     change       -0.3829881E-03 Eh
 * total energy  :  -119.4600042 Eh     change       -0.1148947E-03 Eh
 * total energy  :  -119.4600930 Eh     change       -0.8871807E-04 Eh
 * total energy  :  -119.4601535 Eh     change       -0.6053586E-04 Eh
 * total energy  :  -119.4602041 Eh     change       -0.5057835E-04 Eh
 * total energy  :  -119.4602485 Eh     change       -0.4441362E-04 Eh
 * total energy  :  -119.4607231 Eh     change       -0.6675641E-06 Eh
 * total energy  :  -119.4607238 Eh     change       -0.6737029E-06 Eh
 * total energy  :  -119.4607244 Eh     change       -0.6489869E-06 Eh
 * total energy  :  -119.4607250 Eh     change       -0.6116518E-06 Eh
 * total energy  :  -119.4607256 Eh     change       -0.6009384E-06 Eh
 * total energy  :  -119.4607263 Eh     change       -0.6410343E-06 Eh
 * total energy  :  -119.4607270 Eh     change       -0.7268607E-06 Eh
 * total energy  :  -119.4607278 Eh     change       -0.8272802E-06 Eh
 * total energy  :  -119.4607278 Eh     change       -0.3541942E-08 Eh
   *** GEOMETRY OPTIMIZATION CONVERGED AFTER 94 ITERATIONS ***

 final structure:
================
73
 xtb: 6.7.1 (edcfbbe)
O            6.35090911375108       -2.63358357667451       -2.45887495666590
C            6.03578116338349       -1.73343685494249       -1.68661887035310
C            7.01972656507845       -0.89414076258891       -0.99238110044088
C            8.39119911491309       -1.09175166631265       -1.18829730445199
C            9.31551935744845       -0.30828611369031       -0.53753015142264
C            8.88595034497007        0.69530533836004        0.32818604327021
C            7.54167604028462        0.91117586620924        0.53813951099897
C            6.60011037246734        0.11823705343564       -0.12033332788862
O            5.29445523064887        0.38043049681988        0.12865240946735
C            4.34209309066798       -0.36092448659235       -0.48471895865708
C            3.01631562927046       -0.04843362919415       -0.19126001880786
C            1.97898625331952       -0.76380540887579       -0.76836947642278
C            0.58171384032340       -0.43585323337592       -0.44513636392000
C            0.17955020347425        0.89019213588396       -0.32042069724421
C           -1.14119512373877        1.19916606492006       -0.01229067372170
N           -1.52625784389592        2.53928324657841        0.13054081712047
C           -2.60071351075383        3.14970617010907       -0.48703262962399
C           -3.49987650125023        2.63444723157001       -1.40888987500502
C           -4.48006067083276        3.47589462867171       -1.89915796228353
C           -4.56354727789041        4.80636497507718       -1.49365515187704
C           -3.65494684077473        5.33340169043982       -0.59711015653924
C           -2.66130421810440        4.50539471636578       -0.09030206326782
C           -1.56612523184524        4.71463771363574        0.81588161252685
C           -1.11839119412659        5.81512532578359        1.53598832247233
C           -0.01531266662476        5.66746105626278        2.35341015708090
C            0.62938880118662        4.43769344483631        2.47070071787167
C            0.20194097188185        3.32892703133572        1.76508461666155
C           -0.88992732586521        3.47747921087493        0.92163837535040
C           -2.06995849947876        0.18143849649796        0.17797181760131
C           -1.67371955890569       -1.14580012584872        0.04761197353458
N           -2.59510656464347       -2.18050859967058        0.25796216743958
C           -2.40699137104876       -3.26934226375080        1.09017488994940
C           -1.33476182940109       -3.58012946462475        1.91487070565960
C           -1.41664904906054       -4.73127485569194        2.67549267938009
C           -2.53839470416851       -5.55644319220156        2.62933846070860
C           -3.61797589814181       -5.24061738713793        1.82857809369939
C           -3.55906843256841       -4.08818792768586        1.05522697631032
C           -4.48105812239816       -3.45952419739411        0.15038421027862
C           -5.75221825895427       -3.79086391023449       -0.30129534557917
C           -6.36928142913692       -2.95787365057274       -1.21363584519179
C           -5.72670340527555       -1.81684983169255       -1.68938571462724
C           -4.46215602677885       -1.46853941594059       -1.25467624899918
C           -3.84788747960141       -2.28479159360570       -0.31626050187768
C           -0.35434590433059       -1.45036805710038       -0.27068746060343
C            2.28021640931013       -1.80425799742113       -1.65871568653158
C            3.58532179550191       -2.11011173726853       -1.95442285304935
C            4.64296595598564       -1.40031666988038       -1.37384435271403
H            8.68965702282353       -1.87862527682789       -1.86534262643420
H           10.37050745523349       -0.46976205001611       -0.69556642971516
H            9.61073697956185        1.31006514433219        0.83973696567542
H            7.18992766890740        1.68357642483736        1.20389664537087
H            2.82462005028614        0.74872349929764        0.50931118563258
H            0.88302887719862        1.68898546958677       -0.49520415127946
H           -3.42934808591900        1.61199708434510       -1.74576698947845
H           -5.19410041715727        3.09482482819426       -2.61474293240132
H           -5.34539662186246        5.43322625178108       -1.89684438927803
H           -3.70988563085309        6.36914176747325       -0.29680092592084
H           -1.62753667658965        6.76413799272487        1.45809062997378
H            0.35022031969569        6.51163065092457        2.91954637922991
H            1.47986029659030        4.34842196807107        3.13094865044770
H            0.69469920766193        2.37552124301588        1.87999581795812
H           -3.08494799342501        0.41955207275720        0.45660854081207
H           -0.46614110421898       -2.94195216690387        1.97336273915949
H           -0.59305409158027       -4.99546408711448        3.32276255597820
H           -2.56298512574617       -6.44942611467324        3.23656610407984
H           -4.49411385311162       -5.87124693574326        1.80423946463185
H           -6.24266460762305       -4.68508479772226        0.05328551368195
H           -7.35912883605905       -3.19586940024689       -1.57455160922466
H           -6.22563218880303       -1.19327184032872       -2.41684615565238
H           -3.96512004785913       -0.59518367708215       -1.64673681742940
H           -0.05879287494188       -2.48301546496873       -0.36858793669643
H            1.47946392934435       -2.35253370983814       -2.12963045657369
H            3.83623903419298       -2.90411415955846       -2.64225958216604

          :  Hamiltonian                  GFN2-xTB          :
         :: gradient norm              0.000048918847 Eh/a0 ::
         :: HOMO-LUMO gap              1.851289728336 eV    ::
         :: SCC energy              -121.609640388443 Eh    ::
         :: -> dispersion             -0.102346625484 Eh    ::
         :: -> Gsolv                  -0.052385765562 Eh    ::
         :: repulsion energy           2.148912573603 Eh    ::

    * Orbital Energies and Occupations

         #    Occupation            Energy/Eh            Energy/eV
      -------------------------------------------------------------
         1        2.0000           -0.7564896             -20.5851
       ...           ...                  ...                  ...
        98        2.0000           -0.4207600             -11.4495
        99        2.0000           -0.4205632             -11.4441
       100        2.0000           -0.4192750             -11.4091
       101        2.0000           -0.4165732             -11.3355
       102        2.0000           -0.4091163             -11.1326
       103        2.0000           -0.4070697             -11.0769
       104        2.0000           -0.4069602             -11.0740
       105        2.0000           -0.3991821             -10.8623
       106        2.0000           -0.3964176             -10.7871
       107        2.0000           -0.3805746             -10.3560
       108        2.0000           -0.3803924             -10.3510
       109        2.0000           -0.3673999              -9.9975
       110        2.0000           -0.3646496              -9.9226 (HOMO)
       111                         -0.2966160              -8.0713 (LUMO)
       112                         -0.2623355              -7.1385
       113                         -0.2506633              -6.8209
       114                         -0.2492088              -6.7813
       115                         -0.2466291              -6.7111
       116                         -0.2413591              -6.5677
       117                         -0.2309449              -6.2843
       118                         -0.2260695              -6.1517
       119                         -0.2239045              -6.0928
       120                         -0.2237451              -6.0884
       121                         -0.1987639              -5.4086
       ...                                ...                  ...
       214                          0.7431902              20.2232
      -------------------------------------------------------------
                  HL-Gap            0.0680336 Eh            1.8513 eV

     #   Z          covCN         q      C6AA      α(0)
     1   8 O        0.857    -0.454    22.789     6.400
     2   6 C        2.831     0.223    23.313     7.912
     3   6 C        2.974    -0.043    29.059     8.842
     4   6 C        2.923    -0.018    28.466     8.749
     5   6 C        2.916    -0.032    28.807     8.801
     6   6 C        2.921    -0.019    28.475     8.751
     7   6 C        2.915    -0.050    29.232     8.866
     8   6 C        2.886     0.142    24.900     8.181
     9   8 O        1.711    -0.212    17.518     5.651
    10   6 C        2.884     0.143    24.895     8.180
    11   6 C        2.921    -0.056    29.391     8.890
    12   6 C        2.978     0.025    27.430     8.591
    13   6 C        2.976     0.018    27.609     8.619
    14   6 C        2.927    -0.052    29.295     8.876
    15   6 C        2.910     0.068    26.477     8.438
    16   7 N        2.802    -0.043    22.067     6.977
    17   6 C        3.074     0.047    26.880     8.501
    18   6 C        2.910    -0.051    29.259     8.870
    19   6 C        2.923    -0.034    28.852     8.809
    20   6 C        2.920    -0.042    29.041     8.837
    21   6 C        2.912    -0.034    28.851     8.808
    22   6 C        3.067    -0.018    28.382     8.736
    23   6 C        3.067    -0.017    28.374     8.735
    24   6 C        2.912    -0.034    28.850     8.808
    25   6 C        2.920    -0.042    29.042     8.837
    26   6 C        2.924    -0.034    28.858     8.809
    27   6 C        2.910    -0.052    29.289     8.874
    28   6 C        3.074     0.046    26.887     8.502
    29   6 C        2.924    -0.057    29.419     8.895
    30   6 C        2.910     0.068    26.478     8.438
    31   7 N        2.802    -0.043    22.063     6.976
    32   6 C        3.073     0.046    26.889     8.502
    33   6 C        2.910    -0.052    29.290     8.874
    34   6 C        2.924    -0.034    28.856     8.809
    35   6 C        2.920    -0.042    29.036     8.836
    36   6 C        2.912    -0.034    28.851     8.808
    37   6 C        3.067    -0.017    28.371     8.734
    38   6 C        3.067    -0.018    28.377     8.735
    39   6 C        2.912    -0.034    28.849     8.808
    40   6 C        2.920    -0.042    29.039     8.837
    41   6 C        2.923    -0.034    28.853     8.809
    42   6 C        2.910    -0.051    29.261     8.870
    43   6 C        3.073     0.046    26.883     8.501
    44   6 C        2.927    -0.052    29.287     8.875
    45   6 C        2.920    -0.038    28.946     8.823
    46   6 C        2.921    -0.019    28.476     8.751
    47   6 C        2.973    -0.044    29.099     8.848
    48   1 H        0.926     0.058     2.216     2.328
    49   1 H        0.926     0.056     2.248     2.344
    50   1 H        0.926     0.062     2.174     2.306
    51   1 H        0.926     0.065     2.136     2.285
    52   1 H        0.926     0.067     2.123     2.279
    53   1 H        0.926     0.055     2.262     2.352
    54   1 H        0.926     0.028     2.616     2.529
    55   1 H        0.926     0.031     2.572     2.508
    56   1 H        0.926     0.029     2.606     2.524
    57   1 H        0.926     0.031     2.568     2.506
    58   1 H        0.926     0.031     2.570     2.507
    59   1 H        0.926     0.029     2.603     2.523
    60   1 H        0.926     0.032     2.564     2.504
    61   1 H        0.926     0.031     2.575     2.509
    62   1 H        0.926     0.054     2.268     2.355
    63   1 H        0.926     0.032     2.564     2.504
    64   1 H        0.926     0.031     2.573     2.509
    65   1 H        0.926     0.029     2.604     2.523
    66   1 H        0.926     0.031     2.565     2.505
    67   1 H        0.926     0.031     2.567     2.505
    68   1 H        0.926     0.029     2.604     2.523
    69   1 H        0.926     0.031     2.569     2.507
    70   1 H        0.926     0.029     2.607     2.525
    71   1 H        0.926     0.055     2.254     2.348
    72   1 H        0.926     0.058     2.217     2.329
    73   1 H        0.926     0.060     2.195     2.317

molecular dipole:
                 x           y           z       tot (Debye)
 q only:       -0.049       1.115       0.965
   full:       -0.011       1.134       0.974       3.799

 projected vibrational frequencies (cm⁻¹)
eigval :       -0.00    -0.00    -0.00     0.00     0.00     0.00
eigval :       11.82    17.43    18.58    23.93    25.65    28.65
eigval :       44.97    57.49    68.09    71.88    97.62    99.02
eigval :      114.58   125.07   134.01   138.50   144.61   152.07
eigval :      166.41   199.79   212.46   224.43   245.16   253.37
eigval :      261.99   268.88   271.47   272.00   281.31   303.80
eigval :      308.61   326.11   359.38   374.82   392.75   395.88
eigval :      397.85   404.59   421.60   422.99   429.00   435.13
eigval :      437.08   453.77   464.68   499.50   512.07   514.35
eigval :      518.85   519.73   526.00   539.30   541.21   541.84
eigval :      557.91   563.58   581.27   587.54   593.68   608.13
eigval :      620.20   623.25   641.38   647.66   651.47   666.51
eigval :      672.66   673.71   676.47   685.92   705.74   708.00
eigval :      709.27   741.09   748.92   754.71   764.02   768.44
eigval :      769.87   775.50   775.90   780.71   789.03   831.53
eigval :      837.65   851.22   859.90   866.40   869.73   875.17
eigval :      879.09   880.75   890.89   893.41   894.94   897.49
eigval :      898.36   899.84   903.89   906.97   910.30   918.87
eigval :      919.48   922.14   923.16   924.82   925.41   928.53
eigval :      931.65   982.08   999.75  1011.05  1013.07  1031.99
eigval :     1065.71  1069.57  1071.30  1072.34  1075.54  1094.13
eigval :     1112.39  1118.44  1123.35  1133.99  1147.68  1151.76
eigval :     1163.32  1166.88  1169.42  1176.09  1178.82  1180.15
eigval :     1181.56  1191.93  1201.98  1215.86  1227.84  1229.97
eigval :     1230.28  1234.78  1235.23  1240.78  1245.71  1275.49
eigval :     1280.52  1294.58  1299.52  1300.49  1303.60  1315.21
eigval :     1330.71  1343.98  1352.10  1355.74  1356.24  1360.04
eigval :     1360.99  1386.18  1400.28  1416.99  1422.48  1425.98
eigval :     1428.01  1430.61  1444.78  1450.85  1456.74  1471.93
eigval :     1474.76  1479.49  1486.49  1486.81  1545.17  1563.41
eigval :     1568.02  1568.84  1573.48  1575.30  1585.85  1587.63
eigval :     1588.52  1593.39  1597.70  1598.29  1612.60  1613.46
eigval :     1637.08  3071.80  3072.07  3072.71  3073.73  3078.03
eigval :     3078.13  3078.77  3079.61  3085.92  3086.79  3088.20
eigval :     3088.32  3088.83  3090.36  3092.38  3093.10  3093.71
eigval :     3096.36  3097.45  3101.49  3103.00  3104.17  3105.08
eigval :     3107.42  3108.54  3109.21

   temp. (K)  partition function   enthalpy   heat capacity  entropy
                                   cal/mol     cal/K/mol   cal/K/mol   J/K/mol
 298.15  VIB  0.282E+16            20470.871    132.943    125.056
         ROT  0.911E+08              888.752      2.981     39.403
         INT  0.257E+24            21359.624    135.924    164.459
         TR   0.143E+29             1481.254      4.968     45.052
         TOT                       22840.8777   140.8917   209.5107   876.5929

       T/K    H(0)-H(T)+PV         H(T)/Eh          T*S/Eh         G(T)/Eh
   ------------------------------------------------------------------------
    298.15    0.363993E-01    0.585999E+00    0.995453E-01    0.486454E+00
   ------------------------------------------------------------------------

         :::::::::::::::::::::::::::::::::::::::::::::::::::::
         ::                  THERMODYNAMIC                  ::
         :::::::::::::::::::::::::::::::::::::::::::::::::::::
         :: total free energy        -118.974273881736 Eh   ::
         ::.................................................::
         :: total energy             -119.460727814974 Eh   ::
         :: zero point energy           0.549599985543 Eh   ::
         :: G(RRHO) w/o ZPVE           -0.063146052305 Eh   ::
         :: G(RRHO) contrib.            0.486453933238 Eh   ::
         :::::::::::::::::::::::::::::::::::::::::::::::::::::

           -------------------------------------------------
          | TOTAL ENERGY             -119.460727814974 Eh   |
          | TOTAL ENTHALPY           -118.874728573973 Eh   |
          | TOTAL FREE ENERGY        -118.974273881736 Eh   |
          | GRADIENT NORM               0.000048914815 Eh/α |
          | HOMO-LUMO GAP               1.851289808212 eV   |
           -------------------------------------------------

 * finished run on 2025/09/10 at 14:49:11.135
