   * xtb version 6.7.1 (edcfbbe) compiled by 'albert@albert-system' on 2024-07-22

   ID    Z sym.   atoms
    1    8 O      1, 9
    2    6 C      2-8, 10-15, 17-30, 32-47
    3    7 N      16, 31
    4    1 H      48-73

          program call               : xtb data2507/toluene/Xp-mCP/Xp-mCP_toluene_T1_crest.xyz --gfn 2 --uhf 2 --gbsa toluene --ohess vtight --parallel 40 --molden --ceasefiles --namespace data2507/toluene/Xp-mCP/Xp-mCP_toluene_T1_finalOpt
      * Solvation model:               GBSA
        Solvent                        toluene
        Solvent mass                       9.2140E+01 g/mol
          :  Hamiltonian                  GFN2-xTB          :
 * total energy  :  -119.3752099 Eh     change        0.3083755E-10 Eh
 * total energy  :  -119.3753530 Eh     change       -0.1430572E-03 Eh
 * total energy  :  -119.3753954 Eh     change       -0.4240571E-04 Eh
 * total energy  :  -119.3753991 Eh     change       -0.3727659E-05 Eh
 * total energy  :  -119.3754003 Eh     change       -0.1245649E-05 Eh
 * total energy  :  -119.3754018 Eh     change       -0.1477576E-05 Eh
 * total energy  :  -119.3754035 Eh     change       -0.1639800E-05 Eh
 * total energy  :  -119.3754054 Eh     change       -0.1889085E-05 Eh
 * total energy  :  -119.3754074 Eh     change       -0.2049682E-05 Eh
 * total energy  :  -119.3754091 Eh     change       -0.1678951E-05 Eh
 * total energy  :  -119.3754105 Eh     change       -0.1385051E-05 Eh
 * total energy  :  -119.3754117 Eh     change       -0.1191305E-05 Eh
 * total energy  :  -119.3754124 Eh     change       -0.7064934E-06 Eh
 * total energy  :  -119.3754127 Eh     change       -0.3360231E-06 Eh
 * total energy  :  -119.3754128 Eh     change       -0.1096388E-06 Eh
 * total energy  :  -119.3754128 Eh     change        0.1954317E-07 Eh
 * total energy  :  -119.3754129 Eh     change       -0.7952542E-07 Eh
   *** GEOMETRY OPTIMIZATION CONVERGED AFTER 17 ITERATIONS ***

 final structure:
================
73
 xtb: 6.7.1 (edcfbbe)
O            6.37835935577510       -3.10197465136281        0.42255891408034
C            5.96518007145216       -1.97129756869649        0.04130711557191
C            6.87764216282140       -0.94446566744445       -0.44769430265978
C            8.25758257981369       -1.17756874786893       -0.51290334107231
C            9.11631334024919       -0.20349680905182       -0.97846369241063
C            8.61956331824860        1.02531219252858       -1.38773745372651
C            7.25737423835621        1.27786693481027       -1.33223230015376
C            6.38690171635461        0.30250589957329       -0.86515152813655
O            5.06317888069853        0.62037996522208       -0.83654994921412
C            4.17112328208433       -0.31666087632707       -0.38429887578213
C            2.84462421818660        0.04529179435986       -0.37697202844144
C            1.84191677864925       -0.84893077085834        0.05216547807267
C            0.44783228261296       -0.46734737685738        0.06466844047016
C            0.05479563961737        0.88084661178431        0.14101948438196
C           -1.28336618466973        1.24245297378125        0.15752775131589
N           -1.63362969736835        2.59567824963296        0.27223441176942
C           -1.15914038435886        3.46487090098726        1.23232957835762
C           -0.28299091067122        3.22704218992784        2.28465148936784
C            0.01707269683886        4.28468973225422        3.12417736576106
C           -0.54687737921076        5.54382667864562        2.93571640766531
C           -1.44098281566758        5.77997987032234        1.90359639448153
C           -1.75382125040189        4.73645909075262        1.04760540916622
C           -2.62763144580066        4.61535608774170       -0.09179763210403
C           -3.45121126492722        5.50501331975625       -0.76275834889256
C           -4.15257740215201        5.05305020125121       -1.86907839721196
C           -4.02483657504956        3.73969235047678       -2.31352885009751
C           -3.20767274062080        2.83588423370755       -1.65968785673678
C           -2.52255715043095        3.27480261279035       -0.53403400005875
C           -2.28839852186496        0.27732641499089        0.08943739192921
C           -1.91210001619362       -1.06431564841836        0.02036357132855
N           -2.89864271866537       -2.05984013435219       -0.01207042022226
C           -2.94692751152061       -3.15473411853138        0.82508858149202
C           -2.10426348669673       -3.50079341129743        1.87453347820591
C           -2.39119739781752       -4.65771368324007        2.57618400447401
C           -3.49422811333095       -5.44515229492732        2.25616342473007
C           -4.35429015638722       -5.08911483452669        1.22941237731726
C           -4.08475379275488       -3.93590704017160        0.51034581938272
C           -4.74860948416233       -3.26577713238740       -0.57927504396724
C           -5.88340450096415       -3.54569985407095       -1.32337912874629
C           -6.23736493378524       -2.67759351771963       -2.34391646066282
C           -5.46443601215897       -1.55636540282051       -2.63390784141224
C           -4.32646599500288       -1.25988845669872       -1.90626746714849
C           -3.98145650908825       -2.11051931911337       -0.86402140162219
C           -0.57504213194599       -1.42971326939813        0.00114207474927
C            2.25992829530079       -2.12556042131860        0.47969348985735
C            3.57726075218834       -2.48616858559030        0.48516931423489
C            4.58591843691471       -1.59566782316592        0.04882234804589
H            8.61933352835625       -2.14231476681171       -0.18921271285199
H           10.17666430683928       -0.40281033871671       -1.02303471951377
H            9.28850402942443        1.79003486385670       -1.75158978731796
H            6.84793893596611        2.22604007254300       -1.64477128565056
H            2.59718410543188        1.02601226799786       -0.75078728643892
H            0.80270599929504        1.65535714009963        0.18739331531925
H            0.14441292545485        2.24987125102876        2.44864989169027
H            0.70036630351764        4.12801089890431        3.94532592308304
H           -0.28793670507996        6.34504441043519        3.61150758110730
H           -1.88625212867298        6.75379137397676        1.76959266510112
H           -3.53857325489626        6.52878819935134       -0.43293391750513
H           -4.80102577621988        5.73099953939145       -2.40343358374365
H           -4.57047284549090        3.42170362773831       -3.18917538586894
H           -3.09356225796372        1.82707357752568       -2.02241138409460
H           -3.32766293210541        0.55705313576531        0.14720703436934
H           -1.26081743178637       -2.88291595580509        2.14165189152518
H           -1.74863824629677       -4.95283685576470        3.39214917659649
H           -3.68538838331160       -6.34210966877882        2.82589536462357
H           -5.21688800436706       -5.69416626966710        0.99620154073452
H           -6.47451047370924       -4.42406677940191       -1.11459606886427
H           -7.12054095363102       -2.87720049688243       -2.93193650071754
H           -5.75632064345431       -0.90769080598670       -3.44607205812280
H           -3.71806620017429       -0.40410278833036       -2.15060601398784
H           -0.32477418530355       -2.47162562942290       -0.11708036316507
H            1.53317207335210       -2.83312543596951        0.84881556854257
H            3.89330918503200       -3.46058841055706        0.82773623742103

          :  Hamiltonian                  GFN2-xTB          :
         :: gradient norm              0.000069888242 Eh/a0 ::
         :: HOMO-LUMO gap              0.661671867323 eV    ::
         :: SCC energy              -121.509520147212 Eh    ::
         :: -> dispersion             -0.102242353294 Eh    ::
         :: -> Gsolv                  -0.063233723095 Eh    ::
         :: repulsion energy           2.134107276746 Eh    ::

    * Orbital Energies and Occupations

         #    Occupation            Energy/Eh            Energy/eV
      -------------------------------------------------------------
         1        2.0000           -0.7320229             -19.9194
       ...           ...                  ...                  ...
        99        2.0000           -0.4199870             -11.4284
       100        2.0000           -0.4199022             -11.4261
       101        2.0000           -0.4166657             -11.3380
       102        2.0000           -0.4114781             -11.1969
       103        2.0000           -0.4069823             -11.0746
       104        2.0000           -0.3940003             -10.7213
       105        2.0000           -0.3938403             -10.7169
       106        2.0000           -0.3896217             -10.6021
       107        1.9858           -0.3806198             -10.3572
       108        1.9408           -0.3792165             -10.3190
       109        1.6857           -0.3773301             -10.2677
       110        1.3876           -0.3761545             -10.2357
       111        1.0000           -0.2843291              -7.7370 (HOMO)
       112        0.0000           -0.2600129              -7.0753 (LUMO)
       113        0.0000           -0.2593196              -7.0564
       114                         -0.2525268              -6.8716
       115                         -0.2455388              -6.6814
       116                         -0.2379232              -6.4742
       117                         -0.2377712              -6.4701
       118                         -0.2280254              -6.2049
       119                         -0.2197364              -5.9793
       120                         -0.2068968              -5.6299
       121                         -0.2041550              -5.5553
       122                         -0.2021254              -5.5001
       ...                                ...                  ...
       214                          0.7302682              19.8716
      -------------------------------------------------------------
                  HL-Gap            0.0243163 Eh            0.6617 eV

     #   Z          covCN         q      C6AA      α(0)
     1   8 O        0.857    -0.498    23.748     6.534
     2   6 C        2.834     0.181    24.123     8.049
     3   6 C        2.976    -0.036    28.901     8.818
     4   6 C        2.922    -0.034    28.850     8.808
     5   6 C        2.915    -0.038    28.955     8.824
     6   6 C        2.919    -0.036    28.895     8.815
     7   6 C        2.916    -0.060    29.479     8.903
     8   6 C        2.880     0.134    25.069     8.208
     9   8 O        1.710    -0.252    18.174     5.756
    10   6 C        2.875     0.126    25.237     8.235
    11   6 C        2.919    -0.071    29.778     8.949
    12   6 C        2.972    -0.009    28.250     8.718
    13   6 C        2.969     0.013    27.725     8.637
    14   6 C        2.926    -0.050    29.242     8.868
    15   6 C        2.909     0.062    26.616     8.460
    16   7 N        2.804    -0.008    21.419     6.874
    17   6 C        3.073     0.048    26.859     8.497
    18   6 C        2.909    -0.041    29.013     8.832
    19   6 C        2.922    -0.029    28.732     8.790
    20   6 C        2.920    -0.031    28.769     8.796
    21   6 C        2.912    -0.028    28.689     8.783
    22   6 C        3.065    -0.010    28.199     8.708
    23   6 C        3.064    -0.010    28.201     8.708
    24   6 C        2.912    -0.027    28.687     8.783
    25   6 C        2.920    -0.031    28.781     8.798
    26   6 C        2.922    -0.030    28.743     8.792
    27   6 C        2.910    -0.041    29.013     8.832
    28   6 C        3.073     0.047    26.865     8.498
    29   6 C        2.921    -0.072    29.805     8.953
    30   6 C        2.910     0.062    26.621     8.460
    31   7 N        2.804    -0.008    21.409     6.872
    32   6 C        3.074     0.047    26.860     8.497
    33   6 C        2.909    -0.041    29.010     8.832
    34   6 C        2.922    -0.029    28.732     8.790
    35   6 C        2.920    -0.031    28.767     8.795
    36   6 C        2.912    -0.027    28.686     8.783
    37   6 C        3.064    -0.010    28.197     8.708
    38   6 C        3.065    -0.010    28.198     8.708
    39   6 C        2.912    -0.027    28.685     8.782
    40   6 C        2.920    -0.031    28.778     8.797
    41   6 C        2.922    -0.030    28.741     8.792
    42   6 C        2.910    -0.041    29.011     8.832
    43   6 C        3.073     0.047    26.864     8.498
    44   6 C        2.926    -0.050    29.251     8.869
    45   6 C        2.918    -0.044    29.097     8.846
    46   6 C        2.917    -0.040    28.984     8.828
    47   6 C        2.974    -0.047    29.166     8.859
    48   1 H        0.926     0.038     2.471     2.458
    49   1 H        0.926     0.041     2.436     2.441
    50   1 H        0.926     0.045     2.378     2.412
    51   1 H        0.926     0.049     2.331     2.388
    52   1 H        0.926     0.044     2.402     2.423
    53   1 H        0.926     0.052     2.298     2.371
    54   1 H        0.926     0.044     2.392     2.418
    55   1 H        0.926     0.042     2.418     2.432
    56   1 H        0.926     0.043     2.411     2.428
    57   1 H        0.926     0.046     2.372     2.408
    58   1 H        0.926     0.045     2.384     2.414
    59   1 H        0.926     0.043     2.410     2.428
    60   1 H        0.926     0.045     2.389     2.417
    61   1 H        0.926     0.043     2.411     2.428
    62   1 H        0.926     0.052     2.297     2.370
    63   1 H        0.926     0.044     2.399     2.422
    64   1 H        0.926     0.043     2.415     2.430
    65   1 H        0.926     0.043     2.410     2.427
    66   1 H        0.926     0.046     2.371     2.408
    67   1 H        0.926     0.045     2.382     2.414
    68   1 H        0.926     0.043     2.407     2.426
    69   1 H        0.926     0.045     2.387     2.416
    70   1 H        0.926     0.043     2.407     2.426
    71   1 H        0.926     0.051     2.306     2.375
    72   1 H        0.926     0.039     2.468     2.457
    73   1 H        0.926     0.031     2.566     2.505

molecular dipole:
                 x           y           z       tot (Debye)
 q only:       -6.933       2.555      -0.162
   full:       -6.710       2.508      -0.153      18.211

 projected vibrational frequencies (cm⁻¹)
eigval :       -0.00    -0.00    -0.00     0.00     0.00     0.00
eigval :       11.81    16.42    20.02    22.96    25.96    28.38
eigval :       47.60    66.46    67.49    77.23    95.70   101.54
eigval :      115.13   130.50   133.99   135.94   137.56   151.14
eigval :      159.40   201.13   214.68   217.96   249.17   253.26
eigval :      256.38   262.75   268.93   271.17   274.18   298.25
eigval :      307.89   323.38   365.18   369.64   382.48   390.96
eigval :      393.67   406.02   408.65   417.08   419.46   432.52
eigval :      434.03   449.81   465.91   494.80   504.94   507.38
eigval :      512.58   513.85   516.52   533.42   534.75   539.38
eigval :      550.27   557.03   567.55   575.88   584.75   586.86
eigval :      590.74   617.96   620.66   636.35   641.46   646.31
eigval :      654.29   662.52   673.40   674.31   690.64   700.01
eigval :      709.85   710.72   746.84   751.91   764.22   764.96
eigval :      766.78   767.85   769.21   775.91   777.56   791.91
eigval :      811.41   823.53   827.63   844.28   856.83   859.10
eigval :      864.40   870.73   873.30   881.54   884.82   891.30
eigval :      893.10   894.26   898.54   901.91   905.45   906.02
eigval :      907.24   910.66   913.22   919.27   921.70   925.99
eigval :      927.28   965.72   995.75  1009.63  1010.92  1030.28
eigval :     1062.04  1065.52  1067.60  1069.26  1074.83  1077.03
eigval :     1099.22  1113.40  1117.87  1124.88  1134.70  1138.57
eigval :     1159.38  1165.71  1168.75  1171.84  1174.37  1175.47
eigval :     1176.70  1186.58  1193.01  1215.27  1221.19  1221.91
eigval :     1224.89  1226.95  1232.26  1235.83  1248.96  1253.28
eigval :     1272.82  1277.56  1280.75  1285.74  1289.93  1310.40
eigval :     1329.01  1329.28  1332.01  1334.96  1343.22  1358.26
eigval :     1360.68  1366.50  1393.10  1398.84  1404.76  1405.12
eigval :     1411.82  1424.75  1431.15  1434.16  1439.85  1455.94
eigval :     1457.56  1461.69  1465.12  1473.88  1477.18  1477.75
eigval :     1485.41  1519.19  1546.83  1551.11  1561.20  1561.92
eigval :     1572.35  1572.82  1575.55  1578.83  1580.98  1594.82
eigval :     1601.20  3078.25  3078.55  3081.89  3082.20  3082.42
eigval :     3083.21  3086.69  3087.71  3087.89  3089.09  3089.99
eigval :     3090.13  3092.56  3094.77  3094.95  3097.99  3098.13
eigval :     3100.36  3100.68  3101.04  3102.16  3105.10  3105.44
eigval :     3110.37  3113.09  3115.56

   temp. (K)  partition function   enthalpy   heat capacity  entropy
                                   cal/mol     cal/K/mol   cal/K/mol   J/K/mol
 298.15  VIB  0.298E+16            20706.593    134.977    126.246
         ROT  0.920E+08              888.752      2.981     39.423
         INT  0.274E+24            21595.345    137.958    165.669
         TR   0.143E+29             1481.254      4.968     45.052
         TOT                       23076.5991   142.9265   210.7208   881.6556

       T/K    H(0)-H(T)+PV         H(T)/Eh          T*S/Eh         G(T)/Eh
   ------------------------------------------------------------------------
    298.15    0.367749E-01    0.582226E+00    0.100120E+00    0.482106E+00
   ------------------------------------------------------------------------

         :::::::::::::::::::::::::::::::::::::::::::::::::::::
         ::                  THERMODYNAMIC                  ::
         :::::::::::::::::::::::::::::::::::::::::::::::::::::
         :: total free energy        -118.893307158262 Eh   ::
         ::.................................................::
         :: total energy             -119.375412867831 Eh   ::
         :: zero point energy           0.545451037064 Eh   ::
         :: G(RRHO) w/o ZPVE           -0.063345327495 Eh   ::
         :: G(RRHO) contrib.            0.482105709569 Eh   ::
         :::::::::::::::::::::::::::::::::::::::::::::::::::::

           -------------------------------------------------
          | TOTAL ENERGY             -119.375412867831 Eh   |
          | TOTAL ENTHALPY           -118.793186929229 Eh   |
          | TOTAL FREE ENERGY        -118.893307158262 Eh   |
          | GRADIENT NORM               0.000072958025 Eh/α |
          | HOMO-LUMO GAP               0.661679458913 eV   |
           -------------------------------------------------

 * finished run on 2025/09/10 at 15:06:19.158
