   * xtb version 6.7.1 (edcfbbe) compiled by 'albert@albert-system' on 2024-07-22

   ID    Z sym.   atoms
    1    8 O      1, 9
    2    6 C      2-8, 10-15, 17-30, 32-47
    3    7 N      16, 31
    4    1 H      48-73

          program call               : xtb data2507/toluene/Xp-mCP/Xp-mCP_toluene_S0_finalOpt.xtbopt.xyz --gfn 2 --uhf 2 --gbsa toluene --ohess vtight --parallel 40 --molden --ceasefiles --namespace data2507/toluene/Xp-mCP/Xp-mCP_toluene_T1_preOpt
      * Solvation model:               GBSA
        Solvent                        toluene
        Solvent mass                       9.2140E+01 g/mol
          :  Hamiltonian                  GFN2-xTB          :
 * total energy  :  -119.3706308 Eh     change       -0.1686601E-08 Eh
 * total energy  :  -119.3736048 Eh     change       -0.2974041E-02 Eh
 * total energy  :  -119.3745012 Eh     change       -0.8963581E-03 Eh
 * total energy  :  -119.3745976 Eh     change       -0.9646491E-04 Eh
 * total energy  :  -119.3746835 Eh     change       -0.8589425E-04 Eh
 * total energy  :  -119.3747411 Eh     change       -0.5753802E-04 Eh
 * total energy  :  -119.3747918 Eh     change       -0.5074292E-04 Eh
 * total energy  :  -119.3748271 Eh     change       -0.3530678E-04 Eh
 * total energy  :  -119.3748481 Eh     change       -0.2098811E-04 Eh
 * total energy  :  -119.3748686 Eh     change       -0.2050078E-04 Eh
 * total energy  :  -119.3753467 Eh     change       -0.1324751E-05 Eh
 * total energy  :  -119.3753477 Eh     change       -0.9767661E-06 Eh
 * total energy  :  -119.3753484 Eh     change       -0.7526095E-06 Eh
 * total energy  :  -119.3753490 Eh     change       -0.5936685E-06 Eh
 * total energy  :  -119.3753494 Eh     change       -0.3915622E-06 Eh
 * total energy  :  -119.3753497 Eh     change       -0.2748475E-06 Eh
 * total energy  :  -119.3753499 Eh     change       -0.1941366E-06 Eh
 * total energy  :  -119.3753499 Eh     change        0.9407017E-09 Eh
 * total energy  :  -119.3753499 Eh     change       -0.7854624E-09 Eh
   *** GEOMETRY OPTIMIZATION CONVERGED AFTER 45 ITERATIONS ***

 final structure:
================
73
 xtb: 6.7.1 (edcfbbe)
O            6.36039870866694        3.06519569037920       -0.75968455057470
C            5.95516839745244        1.91931215247855       -0.41685936611578
C            6.88058796238930        0.86038414995329       -0.03179068864421
C            8.26446646873342        1.07892882421866       -0.02590119598453
C            9.13558919961208        0.07445150452607        0.34186954153104
C            8.64757446441449       -1.17071025484516        0.71007146656527
C            7.28172488328788       -1.40950943720327        0.71129633147508
C            6.39881211461799       -0.40332480607392        0.34355590846417
O            5.07186576760548       -0.70846818204757        0.36744690899942
C            4.16765597023602        0.26030658432792        0.01790595137804
C            2.83847673200924       -0.08740009640993        0.06828101221725
C            1.82405107089269        0.83959112593091       -0.25042749024620
C            0.42725746481177        0.47588297081684       -0.17614273793963
C           -0.57167421797486        1.44572079222493        0.01772691077225
C           -1.90978679300084        1.09406047027054        0.09953000962802
N           -2.87430072952158        2.09209853313506        0.30156717560584
C           -3.84952153731120        2.09168960518454        1.27605816216903
C           -4.09632047877322        1.16351593088039        2.28053701291438
C           -5.13958043433753        1.41929712182945        3.15196804182115
C           -5.91373678611137        2.57108144866112        3.03913969557557
C           -5.65499628168225        3.51345170121331        2.05651652444772
C           -4.61558272844920        3.27804599912768        1.17117977909623
C           -4.06218902018270        4.02372091966981        0.06910228458461
C           -4.38378410937770        5.23411314699462       -0.52366147562939
C           -3.63775191886850        5.65698373042857       -1.61235990489635
C           -2.59785277718982        4.88039476507171       -2.11723125027474
C           -2.26034467278546        3.66791290255787       -1.54364367578367
C           -2.98637377506980        3.25294134333967       -0.43358946267061
C           -2.30620102304256       -0.24035675475132        0.00797402278893
C           -1.32520894984786       -1.21357537902533       -0.18400105946670
N           -1.69634361133684       -2.56138147993857       -0.29215635590685
C           -1.11431043893706       -3.60563813779873        0.39570729970585
C           -0.11929668201791       -3.57957680269244        1.36578201422488
C            0.26911106588666       -4.78437518114631        1.92318341589167
C           -0.32289714698652       -5.98530098507665        1.54047493820760
C           -1.33671217771742       -6.01383966286849        0.59621058699595
C           -1.73932125849949       -4.81927936888961        0.02115127455711
C           -2.74632545486874       -4.47475441600464       -0.95015329618286
C           -3.65667235797847       -5.21836293810970       -1.68352474774504
C           -4.49027304397592       -4.55629251058337       -2.57063996270541
C           -4.40862195625559       -3.17663961798793       -2.73892240395373
C           -3.50598214674700       -2.41424065966082       -2.01960074675000
C           -2.68448260839131       -3.06905993173165       -1.10959985160396
C            0.01234301730798       -0.86326836546261       -0.28337119635276
C            2.23333203566524        2.13193847361580       -0.63730745775508
C            3.55280040914849        2.47882387115880       -0.70095100591031
C            4.57324272020384        1.55695689899997       -0.36907816661429
H            8.61924126918125        2.05666055964563       -0.31661372881710
H           10.19883929940433        0.26304106144120        0.34267745230553
H            9.32626769018163       -1.95914543931043        0.99709534961429
H            6.87909712667657       -2.37008611974928        0.99324911521108
H            2.60121040970818       -1.08620123233992        0.39799312599520
H           -0.29689962936668        2.47834210703584        0.16019367425292
H           -3.48752473350049        0.27946153615623        2.38868135746233
H           -5.35441399301896        0.71271555757963        3.93950759100326
H           -6.72112808046843        2.73543346293649        3.73684102225407
H           -6.24594039177870        4.41344020238172        1.98408678611871
H           -5.19980303765760        5.83156400377780       -0.14733911019915
H           -3.87061179115817        6.59904022414847       -2.08570647971675
H           -2.04557446033454        5.22928387218347       -2.97694037648303
H           -1.46656421792461        3.06140475432690       -1.95171541761233
H           -3.34588993386837       -0.51248071163764        0.08519172184834
H            0.32942183438168       -2.65109689379453        1.68345576610837
H            1.04521646605327       -4.79199040485515        2.67382857820894
H            0.00817121563182       -6.90614415330281        1.99671188973112
H           -1.80565837454221       -6.94462130243653        0.31646899841158
H           -3.71054108636820       -6.28999061606365       -1.56846294217052
H           -5.20779216866794       -5.11796308940885       -3.14965824153870
H           -5.06031589414316       -2.69099087593495       -3.44966649053886
H           -3.43544395594921       -1.34895596557494       -2.17418766726352
H            0.73694380615301       -1.63177542464316       -0.49785499437929
H            1.49536379526278        2.86477594381657       -0.92605053579796
H            3.86162781606380        3.46632620349027       -1.01113771611241

          :  Hamiltonian                  GFN2-xTB          :
         :: gradient norm              0.000104063582 Eh/a0 ::
         :: HOMO-LUMO gap              0.667463607008 eV    ::
         :: SCC energy              -121.508720512539 Eh    ::
         :: -> dispersion             -0.101721340317 Eh    ::
         :: -> Gsolv                  -0.063360400012 Eh    ::
         :: repulsion energy           2.133370645056 Eh    ::

    * Orbital Energies and Occupations

         #    Occupation            Energy/Eh            Energy/eV
      -------------------------------------------------------------
         1        2.0000           -0.7321790             -19.9236
       ...           ...                  ...                  ...
        99        2.0000           -0.4197879             -11.4230
       100        2.0000           -0.4196469             -11.4192
       101        2.0000           -0.4170199             -11.3477
       102        2.0000           -0.4115843             -11.1998
       103        2.0000           -0.4070753             -11.0771
       104        2.0000           -0.3937739             -10.7151
       105        2.0000           -0.3937371             -10.7141
       106        2.0000           -0.3896546             -10.6030
       107        1.9827           -0.3806462             -10.3579
       108        1.8294           -0.3783100             -10.2943
       109        1.6763           -0.3775078             -10.2725
       110        1.5116           -0.3768520             -10.2547
       111        1.0000           -0.2844165              -7.7394 (HOMO)
       112        0.0000           -0.2598884              -7.0719 (LUMO)
       113        0.0000           -0.2592036              -7.0533
       114                         -0.2524786              -6.8703
       115                         -0.2453328              -6.6758
       116                         -0.2377922              -6.4707
       117                         -0.2377436              -6.4693
       118                         -0.2281595              -6.2085
       119                         -0.2200040              -5.9866
       120                         -0.2060442              -5.6067
       121                         -0.2040401              -5.5522
       122                         -0.2026530              -5.5145
       ...                                ...                  ...
       214                          0.7299120              19.8619
      -------------------------------------------------------------
                  HL-Gap            0.0245281 Eh            0.6674 eV

     #   Z          covCN         q      C6AA      α(0)
     1   8 O        0.857    -0.498    23.739     6.532
     2   6 C        2.834     0.181    24.125     8.049
     3   6 C        2.976    -0.036    28.899     8.818
     4   6 C        2.922    -0.034    28.851     8.808
     5   6 C        2.915    -0.038    28.954     8.824
     6   6 C        2.919    -0.036    28.896     8.815
     7   6 C        2.916    -0.060    29.479     8.903
     8   6 C        2.880     0.134    25.071     8.208
     9   8 O        1.710    -0.252    18.169     5.755
    10   6 C        2.875     0.126    25.239     8.236
    11   6 C        2.919    -0.071    29.778     8.949
    12   6 C        2.972    -0.009    28.239     8.717
    13   6 C        2.970     0.013    27.719     8.636
    14   6 C        2.926    -0.051    29.264     8.871
    15   6 C        2.909     0.061    26.629     8.462
    16   7 N        2.804    -0.009    21.424     6.875
    17   6 C        3.072     0.048    26.860     8.498
    18   6 C        2.909    -0.041    29.027     8.834
    19   6 C        2.922    -0.030    28.741     8.792
    20   6 C        2.920    -0.031    28.775     8.797
    21   6 C        2.912    -0.027    28.684     8.782
    22   6 C        3.065    -0.010    28.198     8.708
    23   6 C        3.064    -0.010    28.204     8.709
    24   6 C        2.912    -0.027    28.686     8.783
    25   6 C        2.920    -0.031    28.773     8.796
    26   6 C        2.922    -0.029    28.736     8.791
    27   6 C        2.909    -0.041    29.017     8.833
    28   6 C        3.074     0.047    26.860     8.497
    29   6 C        2.921    -0.072    29.791     8.951
    30   6 C        2.909     0.062    26.620     8.460
    31   7 N        2.804    -0.009    21.421     6.874
    32   6 C        3.073     0.047    26.861     8.498
    33   6 C        2.909    -0.041    29.015     8.833
    34   6 C        2.922    -0.029    28.735     8.791
    35   6 C        2.920    -0.031    28.774     8.796
    36   6 C        2.912    -0.027    28.688     8.783
    37   6 C        3.064    -0.010    28.203     8.709
    38   6 C        3.065    -0.010    28.197     8.707
    39   6 C        2.912    -0.027    28.685     8.782
    40   6 C        2.920    -0.031    28.775     8.797
    41   6 C        2.922    -0.030    28.741     8.792
    42   6 C        2.909    -0.041    29.028     8.835
    43   6 C        3.071     0.048    26.862     8.498
    44   6 C        2.926    -0.051    29.273     8.873
    45   6 C        2.918    -0.044    29.089     8.844
    46   6 C        2.917    -0.040    28.984     8.828
    47   6 C        2.974    -0.047    29.157     8.857
    48   1 H        0.926     0.038     2.473     2.459
    49   1 H        0.926     0.041     2.436     2.441
    50   1 H        0.926     0.045     2.377     2.411
    51   1 H        0.926     0.049     2.327     2.386
    52   1 H        0.926     0.044     2.399     2.422
    53   1 H        0.926     0.050     2.314     2.379
    54   1 H        0.926     0.045     2.382     2.414
    55   1 H        0.926     0.044     2.398     2.422
    56   1 H        0.926     0.043     2.409     2.427
    57   1 H        0.926     0.045     2.380     2.412
    58   1 H        0.926     0.046     2.374     2.410
    59   1 H        0.926     0.043     2.414     2.430
    60   1 H        0.926     0.042     2.419     2.432
    61   1 H        0.926     0.043     2.403     2.424
    62   1 H        0.926     0.054     2.269     2.355
    63   1 H        0.926     0.044     2.401     2.423
    64   1 H        0.926     0.042     2.420     2.433
    65   1 H        0.926     0.043     2.414     2.430
    66   1 H        0.926     0.046     2.374     2.410
    67   1 H        0.926     0.045     2.380     2.412
    68   1 H        0.926     0.043     2.409     2.427
    69   1 H        0.926     0.044     2.398     2.422
    70   1 H        0.926     0.045     2.380     2.412
    71   1 H        0.926     0.051     2.307     2.375
    72   1 H        0.926     0.039     2.468     2.456
    73   1 H        0.926     0.031     2.566     2.505

molecular dipole:
                 x           y           z       tot (Debye)
 q only:       -6.917      -2.514       0.590
   full:       -6.691      -2.465       0.581      18.184

 projected vibrational frequencies (cm⁻¹)
eigval :       -0.00    -0.00    -0.00     0.00     0.00     0.00
eigval :       15.21    17.77    19.89    22.75    24.31    25.15
eigval :       46.10    67.65    71.65    77.31    97.03   102.24
eigval :      114.56   131.01   134.30   137.94   142.85   149.71
eigval :      153.82   208.42   210.68   234.17   236.63   250.55
eigval :      257.78   259.99   267.98   268.55   275.02   304.54
eigval :      312.38   322.75   361.81   367.25   382.96   391.05
eigval :      391.83   405.51   406.63   417.91   419.61   433.48
eigval :      434.30   449.72   473.78   494.07   502.39   506.83
eigval :      512.29   513.42   514.83   533.77   534.33   540.80
eigval :      547.81   551.00   559.79   582.83   584.31   590.01
eigval :      595.71   617.57   623.30   627.94   639.01   645.68
eigval :      658.66   662.45   673.42   674.41   689.63   699.80
eigval :      709.02   710.51   746.89   750.99   764.63   765.93
eigval :      766.20   767.42   768.39   774.23   776.13   799.52
eigval :      814.42   815.37   826.65   845.51   852.26   863.50
eigval :      869.81   871.65   875.33   879.35   884.83   890.28
eigval :      895.54   897.55   904.66   905.38   905.94   906.54
eigval :      907.25   909.92   910.89   919.36   920.00   921.10
eigval :      921.37   965.16   995.17  1009.37  1010.20  1030.49
eigval :     1064.88  1065.79  1067.71  1069.37  1075.24  1076.93
eigval :     1098.71  1114.75  1117.54  1124.20  1136.70  1136.95
eigval :     1159.05  1164.84  1168.71  1173.04  1174.51  1175.27
eigval :     1175.63  1185.83  1192.46  1214.63  1220.86  1224.22
eigval :     1225.90  1225.97  1231.83  1235.35  1247.92  1252.37
eigval :     1271.15  1277.84  1279.99  1285.26  1289.34  1310.98
eigval :     1327.66  1327.92  1330.98  1334.59  1343.37  1357.93
eigval :     1359.91  1365.94  1394.15  1397.13  1403.88  1405.30
eigval :     1410.35  1424.79  1430.24  1433.89  1439.18  1454.41
eigval :     1456.70  1459.51  1463.32  1471.61  1476.78  1477.07
eigval :     1488.04  1510.26  1543.63  1549.94  1560.12  1560.57
eigval :     1571.45  1571.75  1574.06  1577.48  1579.90  1594.33
eigval :     1600.09  3078.09  3078.48  3081.43  3081.99  3082.23
eigval :     3082.50  3086.95  3087.35  3087.74  3088.58  3088.72
eigval :     3090.04  3092.76  3094.60  3094.88  3096.50  3096.81
eigval :     3099.89  3100.33  3101.31  3101.41  3101.93  3102.24
eigval :     3110.88  3113.79  3116.59

   temp. (K)  partition function   enthalpy   heat capacity  entropy
                                   cal/mol     cal/K/mol   cal/K/mol   J/K/mol
 298.15  VIB  0.242E+16            20696.311    134.979    125.878
         ROT  0.915E+08              888.752      2.981     39.412
         INT  0.222E+24            21585.063    137.959    165.289
         TR   0.143E+29             1481.254      4.968     45.052
         TOT                       23066.3169   142.9275   210.3412   880.0675

       T/K    H(0)-H(T)+PV         H(T)/Eh          T*S/Eh         G(T)/Eh
   ------------------------------------------------------------------------
    298.15    0.367585E-01    0.582096E+00    0.999399E-01    0.482156E+00
   ------------------------------------------------------------------------

         :::::::::::::::::::::::::::::::::::::::::::::::::::::
         ::                  THERMODYNAMIC                  ::
         :::::::::::::::::::::::::::::::::::::::::::::::::::::
         :: total free energy        -118.893194213313 Eh   ::
         ::.................................................::
         :: total energy             -119.375349881356 Eh   ::
         :: zero point energy           0.545337039143 Eh   ::
         :: G(RRHO) w/o ZPVE           -0.063181371099 Eh   ::
         :: G(RRHO) contrib.            0.482155668043 Eh   ::
         :::::::::::::::::::::::::::::::::::::::::::::::::::::

           -------------------------------------------------
          | TOTAL ENERGY             -119.375349881356 Eh   |
          | TOTAL ENTHALPY           -118.793254326479 Eh   |
          | TOTAL FREE ENERGY        -118.893194213313 Eh   |
          | GRADIENT NORM               0.000092595921 Eh/α |
          | HOMO-LUMO GAP               0.667444313450 eV   |
           -------------------------------------------------

 * finished run on 2025/09/10 at 14:55:36.156
