   * xtb version 6.7.1 (edcfbbe) compiled by 'albert@albert-system' on 2024-07-22

   ID    Z sym.   atoms
    1    7 N      1, 13
    2    6 C      2-12, 14-39
    3    1 H      40-63

          program call               : xtb data2507/gas/BPCN-Cz2Ph/BPCN-Cz2Ph_gas_S0_crest.xyz --gfn 2 --ohess vtight --parallel 40 --molden --ceasefiles --namespace data2507/gas/BPCN-Cz2Ph/BPCN-Cz2Ph_gas_S0_finalOpt
          :  Hamiltonian                  GFN2-xTB          :
 * total energy  :   -97.2985865 Eh     change       -0.2000078E-08 Eh
 * total energy  :   -97.2985074 Eh     change        0.7914864E-04 Eh
 * total energy  :   -97.2985885 Eh     change       -0.8106257E-04 Eh
 * total energy  :   -97.2985961 Eh     change       -0.7607564E-05 Eh
 * total energy  :   -97.2985998 Eh     change       -0.3754446E-05 Eh
 * total energy  :   -97.2986012 Eh     change       -0.1383144E-05 Eh
 * total energy  :   -97.2986022 Eh     change       -0.1020915E-05 Eh
 * total energy  :   -97.2986049 Eh     change       -0.2707471E-05 Eh
 * total energy  :   -97.2986073 Eh     change       -0.2372154E-05 Eh
 * total energy  :   -97.2986082 Eh     change       -0.9078744E-06 Eh
 * total energy  :   -97.2986087 Eh     change       -0.4405200E-06 Eh
 * total energy  :   -97.2986092 Eh     change       -0.5768261E-06 Eh
 * total energy  :   -97.2986098 Eh     change       -0.5768132E-06 Eh
 * total energy  :   -97.2986101 Eh     change       -0.3344762E-06 Eh
 * total energy  :   -97.2986105 Eh     change       -0.3508932E-06 Eh
 * total energy  :   -97.2986111 Eh     change       -0.6571439E-06 Eh
 * total energy  :   -97.2986117 Eh     change       -0.5093061E-06 Eh
 * total energy  :   -97.2986118 Eh     change       -0.1070260E-06 Eh
 * total energy  :   -97.2986118 Eh     change       -0.4697361E-07 Eh
   *** GEOMETRY OPTIMIZATION CONVERGED AFTER 19 ITERATIONS ***

 final structure:
================
63
 xtb: 6.7.1 (edcfbbe)
N            5.77755776797781        2.80818530647043        0.03488155884950
C            6.17300371554998        1.73209813668639       -0.00227955163778
C            6.71784519933550        0.42719989271623       -0.02184290324815
C            8.10662353304168        0.29178515017696       -0.01530832369294
C            8.67831767320525       -0.96453880524251        0.01827746855704
C            7.86825087650511       -2.08999057785879        0.05486268676530
C            6.49155787641824       -1.95999559661822        0.05137519625490
C            5.88973262721146       -0.70629593738474        0.00510655278122
C            4.42691891702351       -0.57652415543111       -0.01153591322505
C            3.64556168091841       -1.31893560620449        0.87183270041220
C            2.27204586980879       -1.19158154995135        0.87774182766256
C            1.64573310687129       -0.32881490200027       -0.01900340363497
N            0.25456455350623       -0.19396255338773       -0.01561991599050
C           -0.66124641235836       -1.22802401017736       -0.02081769344973
C           -0.45529315291152       -2.59864409370007       -0.08439162427661
C           -1.56335963327790       -3.42085907308624       -0.09995156570837
C           -2.86891735751409       -2.91261263289919       -0.07080207710093
C           -4.01658057134663       -3.83203911645101       -0.08503301765908
C           -5.13776081942739       -3.55757445208102       -0.86500586705299
C           -6.21617857774119       -4.42215958395368       -0.87828361357543
C           -6.19568082836715       -5.57390518150518       -0.10969777407380
C           -5.08768512757478       -5.85602686953623        0.67151619528060
C           -4.00676607968460       -4.99447017335426        0.68264261632277
C           -3.06904733983997       -1.53839943141828       -0.04015191090011
C           -1.97014159394105       -0.69459808739597       -0.01639363782458
C           -1.82777899927211        0.73557783593331        0.00280244337004
C           -2.73924713574977        1.77909596922081        0.03637205897736
C           -2.27171246415779        3.08657207725694        0.06774346700067
C           -3.21562911233130        4.21400853858154        0.09531411932883
C           -2.98154430631765        5.35712962146414       -0.66571898719101
C           -3.87121469739636        6.41480369156288       -0.64109587645491
C           -5.00811831053980        6.35114990848363        0.14693201563830
C           -5.25051656935248        5.22061004688866        0.90898421212524
C           -4.36386049970824        4.16051138455263        0.88238285353713
C           -0.89113301824359        3.32752344180810        0.08613839097985
C            0.03372319382122        2.30386221975381        0.05952185187500
C           -0.44002282955685        1.00127991194111       -0.00320887445708
C            2.41979750207614        0.39974057067243       -0.91925856314433
C            3.79396853351487        0.28099589092526       -0.90901211903405
H            8.72274656143744        1.17895770881346       -0.03219931764067
H            9.75270308892564       -1.06782802263202        0.01961161109915
H            8.31361423400658       -3.07331426813604        0.08332806029818
H            5.86603231862884       -2.84047869419456        0.06436133823366
H            4.12430206970468       -1.97473796534926        1.58451394362558
H            1.67748601006442       -1.74217116853333        1.59106974177700
H            0.53962642543990       -3.01486299397156       -0.13580511835532
H           -1.42282575028426       -4.48992288829299       -0.16264414334550
H           -5.15283537498844       -2.66951917623766       -1.48028268530360
H           -7.07621729189376       -4.19845907253790       -1.49304535847195
H           -7.03917805157238       -6.24844913618782       -0.11944004349855
H           -5.06743486300844       -6.75089938683409        1.27692435502869
H           -3.15265346111719       -5.21191683310134        1.30782102370885
H           -4.06834962639534       -1.13065460713643       -0.01731089078371
H           -3.79940506994936        1.57586337366435        0.02135942738930
H           -2.10508729339382        5.40667846964649       -1.29561934683543
H           -3.67840385483386        7.29266010773889       -1.24094673763462
H           -5.70176904093858        7.17883515239266        0.16739823768144
H           -6.13370077938957        5.16655530593505        1.52929681254120
H           -4.54974463884074        3.28880460607441        1.49318288542522
H           -0.54168962588445        4.34730435245567        0.14936886468664
H            1.09122507353536        2.51640437722433        0.10230796409157
H            1.93676808395689        1.04674240636054       -1.63535518379260
H            4.38055795461520        0.83963413838210       -1.62297731321124

          :  Hamiltonian                  GFN2-xTB          :
         :: gradient norm              0.000024765044 Eh/a0 ::
         :: HOMO-LUMO gap              2.156936760510 eV    ::
         :: SCC energy               -99.215741770059 Eh    ::
         :: -> dispersion             -0.083030048634 Eh    ::
         :: repulsion energy           1.917129956171 Eh    ::

    * Orbital Energies and Occupations

         #    Occupation            Energy/Eh            Energy/eV
      -------------------------------------------------------------
         1        2.0000           -0.6777849             -18.4435
       ...           ...                  ...                  ...
        79        2.0000           -0.4206135             -11.4455
        80        2.0000           -0.4182132             -11.3802
        81        2.0000           -0.4165575             -11.3351
        82        2.0000           -0.4148279             -11.2880
        83        2.0000           -0.4113863             -11.1944
        84        2.0000           -0.4076190             -11.0919
        85        2.0000           -0.4066991             -11.0668
        86        2.0000           -0.4004937             -10.8980
        87        2.0000           -0.3985790             -10.8459
        88        2.0000           -0.3959307             -10.7738
        89        2.0000           -0.3882689             -10.5653
        90        2.0000           -0.3753883             -10.2148
        91        2.0000           -0.3580744              -9.7437 (HOMO)
        92                         -0.2788085              -7.5868 (LUMO)
        93                         -0.2586482              -7.0382
        94                         -0.2441239              -6.6430
        95                         -0.2414399              -6.5699
        96                         -0.2386262              -6.4933
        97                         -0.2326164              -6.3298
        98                         -0.2190870              -5.9617
        99                         -0.2184336              -5.9439
       100                         -0.2165214              -5.8918
       101                         -0.2062147              -5.6114
       102                         -0.2027652              -5.5175
       ...                                ...                  ...
       180                          1.1654536              31.7136
      -------------------------------------------------------------
                  HL-Gap            0.0792659 Eh            2.1569 eV

     #   Z          covCN         q      C6AA      α(0)
     1   7 N        0.911    -0.241    26.301     7.417
     2   6 C        1.913     0.114    28.296     8.591
     3   6 C        2.977     0.013    27.717     8.636
     4   6 C        2.929    -0.020    28.510     8.757
     5   6 C        2.918    -0.028    28.698     8.785
     6   6 C        2.918    -0.022    28.566     8.765
     7   6 C        2.924    -0.032    28.788     8.799
     8   6 C        2.981     0.020    27.565     8.612
     9   6 C        2.977     0.005    27.910     8.666
    10   6 C        2.924    -0.032    28.806     8.802
    11   6 C        2.921    -0.043    29.065     8.841
    12   6 C        2.913     0.066    26.515     8.444
    13   7 N        2.802    -0.041    22.033     6.971
    14   6 C        3.075     0.045    26.921     8.507
    15   6 C        2.908    -0.052    29.284     8.873
    16   6 C        2.929    -0.038    28.946     8.823
    17   6 C        2.977    -0.001    28.040     8.686
    18   6 C        2.977     0.011    27.771     8.644
    19   6 C        2.925    -0.035    28.863     8.810
    20   6 C        2.918    -0.030    28.748     8.792
    21   6 C        2.920    -0.032    28.802     8.801
    22   6 C        2.918    -0.030    28.754     8.793
    23   6 C        2.925    -0.035    28.869     8.811
    24   6 C        2.918    -0.037    28.930     8.820
    25   6 C        3.065    -0.017    28.360     8.733
    26   6 C        3.065    -0.017    28.369     8.734
    27   6 C        2.918    -0.038    28.935     8.821
    28   6 C        2.977    -0.000    28.026     8.684
    29   6 C        2.977     0.011    27.769     8.644
    30   6 C        2.925    -0.035    28.863     8.810
    31   6 C        2.918    -0.030    28.749     8.793
    32   6 C        2.920    -0.032    28.801     8.801
    33   6 C        2.918    -0.030    28.751     8.793
    34   6 C        2.925    -0.035    28.864     8.810
    35   6 C        2.929    -0.037    28.918     8.819
    36   6 C        2.908    -0.051    29.264     8.870
    37   6 C        3.075     0.045    26.917     8.506
    38   6 C        2.921    -0.041    29.016     8.833
    39   6 C        2.924    -0.028    28.701     8.786
    40   1 H        0.926     0.042     2.416     2.431
    41   1 H        0.926     0.040     2.451     2.448
    42   1 H        0.926     0.040     2.453     2.449
    43   1 H        0.926     0.040     2.455     2.450
    44   1 H        0.926     0.037     2.483     2.464
    45   1 H        0.926     0.044     2.396     2.421
    46   1 H        0.926     0.027     2.633     2.537
    47   1 H        0.926     0.032     2.561     2.503
    48   1 H        0.926     0.030     2.584     2.514
    49   1 H        0.926     0.028     2.615     2.529
    50   1 H        0.926     0.028     2.621     2.532
    51   1 H        0.926     0.027     2.623     2.532
    52   1 H        0.926     0.029     2.601     2.522
    53   1 H        0.926     0.034     2.527     2.486
    54   1 H        0.926     0.034     2.532     2.488
    55   1 H        0.926     0.030     2.582     2.513
    56   1 H        0.926     0.028     2.615     2.529
    57   1 H        0.926     0.027     2.623     2.533
    58   1 H        0.926     0.028     2.620     2.531
    59   1 H        0.926     0.030     2.591     2.517
    60   1 H        0.926     0.035     2.515     2.480
    61   1 H        0.926     0.033     2.543     2.494
    62   1 H        0.926     0.047     2.357     2.401
    63   1 H        0.926     0.041     2.440     2.443

molecular dipole:
                 x           y           z       tot (Debye)
 q only:        0.701      -1.061      -0.050
   full:        0.986      -1.494      -0.049       4.553

 projected vibrational frequencies (cm⁻¹)
eigval :       -0.00    -0.00     0.00     0.00     0.00     0.00
eigval :       15.80    20.04    20.98    38.65    38.96    40.66
eigval :       54.92    55.68    64.83    83.74    88.63    97.62
eigval :      119.71   131.66   134.90   148.83   155.61   184.01
eigval :      195.37   217.06   248.51   259.64   267.38   278.15
eigval :      312.98   319.42   353.83   366.30   372.47   372.91
eigval :      384.41   387.06   392.92   398.94   408.65   430.76
eigval :      437.96   473.25   476.61   491.79   499.61   505.90
eigval :      529.67   547.92   556.41   565.80   571.57   585.66
eigval :      587.11   592.82   600.60   609.02   623.74   624.28
eigval :      642.98   669.26   672.53   683.20   686.57   706.42
eigval :      708.03   711.88   740.69   748.16   758.79   759.77
eigval :      778.72   785.36   819.62   826.03   830.49   861.46
eigval :      871.32   874.24   876.09   881.46   882.20   886.28
eigval :      901.01   901.53   907.04   910.93   914.22   919.18
eigval :      926.49   928.60   930.58   931.33   931.90   932.05
eigval :      932.25   935.14   972.35   981.85   998.71  1027.88
eigval :     1044.81  1072.78  1072.94  1086.76  1087.32  1091.81
eigval :     1122.16  1122.25  1132.54  1134.74  1140.09  1160.71
eigval :     1180.85  1182.61  1182.81  1184.71  1199.15  1201.67
eigval :     1207.25  1220.96  1221.98  1225.58  1243.22  1246.90
eigval :     1267.49  1282.02  1282.23  1282.85  1288.15  1305.91
eigval :     1308.41  1314.76  1316.72  1319.54  1320.86  1346.69
eigval :     1359.15  1378.31  1402.44  1410.82  1425.94  1431.01
eigval :     1433.77  1436.46  1458.29  1462.09  1468.62  1495.07
eigval :     1497.99  1502.12  1554.09  1561.47  1567.64  1575.04
eigval :     1582.93  1583.38  1584.48  1594.20  1596.15  1599.02
eigval :     1603.74  1615.23  2368.97  3068.93  3069.07  3070.54
eigval :     3070.77  3078.02  3079.09  3079.24  3079.76  3081.51
eigval :     3082.11  3082.84  3084.13  3085.10  3087.78  3088.13
eigval :     3090.40  3090.52  3090.72  3091.49  3091.74  3094.90
eigval :     3096.23  3100.30  3101.47

   temp. (K)  partition function   enthalpy   heat capacity  entropy
                                   cal/mol     cal/K/mol   cal/K/mol   J/K/mol
 298.15  VIB  0.251E+14            17638.937    112.461    109.202
         ROT  0.684E+08              888.752      2.981     38.832
         INT  0.171E+22            18527.689    115.442    148.033
         TR   0.107E+29             1481.254      4.968     44.475
         TOT                       20008.9428   120.4100   192.5081   805.4538

       T/K    H(0)-H(T)+PV         H(T)/Eh          T*S/Eh         G(T)/Eh
   ------------------------------------------------------------------------
    298.15    0.318863E-01    0.514566E+00    0.914668E-01    0.423099E+00
   ------------------------------------------------------------------------

         :::::::::::::::::::::::::::::::::::::::::::::::::::::
         ::                  THERMODYNAMIC                  ::
         :::::::::::::::::::::::::::::::::::::::::::::::::::::
         :: total free energy         -96.875512856747 Eh   ::
         ::.................................................::
         :: total energy              -97.298611813894 Eh   ::
         :: zero point energy           0.482679479607 Eh   ::
         :: G(RRHO) w/o ZPVE           -0.059580522460 Eh   ::
         :: G(RRHO) contrib.            0.423098957147 Eh   ::
         :::::::::::::::::::::::::::::::::::::::::::::::::::::

           -------------------------------------------------
          | TOTAL ENERGY              -97.298611813894 Eh   |
          | TOTAL ENTHALPY            -96.784046054316 Eh   |
          | TOTAL FREE ENERGY         -96.875512856747 Eh   |
          | GRADIENT NORM               0.000024660868 Eh/α |
          | HOMO-LUMO GAP               2.156935494428 eV   |
           -------------------------------------------------

 * finished run on 2025/08/25 at 08:27:20.698
