   * xtb version 6.7.1 (edcfbbe) compiled by 'albert@albert-system' on 2024-07-22

   ID    Z sym.   atoms
    1    7 N      1, 13
    2    6 C      2-12, 14-39
    3    1 H      40-63

          program call               : xtb data2507/gas/BPCN-Cz2Ph/BPCN-Cz2Ph_gas_S0_finalOpt.xtbopt.xyz --gfn 2 --spinpol --tblite --uhf 2 --ohess vtight --parallel 40 --molden --ceasefiles --namespace data2507/gas/BPCN-Cz2Ph/BPCN-Cz2Ph_gas_T1_preOpt
 * total energy  :   -97.1955543 Eh     change       -0.8803880E-08 Eh
 * total energy  :   -97.1991358 Eh     change       -0.3581569E-02 Eh
 * total energy  :   -97.2016641 Eh     change       -0.2528223E-02 Eh
 * total energy  :   -97.2024966 Eh     change       -0.8325181E-03 Eh
 * total energy  :   -97.2032193 Eh     change       -0.7227018E-03 Eh
 * total energy  :   -97.2039289 Eh     change       -0.7096170E-03 Eh
 * total energy  :   -97.2042733 Eh     change       -0.3444487E-03 Eh
 * total energy  :   -97.2046317 Eh     change       -0.3583073E-03 Eh
 * total energy  :   -97.2048557 Eh     change       -0.2240292E-03 Eh
 * total energy  :   -97.2049880 Eh     change       -0.1322720E-03 Eh
 * total energy  :   -97.2054345 Eh     change       -0.1928688E-05 Eh
 * total energy  :   -97.2054359 Eh     change       -0.1439111E-05 Eh
 * total energy  :   -97.2054370 Eh     change       -0.1116063E-05 Eh
 * total energy  :   -97.2054379 Eh     change       -0.9038135E-06 Eh
 * total energy  :   -97.2054387 Eh     change       -0.7984774E-06 Eh
 * total energy  :   -97.2054391 Eh     change       -0.4117473E-06 Eh
 * total energy  :   -97.2054393 Eh     change       -0.1227150E-06 Eh
 * total energy  :   -97.2054392 Eh     change        0.3910064E-07 Eh
 * total energy  :   -97.2054393 Eh     change       -0.7166973E-07 Eh
   *** GEOMETRY OPTIMIZATION CONVERGED AFTER 41 ITERATIONS ***

 final structure:
================
63
 xtb: 6.7.1 (edcfbbe)
N            6.00347245904389        2.82835564026708       -0.77043423015700
C            6.28526693973129        1.72519725161655       -0.57170020687480
C            6.73978195684453        0.43180955662159       -0.31096005961561
C            8.12543559511577        0.25269313034394       -0.34016172887153
C            8.70222743272402       -0.93676300277375        0.03711880014958
C            7.87774661843141       -1.99465089739449        0.47962347032336
C            6.52419201557659       -1.85111549431274        0.51753759595321
C            5.86712177828612       -0.65982457720752        0.09104133613268
C            4.46321220253964       -0.57448932979822        0.03854803876067
C            3.61602458861298       -1.43601252117774        0.81899524489407
C            2.26331794326612       -1.32539805431990        0.80149838884929
C            1.62000721668696       -0.34752038085808        0.00099111180668
N            0.24832269126505       -0.21370891732199        0.00361291448497
C           -0.67330585842741       -1.24490754759614       -0.01340602026726
C           -0.47438558554885       -2.61618316882474       -0.11041470014012
C           -1.58481924842236       -3.43509467898069       -0.13490399024332
C           -2.89055273859660       -2.92265072332510       -0.08867729473227
C           -4.04058161197099       -3.83349218764169       -0.11049195898993
C           -5.18027537581308       -3.52573231601460       -0.85285829382036
C           -6.26134044832965       -4.38606053172626       -0.87309126047277
C           -6.22786528514828       -5.56550620470992       -0.14737940959184
C           -5.10276309996913       -5.88062583187352        0.59673170182500
C           -4.01746580275811       -5.02556093907325        0.61286185795738
C           -3.08453483759904       -1.54331866647156       -0.04062473550361
C           -1.98499881490218       -0.70684388074582       -0.00687233534888
C           -1.83765206308170        0.72423236877743        0.01654582687209
C           -2.74369929522029        1.76744470321733        0.05070889766996
C           -2.27150055129691        3.07809106585922        0.09595628756196
C           -3.21121564346156        4.20476850329000        0.11595254304380
C           -2.94484081304370        5.36485207314158       -0.61076209192050
C           -3.83245069681029        6.42372291387898       -0.59709403033569
C           -4.99783153911903        6.34735733396502        0.14788575828866
C           -5.27150263238990        5.20181788184012        0.87705574870518
C           -4.38930490346286        4.13843426046563        0.85913785109906
C           -0.88862987207772        3.31346225037330        0.13911414893617
C            0.03181478771821        2.28567549901850        0.11408510781392
C           -0.44442107853723        0.98401926853887        0.02022067582292
C            2.43036260103146        0.48952518982215       -0.80751562667212
C            3.78206815509169        0.37328842788027       -0.79893570873536
H            8.74268020342626        1.08400868281149       -0.65238097393126
H            9.77341946870526       -1.06109829711844        0.01045770547235
H            8.33275469552819       -2.92689640170814        0.78045622669327
H            5.92002756118287       -2.69185335860336        0.82194422761473
H            4.06921687135539       -2.13821082183558        1.50031911717158
H            1.66071983855367       -1.93143776580164        1.46218831723570
H            0.51634646511076       -3.03574337009547       -0.18906973749483
H           -1.44772666876142       -4.50191455455794       -0.22572969877032
H           -5.20597273578317       -2.61791400907330       -1.43788966212562
H           -7.13386084707036       -4.13763761072630       -1.45969115719263
H           -7.07419530356146       -6.23596945537927       -0.16199470109907
H           -5.07268673419585       -6.79674391668717        1.16846540948069
H           -3.15108601758770       -5.26875120984700        1.21058138319038
H           -4.08227878746785       -1.13255212437761       -0.01363694145844
H           -3.80436617075725        1.56899952017258        0.02544666767910
H           -2.04714559055474        5.42411196446304       -1.20856178657389
H           -3.61578571245210        7.31277778189929       -1.17114463764206
H           -5.68912124663050        7.17680926202641        0.16073560897499
H           -6.17597483142606        5.13887159362790        1.46453477992112
H           -4.59978149377369        3.25674223971599        1.44691338826471
H           -0.53590457833634        4.32965994799262        0.22643670233563
H            1.08753900305746        2.49479779922951        0.18678841069819
H            1.94884231468328        1.17088448552960       -1.49301236653635
H            4.36141384074046        0.96724357757829       -1.48610930140460

 projected vibrational frequencies (cm⁻¹)
eigval :       -0.00    -0.00     0.00     0.00     0.00     0.00
eigval :       13.88    19.63    20.06    38.04    38.93    41.00
eigval :       52.63    56.31    66.12    79.19    91.70   103.46
eigval :      118.60   136.59   143.99   154.10   175.38   178.54
eigval :      186.41   226.42   239.67   246.47   269.15   281.92
eigval :      306.87   319.86   342.19   345.61   370.89   371.81
eigval :      378.13   384.22   390.86   393.88   395.49   411.68
eigval :      433.46   441.85   467.76   474.46   486.93   496.28
eigval :      500.01   506.01   553.50   563.15   572.16   575.47
eigval :      583.95   586.69   591.62   600.15   618.24   623.11
eigval :      633.12   639.42   659.30   667.64   671.24   686.34
eigval :      693.43   704.38   731.66   735.70   737.40   757.43
eigval :      757.73   778.60   792.85   809.16   825.82   829.19
eigval :      838.74   858.46   869.69   869.94   878.20   878.40
eigval :      896.61   897.06   899.43   902.02   903.27   904.08
eigval :      905.52   908.56   922.03   926.09   930.22   930.42
eigval :      931.84   932.11   949.51   970.47   977.12   981.97
eigval :     1024.10  1059.95  1068.32  1069.05  1085.71  1086.40
eigval :     1110.20  1122.43  1122.50  1127.63  1139.91  1147.16
eigval :     1165.37  1181.74  1182.20  1183.01  1199.52  1199.89
eigval :     1206.23  1216.31  1217.50  1221.77  1230.49  1239.54
eigval :     1244.18  1265.90  1281.07  1281.38  1285.08  1289.73
eigval :     1307.78  1319.86  1320.24  1322.53  1334.73  1344.61
eigval :     1354.42  1354.86  1358.17  1385.31  1403.53  1411.42
eigval :     1420.79  1429.30  1429.77  1444.86  1447.18  1453.41
eigval :     1467.27  1485.44  1490.16  1498.82  1538.49  1544.81
eigval :     1545.97  1553.11  1571.23  1576.90  1577.12  1585.10
eigval :     1596.50  1599.38  2257.11  3071.20  3073.21  3073.47
eigval :     3074.40  3075.52  3076.21  3077.91  3082.63  3082.90
eigval :     3084.20  3086.26  3087.12  3090.62  3091.29  3091.83
eigval :     3093.75  3094.15  3094.43  3095.07  3099.27  3101.63
eigval :     3104.22  3104.68  3121.46

   temp. (K)  partition function   enthalpy   heat capacity  entropy
                                   cal/mol     cal/K/mol   cal/K/mol   J/K/mol
 298.15  VIB  0.343E+14            17884.410    114.271    110.382
         ROT  0.689E+08              888.752      2.981     38.849
         INT  0.236E+22            18773.163    117.252    149.231
         TR   0.107E+29             1481.254      4.968     44.475
         TOT                       20254.4165   122.2205   193.7058   810.4652

       T/K    H(0)-H(T)+PV         H(T)/Eh          T*S/Eh         G(T)/Eh
   ------------------------------------------------------------------------
    298.15    0.322775E-01    0.511031E+00    0.920359E-01    0.418995E+00
   ------------------------------------------------------------------------

         :::::::::::::::::::::::::::::::::::::::::::::::::::::
         ::                  THERMODYNAMIC                  ::
         :::::::::::::::::::::::::::::::::::::::::::::::::::::
         :: total free energy         -96.786444155611 Eh   ::
         ::.................................................::
         :: total energy              -97.205439308498 Eh   ::
         :: zero point energy           0.478753574485 Eh   ::
         :: G(RRHO) w/o ZPVE           -0.059758421597 Eh   ::
         :: G(RRHO) contrib.            0.418995152888 Eh   ::
         :::::::::::::::::::::::::::::::::::::::::::::::::::::

           -------------------------------------------------
          | TOTAL ENERGY              -97.205439308498 Eh   |
          | TOTAL ENTHALPY            -96.694408266767 Eh   |
          | TOTAL FREE ENERGY         -96.786444155611 Eh   |
          | GRADIENT NORM               0.000069317153 Eh/α |
           -------------------------------------------------

 * finished run on 2025/08/25 at 08:27:26.262
