   * xtb version 6.7.1 (edcfbbe) compiled by 'albert@albert-system' on 2024-07-22

   ID    Z sym.   atoms
    1    7 N      1, 13
    2    6 C      2-12, 14-39
    3    1 H      40-63

          program call               : xtb data2507/gas/BPCN-Cz2Ph/BPCN-Cz2Ph_gas_T1_crest.xyz --gfn 2 --spinpol --tblite --uhf 2 --ohess vtight --parallel 40 --molden --ceasefiles --namespace data2507/gas/BPCN-Cz2Ph/BPCN-Cz2Ph_gas_T1_finalOpt
 * total energy  :   -97.2053672 Eh     change       -0.1100209E-07 Eh
 * total energy  :   -97.2053791 Eh     change       -0.1181920E-04 Eh
 * total energy  :   -97.2054129 Eh     change       -0.3379417E-04 Eh
 * total energy  :   -97.2054173 Eh     change       -0.4442972E-05 Eh
 * total energy  :   -97.2054202 Eh     change       -0.2911705E-05 Eh
 * total energy  :   -97.2054234 Eh     change       -0.3157240E-05 Eh
 * total energy  :   -97.2054275 Eh     change       -0.4145917E-05 Eh
 * total energy  :   -97.2054298 Eh     change       -0.2277387E-05 Eh
 * total energy  :   -97.2054309 Eh     change       -0.1118478E-05 Eh
 * total energy  :   -97.2054321 Eh     change       -0.1199473E-05 Eh
 * total energy  :   -97.2054360 Eh     change       -0.4160089E-06 Eh
 * total energy  :   -97.2054362 Eh     change       -0.2222912E-06 Eh
 * total energy  :   -97.2054364 Eh     change       -0.1779518E-06 Eh
 * total energy  :   -97.2054368 Eh     change       -0.3941762E-06 Eh
 * total energy  :   -97.2054369 Eh     change       -0.1717099E-06 Eh
 * total energy  :   -97.2054373 Eh     change       -0.3682615E-06 Eh
 * total energy  :   -97.2054375 Eh     change       -0.1483376E-06 Eh
 * total energy  :   -97.2054374 Eh     change        0.1922497E-07 Eh
 * total energy  :   -97.2054375 Eh     change       -0.6249138E-07 Eh
   *** GEOMETRY OPTIMIZATION CONVERGED AFTER 23 ITERATIONS ***

 final structure:
================
63
 xtb: 6.7.1 (edcfbbe)
N            6.04321848596650        2.80791564831119       -0.70688661204578
C            6.30946001700671        1.70006195242326       -0.51299423955927
C            6.74643724476465        0.39922445182429       -0.25948802490419
C            8.12974895220890        0.20267594242983       -0.29026850190303
C            8.69174564699564       -0.99654490688163        0.07830821346499
C            7.85402314150729       -2.04714982656414        0.51312349087715
C            6.50245758937581       -1.88663250596937        0.55253565188355
C            5.86005391549343       -0.68388669093283        0.13552591204984
C            4.45717178739021       -0.58183386317053        0.08495974770424
C            3.60123172829833       -1.44215469947525        0.85723174452581
C            2.24939794852805       -1.32304540057944        0.83488690177626
C            1.61527646855939       -0.33596238072038        0.03836916605502
N            0.24379483724235       -0.20022022798188        0.03099367899130
C           -0.67721937320932       -1.23166324929770       -0.00265365723327
C           -0.47665428031172       -2.60186373244727       -0.11081122764852
C           -1.58633159076384       -3.42110424389879       -0.15185568322509
C           -2.89270207693026       -2.90981539565802       -0.11134740058854
C           -4.04178234694806       -3.82118734403392       -0.15195751329565
C           -5.17530403658024       -3.50662818319825       -0.90089623345614
C           -6.25516348887138       -4.36781338724431       -0.93988070852985
C           -6.22664746121796       -5.55500735022957       -0.22670273729622
C           -5.10781356852529       -5.87685980774192        0.52395682554885
C           -4.02369965585572       -5.02085621904083        0.55886573048812
C           -3.08791587823125       -1.53109503991720       -0.05206131096623
C           -1.98916242711489       -0.69438465538906       -0.00200560618740
C           -1.84268314841934        0.73648084625112        0.03470134049458
C           -2.74973511955398        1.77870627024487        0.06954322019018
C           -2.27910820453435        3.08936077029038        0.12945569096372
C           -3.22038355293491        4.21468233367097        0.15055408289048
C           -2.94815944201693        5.38245349569969       -0.56158041865200
C           -3.83782588451245        6.43959904310037       -0.54725285797468
C           -5.01139837147142        6.35378888732442        0.18370922268317
C           -5.29100105154333        5.20059869714081        0.89842610357022
C           -4.40656711142131        4.13911322183422        0.87997210768416
C           -0.89675642369649        3.32518783191563        0.18607196783375
C            0.02467072351546        2.29825593795684        0.16018003221358
C           -0.44962770456316        0.99699055655842        0.05196335642190
C            2.43445042802674        0.50549086594418       -0.75647198937568
C            3.78545531898476        0.38064248069690       -0.74335483910716
H            8.75736024920169        1.02824489271559       -0.59706112213239
H            9.76127520874363       -1.13414398030742        0.05034559896327
H            8.29709267434517       -2.98740918101525        0.80674667094328
H            5.88797422540084       -2.72205956941980        0.85078279059973
H            4.04705247659822       -2.15163024644343        1.53585978035417
H            1.64022942739429       -1.93002630124315        1.48868436160552
H            0.51493574861997       -3.02010124676293       -0.18557092730460
H           -1.44783297250407       -4.48693321897139       -0.25166983413123
H           -5.19685977964898       -2.59263248471669       -1.47639165928717
H           -7.12277454606303       -4.11398446904514       -1.53141044876875
H           -7.07196217206753       -6.22625663431841       -0.25611587251549
H           -5.08169730632441       -6.79908045726317        1.08599080169508
H           -3.16234735295481       -5.26955041154609        1.16156023790748
H           -4.08608832809612       -1.12112165758385       -0.02927315173486
H           -3.80993681576610        1.57952415708817        0.03341973355545
H           -2.04410406595767        5.44932704535209       -1.14888506757092
H           -3.61641039085593        7.33472326350738       -1.10994806485930
H           -5.70444887244711        7.18176207459913        0.19685858027419
H           -6.20193306314396        5.13010321485103        1.47496236225461
H           -4.62196511186412        3.25144393261821        1.45684800908619
H           -0.54542029373907        4.34084371599408        0.28460709870463
H            1.07960165853531        2.50759547588409        0.24307744658281
H            1.96048241947866        1.19767497451013       -1.43633830451896
H            4.37125459967804        0.97936441857219       -1.42078034586399

 projected vibrational frequencies (cm⁻¹)
eigval :       -0.00    -0.00     0.00     0.00     0.00     0.00
eigval :       13.87    19.66    20.77    37.79    38.55    40.79
eigval :       52.55    56.24    66.19    79.11    91.60   102.99
eigval :      118.49   136.23   144.31   154.13   175.08   178.80
eigval :      186.57   226.53   239.62   246.37   269.51   282.00
eigval :      306.83   319.95   342.24   345.40   370.83   371.91
eigval :      378.02   384.11   390.98   393.73   395.37   411.43
eigval :      433.44   441.73   467.65   474.46   486.81   496.23
eigval :      500.03   506.03   553.50   563.09   572.26   575.41
eigval :      584.02   586.65   591.55   600.23   618.22   623.01
eigval :      633.19   639.55   659.18   667.57   671.18   686.31
eigval :      693.33   704.29   731.78   735.46   737.38   757.33
eigval :      757.59   778.68   792.97   808.65   825.74   828.92
eigval :      838.90   858.47   869.52   869.76   878.04   878.23
eigval :      896.65   897.11   899.43   901.95   903.21   904.01
eigval :      905.45   908.83   922.12   925.97   930.09   930.30
eigval :      931.68   931.91   950.36   970.52   977.30   982.21
eigval :     1024.15  1060.41  1068.35  1069.01  1085.60  1086.25
eigval :     1110.02  1122.43  1122.48  1127.46  1139.92  1147.09
eigval :     1164.95  1181.50  1181.95  1182.81  1199.41  1199.50
eigval :     1206.16  1216.18  1217.52  1221.53  1230.69  1239.39
eigval :     1243.92  1265.78  1281.01  1281.34  1284.93  1289.34
eigval :     1307.68  1319.85  1320.24  1322.53  1334.75  1344.61
eigval :     1354.10  1355.17  1358.01  1384.76  1403.43  1411.28
eigval :     1420.73  1429.09  1429.55  1445.20  1447.24  1453.25
eigval :     1467.44  1485.42  1490.14  1498.81  1538.80  1544.82
eigval :     1546.28  1553.03  1571.64  1576.97  1577.24  1584.89
eigval :     1596.60  1599.04  2257.32  3070.83  3072.84  3073.10
eigval :     3074.17  3075.23  3075.97  3077.55  3082.34  3082.60
eigval :     3084.20  3085.79  3086.63  3090.30  3090.89  3091.70
eigval :     3093.36  3093.87  3094.22  3094.79  3098.74  3101.29
eigval :     3104.07  3104.36  3121.98

   temp. (K)  partition function   enthalpy   heat capacity  entropy
                                   cal/mol     cal/K/mol   cal/K/mol   J/K/mol
 298.15  VIB  0.340E+14            17886.149    114.261    110.371
         ROT  0.690E+08              888.752      2.981     38.850
         INT  0.235E+22            18774.901    117.242    149.222
         TR   0.107E+29             1481.254      4.968     44.475
         TOT                       20256.1551   122.2105   193.6966   810.4267

       T/K    H(0)-H(T)+PV         H(T)/Eh          T*S/Eh         G(T)/Eh
   ------------------------------------------------------------------------
    298.15    0.322802E-01    0.511005E+00    0.920315E-01    0.418973E+00
   ------------------------------------------------------------------------

         :::::::::::::::::::::::::::::::::::::::::::::::::::::
         ::                  THERMODYNAMIC                  ::
         :::::::::::::::::::::::::::::::::::::::::::::::::::::
         :: total free energy         -96.786464092613 Eh   ::
         ::.................................................::
         :: total energy              -97.205437490171 Eh   ::
         :: zero point energy           0.478724681754 Eh   ::
         :: G(RRHO) w/o ZPVE           -0.059751284196 Eh   ::
         :: G(RRHO) contrib.            0.418973397559 Eh   ::
         :::::::::::::::::::::::::::::::::::::::::::::::::::::

           -------------------------------------------------
          | TOTAL ENERGY              -97.205437490171 Eh   |
          | TOTAL ENTHALPY            -96.694432570474 Eh   |
          | TOTAL FREE ENERGY         -96.786464092613 Eh   |
          | GRADIENT NORM               0.000075259195 Eh/α |
           -------------------------------------------------

 * finished run on 2025/08/25 at 08:30:21.523
