   * xtb version 6.7.1 (edcfbbe) compiled by 'albert@albert-system' on 2024-07-22

   ID    Z sym.   atoms
    1    7 N      1, 13
    2    6 C      2-12, 14-39
    3    1 H      40-63

          program call               : xtb data2507/gas/BPCN-Cz2Ph/BPCN-Cz2Ph.xyz --gfn 2 --ohess vtight --parallel 40 --molden --ceasefiles --namespace data2507/gas/BPCN-Cz2Ph/BPCN-Cz2Ph_gas_S0_preOpt
          :  Hamiltonian                  GFN2-xTB          :
 * total energy  :   -97.2817792 Eh     change       -0.2312348E-08 Eh
 * total energy  :   -97.2920729 Eh     change       -0.1029369E-01 Eh
 * total energy  :   -97.2941681 Eh     change       -0.2095157E-02 Eh
 * total energy  :   -97.2936770 Eh     change        0.4910765E-03 Eh
 * total energy  :   -97.2952387 Eh     change       -0.1561680E-02 Eh
 * total energy  :   -97.2955198 Eh     change       -0.2811466E-03 Eh
 * total energy  :   -97.2957563 Eh     change       -0.2364085E-03 Eh
 * total energy  :   -97.2959622 Eh     change       -0.2059613E-03 Eh
 * total energy  :   -97.2962265 Eh     change       -0.2642390E-03 Eh
 * total energy  :   -97.2965664 Eh     change       -0.3399797E-03 Eh
 * total energy  :   -97.2986003 Eh     change       -0.7594433E-06 Eh
 * total energy  :   -97.2986010 Eh     change       -0.7334504E-06 Eh
 * total energy  :   -97.2986017 Eh     change       -0.7082093E-06 Eh
 * total energy  :   -97.2986024 Eh     change       -0.6476274E-06 Eh
 * total energy  :   -97.2986029 Eh     change       -0.5794614E-06 Eh
 * total energy  :   -97.2986035 Eh     change       -0.5547859E-06 Eh
 * total energy  :   -97.2986039 Eh     change       -0.4539822E-06 Eh
 * total energy  :   -97.2986044 Eh     change       -0.4168395E-06 Eh
 * total energy  :   -97.2986044 Eh     change       -0.3313360E-08 Eh
   *** GEOMETRY OPTIMIZATION CONVERGED AFTER 68 ITERATIONS ***

 final structure:
================
63
 xtb: 6.7.1 (edcfbbe)
N            5.77135486568679        3.26020960968238        0.14914984062223
C            6.24198431949201        2.21675905056799        0.07546783990245
C            6.87542333934465        0.95394918444577        0.01194618570812
C            8.27009548163130        0.91206652441702        0.01203718726503
C            8.92458712849971       -0.30366210105166        0.00255028958167
C            8.19196139698486       -1.48157016313658        0.00326545502038
C            6.80957683122084       -1.44432976507396        0.00687514881632
C            6.12548530111482       -0.23288203789577        0.00258133220573
C            4.65714096719014       -0.19945441467064       -0.00935225694564
C            3.92800347731790       -1.00885614909733        0.85941549502476
C            2.54906458657776       -0.97073026334960        0.86964579398581
C            1.86584163742382       -0.13398354360467       -0.01010620181813
N            0.46895200792501       -0.09059674893423       -0.00424530048485
C           -0.37757271423159       -1.18214836469673       -0.02331288529998
C           -0.08318931054590       -2.53580122283006       -0.10145118648671
C           -1.13547685479259       -3.42805133103712       -0.12739419342554
C           -2.47138726298773       -3.00626371258978       -0.09436793866745
C           -3.55675201482809       -3.99824509383075       -0.11782623211631
C           -4.69522144873739       -3.78864743289460       -0.89289588178053
C           -5.71509402182695       -4.72141818113941       -0.91438640602700
C           -5.61785628090885       -5.87810526704246       -0.15922032292113
C           -4.49205246849325       -6.09628467782418        0.61698719955917
C           -3.46961644998785       -5.16622614352212        0.63649035699156
C           -2.76024531228970       -1.64827340231002       -0.05091955786438
C           -1.71846318458186       -0.73521163605244       -0.01717304573709
C           -1.66980426445350        0.70095192187485        0.01490471849786
C           -2.64780496777164        1.68234560236991        0.04979648634824
C           -2.26704476562459        3.01738293188969        0.09133640297449
C           -3.28286603325082        4.08059465089490        0.11299423741154
C           -3.11591428046297        5.23875548672203       -0.64304592428935
C           -4.07377379146002        6.23523912155740       -0.62719011000665
C           -5.21326248358903        6.09442892483009        0.14696991647987
C           -5.38916255842452        4.94848959558585        0.90426166042713
C           -4.43407679724801        3.94938164939500        0.88642257940920
C           -0.90531151943540        3.34770783955623        0.12231535946533
C            0.08462890263094        2.38688521128296        0.09469467942830
C           -0.30236707335453        1.05665895249605        0.01738966797356
C            2.58904506870892        0.66068698853865       -0.89678612808396
C            3.96800856663177        0.63292994110593       -0.88879424039675
H            8.82541465062676        1.83858551942757        0.02393098076990
H           10.00348102408428       -0.33470805270317       -0.00166813646246
H            8.70243397647527       -2.43313357436488       -0.00200404849936
H            6.24408836568641       -2.36452182747184       -0.00767500016702
H            4.45032211284972       -1.64668043832388        1.55769759478277
H            1.99347974642521       -1.57184913391160        1.57348923129294
H            0.93651396550588       -2.88634285853868       -0.15626544600390
H           -0.92553252216456       -4.48494538596531       -0.20132820765589
H           -4.76961041722030       -2.89659373913539       -1.49797866463100
H           -6.58933361590441       -4.54717329185231       -1.52511102347663
H           -6.41562221342300       -6.60604386990296       -0.17546621720162
H           -4.41210560524824       -6.99480618789694        1.21196331901784
H           -2.60188838409556       -5.33464943358599        1.25802694223403
H           -3.78385921096506       -1.30630807101296       -0.02561657121308
H           -3.69225765087338        1.41026718159997        0.02655632187715
H           -2.23739739976176        5.34764843362431       -1.26252755887042
H           -3.93243300705729        7.12536579175735       -1.22328839417657
H           -5.96054824787795        6.87418330705129        0.16026497093993
H           -6.27415239434873        4.83455844749802        1.51379666981490
H           -4.56916039661340        3.06571864074939        1.49337409516673
H           -0.62362924204359        4.38760034030252        0.19541635222496
H            1.12554654267080        2.66799419002290        0.14702632460919
H            2.06355809537912        1.28754363275780       -1.60075778292194
H            4.51585280879876        1.24361084524986       -1.59088977219611

          :  Hamiltonian                  GFN2-xTB          :
         :: gradient norm              0.000065416799 Eh/a0 ::
         :: HOMO-LUMO gap              2.161075500353 eV    ::
         :: SCC energy               -99.215765406776 Eh    ::
         :: -> dispersion             -0.083042835698 Eh    ::
         :: repulsion energy           1.917161045706 Eh    ::

    * Orbital Energies and Occupations

         #    Occupation            Energy/Eh            Energy/eV
      -------------------------------------------------------------
         1        2.0000           -0.6777736             -18.4432
       ...           ...                  ...                  ...
        79        2.0000           -0.4205914             -11.4449
        80        2.0000           -0.4181619             -11.3788
        81        2.0000           -0.4165761             -11.3356
        82        2.0000           -0.4148381             -11.2883
        83        2.0000           -0.4113718             -11.1940
        84        2.0000           -0.4076659             -11.0932
        85        2.0000           -0.4067576             -11.0684
        86        2.0000           -0.4004968             -10.8981
        87        2.0000           -0.3985899             -10.8462
        88        2.0000           -0.3959144             -10.7734
        89        2.0000           -0.3882549             -10.5650
        90        2.0000           -0.3753914             -10.2149
        91        2.0000           -0.3580632              -9.7434 (HOMO)
        92                         -0.2786452              -7.5823 (LUMO)
        93                         -0.2585028              -7.0342
        94                         -0.2441263              -6.6430
        95                         -0.2414961              -6.5714
        96                         -0.2385274              -6.4907
        97                         -0.2327291              -6.3329
        98                         -0.2191851              -5.9643
        99                         -0.2184369              -5.9440
       100                         -0.2165312              -5.8921
       101                         -0.2061971              -5.6109
       102                         -0.2027761              -5.5178
       ...                                ...                  ...
       180                          1.1655849              31.7172
      -------------------------------------------------------------
                  HL-Gap            0.0794181 Eh            2.1611 eV

     #   Z          covCN         q      C6AA      α(0)
     1   7 N        0.911    -0.241    26.299     7.417
     2   6 C        1.912     0.114    28.296     8.591
     3   6 C        2.977     0.013    27.717     8.636
     4   6 C        2.929    -0.020    28.510     8.757
     5   6 C        2.918    -0.028    28.699     8.785
     6   6 C        2.918    -0.022    28.566     8.765
     7   6 C        2.924    -0.032    28.787     8.799
     8   6 C        2.981     0.020    27.564     8.612
     9   6 C        2.977     0.005    27.911     8.666
    10   6 C        2.924    -0.032    28.805     8.802
    11   6 C        2.921    -0.043    29.067     8.841
    12   6 C        2.913     0.066    26.515     8.444
    13   7 N        2.802    -0.041    22.030     6.971
    14   6 C        3.074     0.045    26.922     8.507
    15   6 C        2.908    -0.052    29.285     8.873
    16   6 C        2.929    -0.038    28.946     8.823
    17   6 C        2.977    -0.001    28.039     8.686
    18   6 C        2.977     0.011    27.771     8.644
    19   6 C        2.925    -0.035    28.863     8.810
    20   6 C        2.918    -0.030    28.748     8.792
    21   6 C        2.920    -0.032    28.802     8.801
    22   6 C        2.918    -0.030    28.754     8.793
    23   6 C        2.925    -0.035    28.869     8.811
    24   6 C        2.918    -0.037    28.930     8.820
    25   6 C        3.065    -0.017    28.359     8.732
    26   6 C        3.065    -0.017    28.369     8.734
    27   6 C        2.918    -0.038    28.935     8.821
    28   6 C        2.977    -0.000    28.025     8.684
    29   6 C        2.977     0.011    27.769     8.644
    30   6 C        2.925    -0.035    28.863     8.810
    31   6 C        2.918    -0.030    28.749     8.793
    32   6 C        2.920    -0.032    28.801     8.801
    33   6 C        2.918    -0.030    28.751     8.793
    34   6 C        2.925    -0.035    28.863     8.810
    35   6 C        2.929    -0.037    28.918     8.819
    36   6 C        2.908    -0.051    29.264     8.870
    37   6 C        3.075     0.045    26.917     8.506
    38   6 C        2.921    -0.041    29.018     8.834
    39   6 C        2.924    -0.028    28.700     8.785
    40   1 H        0.926     0.042     2.417     2.431
    41   1 H        0.926     0.040     2.451     2.448
    42   1 H        0.926     0.040     2.453     2.449
    43   1 H        0.926     0.039     2.456     2.451
    44   1 H        0.926     0.037     2.484     2.465
    45   1 H        0.926     0.044     2.395     2.420
    46   1 H        0.926     0.027     2.631     2.537
    47   1 H        0.926     0.032     2.561     2.502
    48   1 H        0.926     0.030     2.584     2.514
    49   1 H        0.926     0.028     2.615     2.529
    50   1 H        0.926     0.028     2.621     2.532
    51   1 H        0.926     0.027     2.623     2.532
    52   1 H        0.926     0.029     2.601     2.522
    53   1 H        0.926     0.034     2.526     2.485
    54   1 H        0.926     0.034     2.532     2.488
    55   1 H        0.926     0.030     2.583     2.513
    56   1 H        0.926     0.028     2.615     2.529
    57   1 H        0.926     0.027     2.623     2.533
    58   1 H        0.926     0.028     2.620     2.531
    59   1 H        0.926     0.030     2.590     2.517
    60   1 H        0.926     0.035     2.515     2.480
    61   1 H        0.926     0.033     2.541     2.493
    62   1 H        0.926     0.047     2.357     2.401
    63   1 H        0.926     0.040     2.444     2.445

molecular dipole:
                 x           y           z       tot (Debye)
 q only:        0.770      -1.010      -0.086
   full:        1.084      -1.421      -0.100       4.551

 projected vibrational frequencies (cm⁻¹)
eigval :       -0.00    -0.00    -0.00    -0.00     0.00     0.00
eigval :       15.84    20.04    20.98    38.66    39.00    40.58
eigval :       54.75    55.69    64.93    83.73    89.00    97.57
eigval :      119.69   131.49   134.73   148.95   155.60   183.97
eigval :      195.71   216.92   248.55   259.43   267.20   278.30
eigval :      312.77   319.69   353.85   366.54   372.51   372.92
eigval :      384.46   387.05   392.58   399.14   408.56   430.91
eigval :      438.00   473.26   476.73   491.78   499.65   505.82
eigval :      529.71   547.96   556.40   565.82   571.67   585.64
eigval :      587.11   592.85   600.61   608.87   623.83   624.21
eigval :      643.00   669.24   672.54   683.34   686.61   706.29
eigval :      708.01   712.03   740.75   748.23   758.79   759.77
eigval :      778.75   785.24   819.51   826.06   830.71   861.47
eigval :      871.25   874.20   876.15   881.43   882.24   886.26
eigval :      900.99   901.51   907.00   910.89   914.28   919.18
eigval :      926.74   928.60   930.59   931.34   931.91   932.05
eigval :      932.28   935.33   972.34   981.85   998.65  1027.87
eigval :     1044.95  1072.85  1073.01  1086.77  1087.33  1091.52
eigval :     1122.20  1122.27  1132.54  1134.78  1140.02  1160.90
eigval :     1180.78  1182.61  1182.82  1184.66  1199.20  1201.70
eigval :     1207.37  1220.91  1222.02  1225.63  1243.25  1246.91
eigval :     1267.40  1282.04  1282.26  1282.94  1288.30  1306.01
eigval :     1308.28  1314.68  1316.64  1319.54  1320.90  1346.74
eigval :     1359.06  1378.19  1402.51  1410.85  1426.05  1431.01
eigval :     1433.78  1436.45  1458.23  1462.08  1468.64  1495.09
eigval :     1498.01  1502.18  1554.17  1561.49  1567.66  1574.93
eigval :     1582.92  1583.51  1584.46  1594.15  1596.21  1599.01
eigval :     1603.74  1615.20  2369.10  3068.94  3069.08  3070.57
eigval :     3070.76  3078.11  3079.04  3079.25  3079.85  3081.42
eigval :     3082.14  3082.90  3084.20  3085.06  3087.71  3087.89
eigval :     3090.46  3090.55  3090.81  3091.42  3091.84  3094.99
eigval :     3096.50  3100.24  3101.58

   temp. (K)  partition function   enthalpy   heat capacity  entropy
                                   cal/mol     cal/K/mol   cal/K/mol   J/K/mol
 298.15  VIB  0.250E+14            17638.467    112.457    109.194
         ROT  0.683E+08              888.752      2.981     38.831
         INT  0.171E+22            18527.220    115.438    148.025
         TR   0.107E+29             1481.254      4.968     44.475
         TOT                       20008.4737   120.4063   192.4996   805.4184

       T/K    H(0)-H(T)+PV         H(T)/Eh          T*S/Eh         G(T)/Eh
   ------------------------------------------------------------------------
    298.15    0.318855E-01    0.514571E+00    0.914628E-01    0.423108E+00
   ------------------------------------------------------------------------

         :::::::::::::::::::::::::::::::::::::::::::::::::::::
         ::                  THERMODYNAMIC                  ::
         :::::::::::::::::::::::::::::::::::::::::::::::::::::
         :: total free energy         -96.875496628129 Eh   ::
         ::.................................................::
         :: total energy              -97.298604361069 Eh   ::
         :: zero point energy           0.482684980108 Eh   ::
         :: G(RRHO) w/o ZPVE           -0.059577247169 Eh   ::
         :: G(RRHO) contrib.            0.423107732940 Eh   ::
         :::::::::::::::::::::::::::::::::::::::::::::::::::::

           -------------------------------------------------
          | TOTAL ENERGY              -97.298604361069 Eh   |
          | TOTAL ENTHALPY            -96.784033848563 Eh   |
          | TOTAL FREE ENERGY         -96.875496628129 Eh   |
          | GRADIENT NORM               0.000065380962 Eh/α |
          | HOMO-LUMO GAP               2.161075490546 eV   |
           -------------------------------------------------

 * finished run on 2025/08/25 at 08:25:09.283
