   * xtb version 6.7.1 (edcfbbe) compiled by 'albert@albert-system' on 2024-07-22

   ID    Z sym.   atoms
    1    6 C      1-5, 7-19, 21-40, 42-60
    2    7 N      6, 20, 41
    3    1 H      61-95

          program call               : xtb data2507/gas/CAPI/CAPI_gas_S0_crest.xyz --gfn 2 --ohess vtight --parallel 40 --molden --ceasefiles --namespace data2507/gas/CAPI/CAPI_gas_S0_finalOpt
          :  Hamiltonian                  GFN2-xTB          :
 * total energy  :  -148.7833566 Eh     change       -0.1509079E-08 Eh
 * total energy  :  -148.7833574 Eh     change       -0.8093219E-06 Eh
 * total energy  :  -148.7833585 Eh     change       -0.1112418E-05 Eh
 * total energy  :  -148.7833603 Eh     change       -0.1834731E-05 Eh
 * total energy  :  -148.7833611 Eh     change       -0.7450251E-06 Eh
 * total energy  :  -148.7833614 Eh     change       -0.3338807E-06 Eh
 * total energy  :  -148.7833618 Eh     change       -0.4360809E-06 Eh
 * total energy  :  -148.7833623 Eh     change       -0.5024316E-06 Eh
 * total energy  :  -148.7833628 Eh     change       -0.4380887E-06 Eh
 * total energy  :  -148.7833633 Eh     change       -0.5050810E-06 Eh
 * total energy  :  -148.7833655 Eh     change       -0.4739768E-06 Eh
 * total energy  :  -148.7833660 Eh     change       -0.5675390E-06 Eh
 * total energy  :  -148.7833666 Eh     change       -0.5756375E-06 Eh
 * total energy  :  -148.7833671 Eh     change       -0.4694015E-06 Eh
 * total energy  :  -148.7833674 Eh     change       -0.3639491E-06 Eh
 * total energy  :  -148.7833677 Eh     change       -0.2855110E-06 Eh
 * total energy  :  -148.7833679 Eh     change       -0.2296896E-06 Eh
 * total energy  :  -148.7833682 Eh     change       -0.2167172E-06 Eh
 * total energy  :  -148.7833682 Eh     change       -0.3973668E-08 Eh
   *** GEOMETRY OPTIMIZATION CONVERGED AFTER 22 ITERATIONS ***

 final structure:
================
95
 xtb: 6.7.1 (edcfbbe)
C           -1.13597987667469        3.62615712960657        1.50562630414819
C           -1.75407496064811        2.48578623232332        2.04083494758919
C           -2.66611244434344        1.78268663608783        1.30557699456187
C           -2.99368198688043        2.18388839658932       -0.00639216742115
C           -3.90047891026746        1.46192333416088       -0.82734145298403
N           -4.40595254309163        0.22659004120655       -0.37838732111363
C           -3.62875929523866       -0.88602238139542       -0.12755742030347
C           -2.17528010642485       -0.87745778213641       -0.20045108507779
C           -1.48258689429874       -0.22132650504854       -1.21549413518770
C           -0.10462803265919       -0.15739613856994       -1.18711028426068
C            0.61462630932350       -0.75421338219011       -0.15562536334329
C            2.08368753105417       -0.62663009693553       -0.10086465606299
C            2.89476660582742       -1.76075880307232       -0.25296662907770
C            2.34705513318266       -3.04629184219313       -0.50447129999987
C            3.14495085396985       -4.14350048779975       -0.61311177668678
C            4.54190699814340       -4.02599823924747       -0.47091790892613
C            5.11110783083495       -2.80778798688573       -0.26198528213951
C            4.31622447788316       -1.63567165643017       -0.17078025319695
C            4.88340098388968       -0.36569728740262        0.00772946734356
N            6.28425474291805       -0.23506143747296        0.05976548501939
C            7.15415921906918       -0.46581498481136       -0.98405454641237
C            6.87558475869486       -0.84056164514851       -2.29040559067431
C            7.94213975280850       -0.99326975802836       -3.15436929721467
C            9.25375557894685       -0.77492870333579       -2.73602040530130
C            9.53422531850381       -0.39166431792752       -1.43980153367955
C            8.47947692575192       -0.23179737905469       -0.55023113143726
C            8.39274281747139        0.15320407073951        0.83081457972776
C            9.33251817639930        0.49416717930654        1.79513679497481
C            8.89225834669892        0.81160424107130        3.06446122484017
C            7.53541077245786        0.78747502326331        3.38283179537253
C            6.58083360091990        0.45126647292915        2.44310914926711
C            7.01848398531107        0.14147286695113        1.16363002799156
C            4.07968273392110        0.77675781956504        0.13307136003849
C            4.63707828246111        2.07419738548925        0.27380029221795
C            3.84014653423332        3.16704105685123        0.42291906784520
C            2.43890279371863        3.02512873243596        0.45405061276526
C            1.86558484085060        1.80047528240278        0.29944011188873
C            2.65724686952525        0.63775396569345        0.10476950511893
C           -0.07696063278713       -1.46047920730650        0.82538787007075
C           -1.45451745143727       -1.52371598000227        0.80270157838811
N           -4.34645993378219       -1.92014575714665        0.22529792032493
C           -5.64088871724550       -1.50306864959126        0.20140388278809
C           -6.81064450193647       -2.26800384269047        0.46573435467395
C           -6.73045894356079       -3.62677285235676        0.78819635972180
C           -7.87257374055080       -4.35591246828112        1.00524281916779
C           -9.11372735674732       -3.73150582089608        0.89767761044981
C           -9.20384474510628       -2.39467348104614        0.58763847025203
C           -8.05955796710849       -1.61259817300808        0.36783310135196
C           -8.12046177519993       -0.19111339648124        0.07389753716075
C           -9.33751035303733        0.50476209444606        0.05086013277961
C           -9.39947779910509        1.85845898707776       -0.18055175360919
C           -8.23180533093535        2.58725928193295       -0.38325085688547
C           -7.01949567865485        1.94300330728970       -0.37745677842757
C           -6.93763337199970        0.55818491098783       -0.17383885328405
C           -5.70855511168900       -0.15864401512577       -0.15999934032382
C           -4.22935128159859        1.91735166935575       -2.08194865266139
C           -3.66240239026061        3.09768729722778       -2.57751916774146
C           -2.75215164687395        3.79261430279637       -1.83060651448107
C           -2.39551665379515        3.35681573790680       -0.53764731797500
C           -1.45682292264992        4.05692083071150        0.24954669280140
H           -0.41435210940839        4.16406523177762        2.10247967078851
H           -1.50533125870720        2.16821955567957        3.04227616568476
H           -3.14863576868066        0.91547213258644        1.73096738415816
H           -2.01713628798616        0.23418919812346       -2.03522925335173
H            0.42687087924692        0.36009835596237       -1.97272326759479
H            1.27702518090529       -3.13833060191243       -0.61395938648653
H            2.71275687017000       -5.11438291750787       -0.80504508132493
H            5.15772083790091       -4.91061624481511       -0.53599269572682
H            6.18232506809214       -2.72109294874256       -0.16047631771484
H            5.85966205280969       -1.00901539134273       -2.61569958576580
H            7.75633004542572       -1.28733932011263       -4.17691502303983
H           10.06025584045487       -0.90607923402929       -3.44218208659683
H           10.55057486073005       -0.21716801682379       -1.11990298493037
H           10.38456945364604        0.50746511276159        1.55274912336219
H            9.60737343993574        1.08054137007920        3.82773914269996
H            7.22445573161310        1.03599379401132        4.38691420342941
H            5.52987114150556        0.43158826167496        2.69090194785804
H            5.71069885289195        2.18540616850434        0.25762310459228
H            4.27683605766811        4.14942842029991        0.52521650236948
H            1.82048074032357        3.89873109255317        0.59637628566628
H            0.79073454769624        1.69957425324163        0.32702560234238
H            0.47519003092688       -1.94038991062280        1.62050560294599
H           -1.99571645780781       -2.05756006407221        1.56853014763787
H           -5.75009233030214       -4.07296091179337        0.85093375117493
H           -7.81584409948067       -5.40577732000299        1.25230573682402
H          -10.01618553966267       -4.30329305248235        1.05962440886391
H          -10.18615529561136       -1.95583629709232        0.51249241740709
H          -10.26053220231688       -0.02315108868581        0.22824860456223
H          -10.35616012382295        2.35974857758571       -0.19080444797620
H           -8.27730397348944        3.65490609494568       -0.53976349574388
H           -6.11427937265973        2.51348539542734       -0.51504360311479
H           -4.92420985152525        1.35362809565579       -2.68778820174789
H           -3.93864671096089        3.43846206440266       -3.56392507146650
H           -2.29235091543526        4.68881533784352       -2.22049774373556
H           -0.99837708166619        4.94374985943456       -0.16415038450740

          :  Hamiltonian                  GFN2-xTB          :
         :: gradient norm              0.000043902762 Eh/a0 ::
         :: HOMO-LUMO gap              1.892359316910 eV    ::
         :: SCC energy              -151.628128459908 Eh    ::
         :: -> dispersion             -0.151492603432 Eh    ::
         :: repulsion energy           2.844760292742 Eh    ::

    * Orbital Energies and Occupations

         #    Occupation            Energy/Eh            Energy/eV
      -------------------------------------------------------------
         1        2.0000           -0.6870825             -18.6965
       ...           ...                  ...                  ...
       127        2.0000           -0.4097357             -11.1495
       128        2.0000           -0.4088401             -11.1251
       129        2.0000           -0.4060086             -11.0481
       130        2.0000           -0.4041780             -10.9982
       131        2.0000           -0.4008643             -10.9081
       132        2.0000           -0.3986246             -10.8471
       133        2.0000           -0.3906186             -10.6293
       134        2.0000           -0.3791154             -10.3163
       135        2.0000           -0.3756739             -10.2226
       136        2.0000           -0.3750955             -10.2069
       137        2.0000           -0.3703457             -10.0776
       138        2.0000           -0.3626782              -9.8690
       139        2.0000           -0.3572074              -9.7201 (HOMO)
       140                         -0.2876645              -7.8278 (LUMO)
       141                         -0.2770947              -7.5401
       142                         -0.2567394              -6.9862
       143                         -0.2465534              -6.7091
       144                         -0.2449223              -6.6647
       145                         -0.2413111              -6.5664
       146                         -0.2397235              -6.5232
       147                         -0.2381968              -6.4817
       148                         -0.2302424              -6.2652
       149                         -0.2260632              -6.1515
       150                         -0.2181960              -5.9374
       ...                                ...                  ...
       275                          0.7495174              20.3954
      -------------------------------------------------------------
                  HL-Gap            0.0695429 Eh            1.8924 eV

     #   Z          covCN         q      C6AA      α(0)
     1   6 C        2.916    -0.026    28.652     8.778
     2   6 C        2.917    -0.028    28.690     8.783
     3   6 C        2.917    -0.031    28.765     8.795
     4   6 C        2.987     0.003    27.950     8.672
     5   6 C        2.909     0.060    26.649     8.465
     6   7 N        2.841    -0.044    22.085     6.980
     7   6 C        3.196     0.129    24.703     8.103
     8   6 C        2.975     0.002    27.970     8.675
     9   6 C        2.921    -0.034    28.844     8.807
    10   6 C        2.924    -0.032    28.801     8.801
    11   6 C        2.978     0.016    27.650     8.625
    12   6 C        2.977    -0.006    28.164     8.705
    13   6 C        2.984     0.007    27.856     8.658
    14   6 C        2.917    -0.034    28.838     8.806
    15   6 C        2.914    -0.028    28.707     8.786
    16   6 C        2.915    -0.028    28.695     8.784
    17   6 C        2.917    -0.032    28.787     8.798
    18   6 C        2.983     0.001    27.998     8.680
    19   6 C        2.911     0.045    26.989     8.519
    20   7 N        2.803    -0.044    22.095     6.981
    21   6 C        3.081     0.048    26.840     8.493
    22   6 C        2.909    -0.050    29.229     8.865
    23   6 C        2.925    -0.033    28.830     8.805
    24   6 C        2.920    -0.042    29.035     8.836
    25   6 C        2.912    -0.033    28.833     8.805
    26   6 C        3.068    -0.019    28.409     8.740
    27   6 C        3.068    -0.019    28.408     8.740
    28   6 C        2.912    -0.033    28.832     8.805
    29   6 C        2.920    -0.042    29.036     8.836
    30   6 C        2.925    -0.033    28.832     8.806
    31   6 C        2.909    -0.050    29.231     8.865
    32   6 C        3.081     0.048    26.840     8.493
    33   6 C        2.983     0.001    28.003     8.680
    34   6 C        2.917    -0.032    28.788     8.798
    35   6 C        2.915    -0.029    28.713     8.787
    36   6 C        2.915    -0.029    28.737     8.790
    37   6 C        2.917    -0.033    28.833     8.805
    38   6 C        2.984     0.007    27.868     8.659
    39   6 C        2.923    -0.031    28.781     8.798
    40   6 C        2.926    -0.028    28.700     8.786
    41   7 N        1.893    -0.291    28.400     7.901
    42   6 C        3.210     0.056    26.127     8.321
    43   6 C        2.986     0.003    27.958     8.673
    44   6 C        2.922    -0.031    28.780     8.797
    45   6 C        2.917    -0.030    28.754     8.793
    46   6 C        2.917    -0.033    28.819     8.803
    47   6 C        2.922    -0.035    28.866     8.811
    48   6 C        2.979    -0.002    28.059     8.689
    49   6 C        2.980     0.002    27.978     8.676
    50   6 C        2.922    -0.034    28.839     8.807
    51   6 C        2.917    -0.033    28.828     8.805
    52   6 C        2.917    -0.032    28.790     8.799
    53   6 C        2.919    -0.039    28.981     8.828
    54   6 C        2.978    -0.002    28.068     8.690
    55   6 C        3.074     0.020    27.492     8.597
    56   6 C        2.919    -0.040    28.991     8.830
    57   6 C        2.915    -0.030    28.753     8.793
    58   6 C        2.918    -0.037    28.923     8.819
    59   6 C        2.987     0.014    27.684     8.631
    60   6 C        2.919    -0.033    28.822     8.804
    61   1 H        0.926     0.035     2.510     2.478
    62   1 H        0.926     0.035     2.511     2.478
    63   1 H        0.926     0.034     2.524     2.484
    64   1 H        0.926     0.029     2.601     2.522
    65   1 H        0.926     0.033     2.548     2.496
    66   1 H        0.926     0.037     2.494     2.470
    67   1 H        0.926     0.033     2.541     2.493
    68   1 H        0.926     0.033     2.544     2.494
    69   1 H        0.926     0.036     2.496     2.471
    70   1 H        0.926     0.023     2.689     2.564
    71   1 H        0.926     0.028     2.622     2.532
    72   1 H        0.926     0.027     2.634     2.538
    73   1 H        0.926     0.030     2.592     2.518
    74   1 H        0.926     0.030     2.592     2.518
    75   1 H        0.926     0.027     2.635     2.538
    76   1 H        0.926     0.027     2.624     2.533
    77   1 H        0.926     0.023     2.690     2.565
    78   1 H        0.926     0.037     2.491     2.468
    79   1 H        0.926     0.032     2.556     2.500
    80   1 H        0.926     0.030     2.585     2.514
    81   1 H        0.926     0.030     2.582     2.513
    82   1 H        0.926     0.037     2.483     2.464
    83   1 H        0.926     0.050     2.314     2.379
    84   1 H        0.926     0.050     2.319     2.381
    85   1 H        0.926     0.030     2.589     2.516
    86   1 H        0.926     0.028     2.619     2.531
    87   1 H        0.926     0.030     2.582     2.513
    88   1 H        0.926     0.034     2.529     2.487
    89   1 H        0.926     0.028     2.609     2.526
    90   1 H        0.926     0.027     2.634     2.538
    91   1 H        0.926     0.025     2.659     2.550
    92   1 H        0.926     0.041     2.437     2.441
    93   1 H        0.926     0.039     2.466     2.456
    94   1 H        0.926     0.038     2.469     2.457
    95   1 H        0.926     0.036     2.507     2.476

molecular dipole:
                 x           y           z       tot (Debye)
 q only:       -0.025       0.737      -0.139
   full:       -0.255       1.156      -0.276       3.090

 projected vibrational frequencies (cm⁻¹)
eigval :       -0.00    -0.00    -0.00     0.00     0.00     0.00
eigval :        9.07    10.64    14.07    21.50    25.70    29.46
eigval :       34.92    40.25    46.11    58.80    60.01    74.54
eigval :       76.55    77.75    87.85    90.14    98.79   117.74
eigval :      121.76   128.97   142.83   146.79   156.51   158.90
eigval :      167.33   182.08   189.64   204.55   208.93   212.16
eigval :      233.93   239.08   246.71   255.00   271.17   273.55
eigval :      300.60   309.71   315.40   350.81   371.60   375.82
eigval :      378.31   388.85   393.73   396.71   400.98   403.56
eigval :      412.04   415.44   422.42   422.68   430.47   434.76
eigval :      436.76   439.80   445.62   450.31   459.01   472.48
eigval :      488.65   505.82   513.59   517.88   523.60   531.27
eigval :      534.15   537.39   541.22   541.38   544.10   583.07
eigval :      584.45   586.00   588.64   594.99   604.15   614.56
eigval :      615.67   631.83   641.68   643.25   649.82   661.58
eigval :      672.73   675.39   680.69   681.88   687.89   693.67
eigval :      704.27   706.73   708.55   722.34   735.27   736.58
eigval :      737.74   756.00   761.92   766.49   767.65   774.33
eigval :      775.88   776.90   779.15   782.75   784.52   816.99
eigval :      819.52   843.39   854.05   863.44   867.14   869.42
eigval :      873.16   874.35   875.35   877.13   878.81   887.74
eigval :      896.57   900.87   901.77   902.12   907.67   908.35
eigval :      914.48   916.93   917.53   919.24   920.95   921.43
eigval :      921.97   923.60   924.91   927.28   927.46   928.95
eigval :      929.92   931.82   933.86   936.03   944.15  1002.58
eigval :     1012.18  1017.14  1043.13  1058.76  1067.84  1071.30
eigval :     1082.86  1083.54  1085.02  1085.33  1098.63  1107.84
eigval :     1113.56  1134.60  1136.53  1142.30  1146.81  1150.75
eigval :     1152.34  1171.40  1172.73  1175.37  1181.08  1181.34
eigval :     1181.63  1182.32  1183.18  1185.48  1187.77  1194.82
eigval :     1196.58  1212.04  1218.47  1224.79  1229.23  1231.17
eigval :     1238.92  1250.60  1255.27  1257.89  1258.93  1264.03
eigval :     1270.75  1283.93  1287.87  1296.04  1307.12  1307.19
eigval :     1314.65  1324.13  1335.91  1337.86  1342.67  1347.54
eigval :     1349.70  1353.22  1358.83  1362.94  1384.63  1386.77
eigval :     1388.37  1394.41  1399.68  1408.14  1416.52  1420.15
eigval :     1421.74  1428.38  1429.58  1432.17  1432.84  1436.91
eigval :     1448.31  1458.38  1471.84  1476.03  1486.92  1489.28
eigval :     1507.40  1515.31  1518.41  1526.62  1532.63  1540.20
eigval :     1547.64  1558.34  1562.46  1566.10  1572.89  1573.29
eigval :     1589.75  1595.00  1595.72  1598.49  1599.32  1605.28
eigval :     1607.56  1610.83  1615.65  1621.68  3072.16  3073.43
eigval :     3074.91  3075.30  3075.48  3078.49  3078.88  3078.89
eigval :     3079.38  3080.07  3080.38  3080.69  3082.73  3083.58
eigval :     3084.87  3084.97  3085.76  3085.89  3086.47  3088.19
eigval :     3089.01  3094.01  3094.47  3095.58  3095.76  3095.84
eigval :     3096.77  3096.87  3098.79  3098.88  3099.68  3101.89
eigval :     3104.63  3107.93  3110.52

   temp. (K)  partition function   enthalpy   heat capacity  entropy
                                   cal/mol     cal/K/mol   cal/K/mol   J/K/mol
 298.15  VIB  0.254E+21            26629.549    172.200    164.464
         ROT  0.147E+09              888.752      2.981     40.357
         INT  0.374E+29            27518.301    175.181    204.820
         TR   0.203E+29             1481.254      4.968     45.750
         TOT                       28999.5548   180.1488   250.5706  1048.3873

       T/K    H(0)-H(T)+PV         H(T)/Eh          T*S/Eh         G(T)/Eh
   ------------------------------------------------------------------------
    298.15    0.462137E-01    0.773449E+00    0.119054E+00    0.654394E+00
   ------------------------------------------------------------------------

         :::::::::::::::::::::::::::::::::::::::::::::::::::::
         ::                  THERMODYNAMIC                  ::
         :::::::::::::::::::::::::::::::::::::::::::::::::::::
         :: total free energy        -148.128973788174 Eh   ::
         ::.................................................::
         :: total energy             -148.783368167164 Eh   ::
         :: zero point energy           0.727234813764 Eh   ::
         :: G(RRHO) w/o ZPVE           -0.072840434774 Eh   ::
         :: G(RRHO) contrib.            0.654394378990 Eh   ::
         :::::::::::::::::::::::::::::::::::::::::::::::::::::

           -------------------------------------------------
          | TOTAL ENERGY             -148.783368167164 Eh   |
          | TOTAL ENTHALPY           -148.009919621202 Eh   |
          | TOTAL FREE ENERGY        -148.128973788174 Eh   |
          | GRADIENT NORM               0.000043898164 Eh/α |
          | HOMO-LUMO GAP               1.892358722035 eV   |
           -------------------------------------------------

 * finished run on 2025/09/13 at 00:07:20.454
