   * xtb version 6.7.1 (edcfbbe) compiled by 'albert@albert-system' on 2024-07-22

   ID    Z sym.   atoms
    1    6 C      1-5, 7-19, 21-40, 42-60
    2    7 N      6, 20, 41
    3    1 H      61-95

          program call               : xtb data2507/gas/CAPI/CAPI_gas_S0_finalOpt.xtbopt.xyz --gfn 2 --spinpol --tblite --uhf 2 --ohess vtight --parallel 40 --molden --ceasefiles --namespace data2507/gas/CAPI/CAPI_gas_T1_preOpt
 * total energy  :  -148.7135740 Eh     change       -0.3046196E-07 Eh
 * total energy  :  -148.7193321 Eh     change       -0.5758153E-02 Eh
 * total energy  :  -148.7207614 Eh     change       -0.1429302E-02 Eh
 * total energy  :  -148.7208833 Eh     change       -0.1218826E-03 Eh
 * total energy  :  -148.7209943 Eh     change       -0.1110031E-03 Eh
 * total energy  :  -148.7210473 Eh     change       -0.5301308E-04 Eh
 * total energy  :  -148.7211134 Eh     change       -0.6606156E-04 Eh
 * total energy  :  -148.7211688 Eh     change       -0.5540930E-04 Eh
 * total energy  :  -148.7212092 Eh     change       -0.4039142E-04 Eh
 * total energy  :  -148.7212424 Eh     change       -0.3323983E-04 Eh
 * total energy  :  -148.7215793 Eh     change       -0.5319178E-06 Eh
 * total energy  :  -148.7215799 Eh     change       -0.5917157E-06 Eh
 * total energy  :  -148.7215805 Eh     change       -0.5751664E-06 Eh
 * total energy  :  -148.7215810 Eh     change       -0.5573810E-06 Eh
 * total energy  :  -148.7215815 Eh     change       -0.5144999E-06 Eh
 * total energy  :  -148.7215829 Eh     change       -0.1403970E-05 Eh
 * total energy  :  -148.7215834 Eh     change       -0.4508656E-06 Eh
 * total energy  :  -148.7215838 Eh     change       -0.4193010E-06 Eh
 * total energy  :  -148.7215838 Eh     change       -0.1822468E-07 Eh
   *** GEOMETRY OPTIMIZATION CONVERGED AFTER 68 ITERATIONS ***

 final structure:
================
95
 xtb: 6.7.1 (edcfbbe)
C           -1.14209092067420        3.61894422812219        1.54715535913802
C           -1.72838561286467        2.44256721581269        2.03841552472928
C           -2.64950205880307        1.76329064416874        1.29200519179780
C           -3.01750439132049        2.22517064454713        0.01119068668238
C           -3.92801462675601        1.52711833000630       -0.82689578986828
N           -4.40935061887285        0.26453488866545       -0.42979800841531
C           -3.62108474074306       -0.85568361542745       -0.24493322569352
C           -2.17371476238181       -0.85232828352692       -0.32719591612337
C           -1.46181989831899       -0.06565958390663       -1.23494885956922
C           -0.08805796837135       -0.01001187654471       -1.18006810718240
C            0.63129908683420       -0.75830063702826       -0.24160996111058
C            2.08051082758347       -0.63780935175550       -0.14944112731662
C            2.90690741762876       -1.80013471699005       -0.26489261022435
C            2.37378813283565       -3.06247889826749       -0.53483953779907
C            3.18243903851906       -4.19609577120982       -0.58834108265206
C            4.53802734635418       -4.08648686557234       -0.36730471304030
C            5.10495276413417       -2.83371217107901       -0.14686894760078
C            4.32146253099392       -1.67760673104007       -0.13551156498150
C            4.89314011669492       -0.38055468184984        0.03232151507980
N            6.28306969336657       -0.25436844479655        0.11358702491049
C            7.18505299999638       -0.60276474312546       -0.87249442530983
C            6.94281957227594       -1.09316618861331       -2.14805047005536
C            8.03324611602928       -1.33038122035310       -2.96222248377533
C            9.33330031535733       -1.08013775734690       -2.52739174030643
C            9.57785395437254       -0.57427633705209       -1.26512345246613
C            8.49878914463924       -0.32936066388803       -0.42743889287814
C            8.37520341486545        0.19850511850160        0.90423276827829
C            9.29220317199328        0.61770121022448        1.85784523989011
C            8.82066894564233        1.05963787174159        3.07907389841186
C            7.45580533735415        1.07598045516776        3.35953067888112
C            6.52357228694581        0.66228632229571        2.42783219882167
C            6.99164564440979        0.23498323258547        1.19309694821637
C            4.08050266695403        0.78966272179554        0.11565802137703
C            4.63563772944371        2.06746468163542        0.21635536630458
C            3.82959419128161        3.19533893235927        0.34864812523789
C            2.45966853171664        3.05648753331800        0.39160779577343
C            1.88088471834937        1.79699505737573        0.24820242377210
C            2.66192263937264        0.65400208589374        0.06160811335405
C           -0.08474703348776       -1.60942143344571        0.60855908104806
C           -1.45922459848009       -1.65080576117725        0.57032343056518
N           -4.33270035077991       -1.90927972804884        0.07084025952280
C           -5.62647879082018       -1.49881346537456        0.08630007650869
C           -6.78806687619050       -2.28182449964238        0.33335876516404
C           -6.69485755731209       -3.65316096159912        0.59285284392955
C           -7.82914256368370       -4.39846329706331        0.79640400338310
C           -9.07513154877082       -3.77742120179392        0.73795742166720
C           -9.17783688409924       -2.42851567827294        0.48920948839664
C           -8.04184228700769       -1.63045114861900        0.28538471227283
C           -8.11466269381348       -0.19727214825527        0.05762282797658
C           -9.33627289520239        0.49004766217015        0.08202849309843
C           -9.41043339134464        1.85284136135358       -0.08402252377590
C           -8.25000326145266        2.59878136937339       -0.26441569651345
C           -7.03355544482946        1.96366239432155       -0.30448035299940
C           -6.93931467258807        0.57083413490382       -0.17018103209678
C           -5.70606779861992       -0.13746923604569       -0.20973502637278
C           -4.28918036379368        2.03645976500657       -2.05170164799570
C           -3.75468119903027        3.25061083855925       -2.49934455056895
C           -2.84344200225000        3.92614483686664       -1.73610375650726
C           -2.45126058487037        3.43343702522827       -0.47410155756282
C           -1.50376849622140        4.10856896038498        0.32420266264516
H           -0.41100566951066        4.13636936942566        2.15061732926475
H           -1.44657302841835        2.07692148682182        3.01437656747338
H           -3.10460215998929        0.86559639352109        1.68312909409792
H           -1.98131893154907        0.49417368307549       -1.99758411074923
H            0.45167951962538        0.60079757492774       -1.88924719996837
H            1.31447924707479       -3.16556528428061       -0.71117136223651
H            2.73646450527400       -5.15716694168007       -0.79590543122351
H            5.17063038707961       -4.96116650232402       -0.38058801645960
H            6.17002457024336       -2.76206464361492        0.01287813676744
H            5.93654531161118       -1.28491119087839       -2.48835974480268
H            7.87461381258715       -1.71616174737813       -3.95829037496358
H           10.15957720863258       -1.28035251912485       -3.19313899526397
H           10.58485205180139       -0.36806133802264       -0.93507399627791
H           10.35078059052809        0.59254075587097        1.64744104997263
H            9.51796223754195        1.39242623356926        3.83344652967108
H            7.11973240741383        1.41719572257329        4.32742411441363
H            5.46699905637163        0.67266931371109        2.64858242660729
H            5.70774963273248        2.19005351343002        0.19511838908272
H            4.28809669865664        4.16914978989306        0.43328692591790
H            1.82292018726039        3.91788592579957        0.52591858377456
H            0.80569012894742        1.71155698296555        0.28668220069493
H            0.45216172935023       -2.19745183527176        1.33863921375255
H           -2.01215715424842       -2.28033010662068        1.25025230682236
H           -5.71108945671415       -4.09542750743646        0.61909064768649
H           -7.76246413641414       -5.45785477451003        0.99558080848202
H           -9.97163710742624       -4.36117028320926        0.89001233014946
H          -10.16375372108328       -1.99302796894111        0.45099609234974
H          -10.25355577808727       -0.05245544989595        0.24448753367093
H          -10.37060290705239        2.34690423699455       -0.05967875601904
H           -8.30417176649087        3.67240860570377       -0.36827657597357
H           -6.13442869089291        2.54724524714105       -0.42471614600327
H           -4.98445530603762        1.48888955985167       -2.67164905570837
H           -4.05656036015697        3.63332622973158       -3.46258564137423
H           -2.40846724421935        4.84935883378657       -2.08981750142537
H           -1.06956929937525        5.02255233060868       -0.05522409754444

 projected vibrational frequencies (cm⁻¹)
eigval :       -0.00    -0.00    -0.00    -0.00     0.00     0.00
eigval :        8.46    10.84    14.89    21.35    27.06    30.13
eigval :       39.26    41.90    44.18    55.25    60.16    76.50
eigval :       77.69    79.58    87.15    91.16   100.29   119.07
eigval :      125.35   130.13   145.20   148.27   155.98   160.19
eigval :      168.94   185.33   191.73   204.05   209.18   217.14
eigval :      239.16   242.81   246.49   256.87   271.83   273.35
eigval :      299.43   308.87   314.99   349.60   353.28   372.22
eigval :      378.78   386.25   391.27   394.14   395.94   398.90
eigval :      408.30   411.03   412.55   417.43   426.28   426.56
eigval :      435.33   436.50   439.72   446.26   471.99   473.42
eigval :      488.75   502.05   512.98   514.38   522.41   523.96
eigval :      533.30   535.61   539.40   540.93   544.25   569.38
eigval :      581.46   584.43   586.09   593.49   595.28   605.80
eigval :      607.89   627.08   631.77   642.89   649.53   661.57
eigval :      669.48   673.18   674.55   678.69   681.44   687.00
eigval :      699.21   706.00   709.90   710.44   722.10   735.29
eigval :      735.53   747.64   755.66   758.25   761.84   766.24
eigval :      767.78   776.58   778.27   782.44   784.11   816.62
eigval :      820.70   840.88   842.58   843.42   849.13   863.08
eigval :      867.93   869.11   870.78   875.17   876.79   881.40
eigval :      887.99   889.81   896.00   900.72   901.77   902.84
eigval :      905.69   906.14   906.37   908.01   914.59   917.95
eigval :      920.53   921.26   923.27   924.63   926.81   927.33
eigval :      929.30   930.90   935.19   942.81   949.97   999.92
eigval :     1011.56  1015.30  1041.41  1058.41  1068.23  1071.59
eigval :     1083.26  1085.47  1098.86  1102.19  1107.18  1108.24
eigval :     1113.97  1115.61  1131.12  1138.78  1145.16  1147.82
eigval :     1152.06  1164.38  1170.93  1174.20  1179.36  1179.57
eigval :     1180.95  1181.68  1182.65  1183.57  1185.32  1185.97
eigval :     1195.72  1201.09  1212.71  1218.22  1224.57  1231.51
eigval :     1238.35  1250.28  1254.97  1257.40  1258.20  1259.55
eigval :     1264.50  1271.99  1284.01  1290.93  1293.13  1297.79
eigval :     1302.39  1315.03  1321.29  1322.01  1335.93  1337.26
eigval :     1344.01  1351.47  1353.43  1358.63  1369.14  1371.40
eigval :     1375.69  1378.49  1387.11  1393.53  1405.36  1407.25
eigval :     1409.62  1419.50  1420.67  1422.49  1427.13  1430.30
eigval :     1431.55  1436.15  1453.59  1461.18  1467.56  1472.97
eigval :     1486.49  1488.96  1506.81  1509.55  1513.59  1520.14
eigval :     1527.74  1532.88  1549.06  1554.57  1561.02  1563.69
eigval :     1567.76  1571.27  1575.24  1586.21  1590.38  1593.49
eigval :     1595.09  1603.64  1607.69  1610.67  3071.88  3072.74
eigval :     3075.29  3077.74  3078.01  3078.27  3078.76  3079.56
eigval :     3079.57  3080.35  3082.28  3082.95  3083.36  3084.23
eigval :     3084.53  3085.86  3087.03  3087.67  3088.32  3090.19
eigval :     3091.92  3095.43  3095.82  3096.00  3096.04  3096.27
eigval :     3096.62  3097.93  3098.88  3099.56  3101.32  3102.04
eigval :     3104.42  3109.56  3110.56

   temp. (K)  partition function   enthalpy   heat capacity  entropy
                                   cal/mol     cal/K/mol   cal/K/mol   J/K/mol
 298.15  VIB  0.212E+21            26725.655    173.294    164.715
         ROT  0.148E+09              888.752      2.981     40.371
         INT  0.314E+29            27614.407    176.275    205.086
         TR   0.203E+29             1481.254      4.968     45.750
         TOT                       29095.6612   181.2427   250.8362  1049.4985

       T/K    H(0)-H(T)+PV         H(T)/Eh          T*S/Eh         G(T)/Eh
   ------------------------------------------------------------------------
    298.15    0.463669E-01    0.770912E+00    0.119180E+00    0.651731E+00
   ------------------------------------------------------------------------

         :::::::::::::::::::::::::::::::::::::::::::::::::::::
         ::                  THERMODYNAMIC                  ::
         :::::::::::::::::::::::::::::::::::::::::::::::::::::
         :: total free energy        -148.069852383441 Eh   ::
         ::.................................................::
         :: total energy             -148.721583822263 Eh   ::
         :: zero point energy           0.724544911179 Eh   ::
         :: G(RRHO) w/o ZPVE           -0.072813472357 Eh   ::
         :: G(RRHO) contrib.            0.651731438822 Eh   ::
         :::::::::::::::::::::::::::::::::::::::::::::::::::::

           -------------------------------------------------
          | TOTAL ENERGY             -148.721583822263 Eh   |
          | TOTAL ENTHALPY           -147.950672023534 Eh   |
          | TOTAL FREE ENERGY        -148.069852383441 Eh   |
          | GRADIENT NORM               0.000049692620 Eh/α |
           -------------------------------------------------

 * finished run on 2025/09/13 at 00:07:35.650
