   * xtb version 6.7.1 (edcfbbe) compiled by 'albert@albert-system' on 2024-07-22

   ID    Z sym.   atoms
    1    6 C      1-5, 7-19, 21-40, 42-60
    2    7 N      6, 20, 41
    3    1 H      61-95

          program call               : xtb data2507/gas/CAPI/CAPI_gas_T1_crest.xyz --gfn 2 --spinpol --tblite --uhf 2 --ohess vtight --parallel 40 --molden --ceasefiles --namespace data2507/gas/CAPI/CAPI_gas_T1_finalOpt
 * total energy  :  -148.7214770 Eh     change       -0.1334902E-07 Eh
 * total energy  :  -148.7215259 Eh     change       -0.4893627E-04 Eh
 * total energy  :  -148.7215498 Eh     change       -0.2382760E-04 Eh
 * total energy  :  -148.7215605 Eh     change       -0.1076953E-04 Eh
 * total energy  :  -148.7215729 Eh     change       -0.1238441E-04 Eh
 * total energy  :  -148.7215820 Eh     change       -0.9069991E-05 Eh
 * total energy  :  -148.7215894 Eh     change       -0.7406872E-05 Eh
 * total energy  :  -148.7215937 Eh     change       -0.4284054E-05 Eh
 * total energy  :  -148.7215972 Eh     change       -0.3523070E-05 Eh
 * total energy  :  -148.7215999 Eh     change       -0.2753606E-05 Eh
 * total energy  :  -148.7216090 Eh     change       -0.1756709E-05 Eh
 * total energy  :  -148.7216101 Eh     change       -0.1073467E-05 Eh
 * total energy  :  -148.7216107 Eh     change       -0.6177740E-06 Eh
 * total energy  :  -148.7216112 Eh     change       -0.4752758E-06 Eh
 * total energy  :  -148.7216117 Eh     change       -0.4984168E-06 Eh
 * total energy  :  -148.7216122 Eh     change       -0.5452507E-06 Eh
 * total energy  :  -148.7216125 Eh     change       -0.2771770E-06 Eh
 * total energy  :  -148.7216120 Eh     change        0.5318874E-06 Eh
 * total energy  :  -148.7216121 Eh     change       -0.8457408E-07 Eh
   *** GEOMETRY OPTIMIZATION CONVERGED AFTER 22 ITERATIONS ***

 final structure:
================
95
 xtb: 6.7.1 (edcfbbe)
C           -1.09410269279535        3.63324686088436        1.37684367169010
C           -1.67895695030318        2.48438251898791        1.93096065949958
C           -2.61893775591344        1.77979021882895        1.23315352158247
C           -3.00808178502228        2.18685435908623       -0.05998879521675
C           -3.93800252233625        1.45846290021559       -0.84946233206078
N           -4.41446352163003        0.21511966109950       -0.39074329375980
C           -3.62296426329843       -0.89673092246978       -0.17223252234629
C           -2.17679414862442       -0.89232912327796       -0.27687807995760
C           -1.48529652974402       -0.15905933280619       -1.24307893848073
C           -0.11128635416215       -0.09139594503533       -1.21438107536255
C            0.62818113968563       -0.77218777095941       -0.24053152126291
C            2.07679538919440       -0.63467193016489       -0.17314587736599
C            2.91020037326628       -1.79760378152755       -0.20710468635943
C            2.38419267062998       -3.07835133045849       -0.39030550266007
C            3.19789728904542       -4.20913639454439       -0.35881489889227
C            4.55140445170748       -4.07776863659765       -0.13661359976757
C            5.11173087162967       -2.80987371137906       -0.00356991313008
C            4.32366297361643       -1.65937587373110       -0.08166755071749
C            4.88845122017785       -0.35065309384297       -0.00878119449326
N            6.27644906569181       -0.21012189506083        0.07897326033699
C            7.19535187431276       -0.63263926468710       -0.86143693748522
C            6.97574806433749       -1.22770348047809       -2.09596315489317
C            8.08004397957834       -1.52528531802707       -2.87062939808103
C            9.37190934958954       -1.23270080648993       -2.43781032243304
C            9.59400798718729       -0.62256790872381       -1.21821139236568
C            8.50066994918787       -0.31551690103266       -0.42047749534672
C            8.35384003508172        0.31987303135138        0.86093887926179
C            9.25379668245387        0.82258580959185        1.79013273921016
C            8.76112146367183        1.36158468101591        2.96307504010250
C            7.39202102688768        1.39243538509871        3.22063837105615
C            6.47655862629170        0.89654562540797        2.31276763417883
C            6.96589017734105        0.37131737395475        1.12494180947824
C            4.06988694203541        0.81843437318460       -0.02192272449633
C            4.61952307224255        2.10260273033924       -0.02521134849443
C            3.80893500209473        3.23392937026868        0.02015858802689
C            2.43990716662911        3.09264572878406        0.08098724960856
C            1.86653007910867        1.82329972214725        0.03903826579239
C            2.65186342713654        0.67256288864579       -0.06248843684377
C           -0.06852135397393       -1.57327147564133        0.67246826820686
C           -1.44286622924566       -1.62843448793904        0.65725138195604
N           -4.32861475091434       -1.93671855346448        0.19635848868820
C           -5.62260561206266       -1.52605231212221        0.21389561250291
C           -6.78027514407394       -2.29903709969749        0.50652689721901
C           -6.68311187874193       -3.66012815736986        0.81409930058005
C           -7.81439505101338       -4.39757319690673        1.05882476557188
C           -9.06132387901929       -3.77903257291243        0.99398688928855
C           -9.16780513864515       -2.43985208946006        0.69861178809349
C           -8.03485083112139       -1.64965438163115        0.45186196605064
C           -8.11116739515856       -0.22553714716119        0.17392249398485
C           -9.33164634907969        0.46385007010202        0.19614159835457
C           -9.40783161472762        1.81987086118453       -0.01769420689517
C           -8.25053477527464        2.55715904228505       -0.24727428505917
C           -7.03544086479573        1.91940373646925       -0.28674568713940
C           -6.93974966689175        0.53241547986055       -0.10258919469246
C           -5.70741884624477       -0.17774796805185       -0.13529985478447
C           -4.32146430798294        1.91740961364781       -2.08733077197323
C           -3.78994499118160        3.10812034614783       -2.59710588220874
C           -2.85920390747070        3.80959269105517       -1.88235147091263
C           -2.44462966181006        3.36918307163177       -0.60828152417160
C           -1.47729595955252        4.07170603530455        0.14108215409330
H           -0.34673447785668        4.17039381620045        1.94185756048579
H           -1.38099335164141        2.16028120467246        2.91673747919673
H           -3.07311774353486        0.90434546973657        1.67272324207141
H           -2.02185114246883        0.34904731513947       -2.02990225259067
H            0.41264361525383        0.47498008309434       -1.97070324276265
H            1.32641164113962       -3.19868125408272       -0.56495722260377
H            2.75735314188303       -5.18453482188985       -0.50068456229804
H            5.18760021278781       -4.94825390392595       -0.08241660101092
H            6.17531725888876       -2.72225637230279        0.15785953267887
H            5.97592082458278       -1.45264752900085       -2.43493829068793
H            7.93899551084791       -1.99314419536093       -3.83362085910285
H           10.20959597285724       -1.48287645216852       -3.07162168216517
H           10.59466510623467       -0.38390689388498       -0.89077791022544
H           10.31562962740067        0.78673942524631        1.59857887210380
H            9.44488176684675        1.76049934167767        3.69749761331292
H            7.03911660639208        1.81098163910750        4.15148735800351
H            5.41670327049505        0.91845054044227        2.51619961548953
H            5.69101966604895        2.22758460484176       -0.05996793173734
H            4.26316190344170        4.21338547095786        0.02515281876937
H            1.79958936961607        3.95897273049520        0.15122221344044
H            0.79208171368185        1.73676348981694        0.09082200728356
H            0.48390976973658       -2.10909350195656        1.43060469980017
H           -1.98005781834044       -2.21863652754898        1.38353848896725
H           -5.69891011902692       -4.10125390047065        0.84307171544726
H           -7.74473398654743       -5.44922041985135        1.29464122087048
H           -9.95555806793292       -4.35709111328867        1.17782826547462
H          -10.15433130298346       -2.00603414205942        0.65678332693628
H          -10.24601419974892       -0.07110115088490        0.39586312611933
H          -10.36695018346122        2.31594120740659        0.00724408221023
H           -8.30599000396048        3.62636088530031       -0.38913318423151
H           -6.13812948427487        2.49679848354402       -0.44492307891982
H           -5.03165095661303        1.34790115730538       -2.66947163230597
H           -4.10940229568153        3.45125853767806       -3.56954620196363
H           -2.42587856440820        4.71361763667402       -2.28436548778335
H           -1.04534331155196        4.96530588121743       -0.28646427728134

 projected vibrational frequencies (cm⁻¹)
eigval :       -0.00    -0.00     0.00     0.00     0.00     0.00
eigval :        7.97    10.78    14.73    21.31    26.51    30.40
eigval :       39.13    42.53    43.79    55.55    60.51    76.63
eigval :       77.43    79.93    87.20    90.91   100.20   118.94
eigval :      125.63   130.44   145.31   148.57   156.24   160.15
eigval :      168.76   185.41   191.92   204.47   209.15   216.79
eigval :      239.03   242.98   246.45   256.75   271.78   273.62
eigval :      299.31   308.72   315.07   349.54   353.10   371.81
eigval :      379.15   385.91   391.14   394.43   396.13   399.03
eigval :      408.30   411.03   412.92   417.81   426.26   426.64
eigval :      435.28   436.50   439.77   446.00   471.97   473.28
eigval :      488.75   502.55   513.01   514.35   522.50   523.96
eigval :      533.20   535.53   539.22   540.88   544.29   569.50
eigval :      581.66   584.54   586.23   593.41   595.36   605.75
eigval :      608.03   627.10   631.78   642.88   649.49   661.41
eigval :      669.64   673.18   674.57   678.89   681.34   686.87
eigval :      699.10   705.99   709.91   710.44   722.03   735.29
eigval :      735.36   747.15   755.59   757.81   761.63   765.70
eigval :      767.41   776.53   777.85   781.95   783.96   816.51
eigval :      820.80   840.52   842.54   843.39   849.06   862.55
eigval :      867.37   868.53   870.87   874.54   876.83   881.28
eigval :      887.67   889.72   896.00   900.74   901.29   902.37
eigval :      905.17   905.65   906.01   907.41   913.93   917.84
eigval :      920.03   920.76   922.89   924.06   926.59   927.35
eigval :      929.32   930.66   935.68   942.77   949.79   999.72
eigval :     1011.50  1014.63  1041.17  1058.05  1067.85  1071.21
eigval :     1082.60  1085.18  1098.47  1101.86  1106.98  1107.77
eigval :     1113.48  1115.42  1130.87  1138.85  1144.99  1147.53
eigval :     1151.85  1164.30  1170.57  1174.00  1179.03  1179.49
eigval :     1180.59  1181.90  1182.74  1183.75  1185.07  1186.09
eigval :     1195.38  1201.08  1212.91  1218.08  1224.48  1231.11
eigval :     1237.98  1250.03  1254.87  1257.19  1258.07  1259.45
eigval :     1264.75  1272.31  1283.95  1290.76  1293.00  1297.95
eigval :     1302.63  1314.82  1321.17  1321.79  1335.97  1337.38
eigval :     1344.03  1351.56  1353.36  1358.60  1369.00  1371.17
eigval :     1375.72  1378.92  1387.06  1393.70  1405.49  1407.20
eigval :     1410.01  1419.73  1420.71  1422.64  1427.02  1430.18
eigval :     1431.76  1436.19  1453.54  1461.37  1467.55  1473.00
eigval :     1486.58  1489.25  1506.76  1510.12  1513.80  1520.42
eigval :     1527.52  1532.91  1549.42  1554.50  1560.99  1563.74
eigval :     1567.98  1571.23  1575.10  1586.12  1590.33  1593.46
eigval :     1595.09  1603.65  1607.60  1610.57  3072.44  3072.97
eigval :     3075.85  3078.28  3078.30  3078.82  3079.39  3079.91
eigval :     3080.15  3080.83  3082.69  3083.50  3083.99  3084.76
eigval :     3084.79  3086.34  3087.71  3088.29  3088.89  3090.95
eigval :     3092.51  3095.20  3096.30  3096.52  3096.70  3097.03
eigval :     3097.46  3098.58  3098.87  3100.40  3101.39  3102.37
eigval :     3105.00  3109.19  3110.62

   temp. (K)  partition function   enthalpy   heat capacity  entropy
                                   cal/mol     cal/K/mol   cal/K/mol   J/K/mol
 298.15  VIB  0.228E+21            26726.811    173.325    164.786
         ROT  0.148E+09              888.752      2.981     40.364
         INT  0.336E+29            27615.563    176.306    205.150
         TR   0.203E+29             1481.254      4.968     45.750
         TOT                       29096.8168   181.2744   250.9003  1049.7667

       T/K    H(0)-H(T)+PV         H(T)/Eh          T*S/Eh         G(T)/Eh
   ------------------------------------------------------------------------
    298.15    0.463687E-01    0.770911E+00    0.119211E+00    0.651700E+00
   ------------------------------------------------------------------------

         :::::::::::::::::::::::::::::::::::::::::::::::::::::
         ::                  THERMODYNAMIC                  ::
         :::::::::::::::::::::::::::::::::::::::::::::::::::::
         :: total free energy        -148.069911601549 Eh   ::
         ::.................................................::
         :: total energy             -148.721612039955 Eh   ::
         :: zero point energy           0.724542521772 Eh   ::
         :: G(RRHO) w/o ZPVE           -0.072842083366 Eh   ::
         :: G(RRHO) contrib.            0.651700438406 Eh   ::
         :::::::::::::::::::::::::::::::::::::::::::::::::::::

           -------------------------------------------------
          | TOTAL ENERGY             -148.721612039955 Eh   |
          | TOTAL ENTHALPY           -147.950700789067 Eh   |
          | TOTAL FREE ENERGY        -148.069911601549 Eh   |
          | GRADIENT NORM               0.000084495278 Eh/α |
           -------------------------------------------------

 * finished run on 2025/09/13 at 00:12:20.256
