   * xtb version 6.7.1 (edcfbbe) compiled by 'albert@albert-system' on 2024-07-22

   ID    Z sym.   atoms
    1    6 C      1-5, 7-19, 21-40, 42-60
    2    7 N      6, 20, 41
    3    1 H      61-95

          program call               : xtb data2507/gas/CAPI/CAPI.xyz --gfn 2 --ohess vtight --parallel 40 --molden --ceasefiles --namespace data2507/gas/CAPI/CAPI_gas_S0_preOpt
          :  Hamiltonian                  GFN2-xTB          :
 * total energy  :  -148.7505862 Eh     change       -0.3334492E-08 Eh
 * total energy  :  -148.7721773 Eh     change       -0.2159118E-01 Eh
 * total energy  :  -148.7784967 Eh     change       -0.6319308E-02 Eh
 * total energy  :  -148.7796205 Eh     change       -0.1123872E-02 Eh
 * total energy  :  -148.7802242 Eh     change       -0.6036682E-03 Eh
 * total energy  :  -148.7805724 Eh     change       -0.3482465E-03 Eh
 * total energy  :  -148.7809224 Eh     change       -0.3499446E-03 Eh
 * total energy  :  -148.7812439 Eh     change       -0.3215649E-03 Eh
 * total energy  :  -148.7815372 Eh     change       -0.2932507E-03 Eh
 * total energy  :  -148.7817853 Eh     change       -0.2481039E-03 Eh
 * total energy  :  -148.7831549 Eh     change       -0.1601681E-05 Eh
 * total energy  :  -148.7831566 Eh     change       -0.1650633E-05 Eh
 * total energy  :  -148.7831580 Eh     change       -0.1459376E-05 Eh
 * total energy  :  -148.7831593 Eh     change       -0.1232765E-05 Eh
 * total energy  :  -148.7831603 Eh     change       -0.1056451E-05 Eh
 * total energy  :  -148.7831611 Eh     change       -0.7896176E-06 Eh
 * total energy  :  -148.7831617 Eh     change       -0.6219075E-06 Eh
 * total energy  :  -148.7831623 Eh     change       -0.5577755E-06 Eh
 * total energy  :  -148.7831623 Eh     change       -0.5212542E-08 Eh
   *** GEOMETRY OPTIMIZATION CONVERGED AFTER 68 ITERATIONS ***

 final structure:
================
95
 xtb: 6.7.1 (edcfbbe)
C           -1.28648934205389        3.30968379307022        2.02981649578440
C           -1.87374772223466        2.08375862999780        2.37768438723898
C           -2.76463629121802        1.47918056919347        1.53649368884803
C           -3.10097658665620        2.07071103049450        0.30098217486695
C           -3.98934721093948        1.46300395840160       -0.62584153139320
N           -4.46946803069281        0.16348315267689       -0.37295431437818
C           -3.67106422311189       -0.95938796367824       -0.29342325207541
C           -2.21818486705525       -0.91607598628477       -0.36321525945468
C           -1.53549228417742       -0.09246124557581       -1.25552953973083
C           -0.15817543595842       -0.01678037210446       -1.21672966809384
C            0.57013203938670       -0.76695378328568       -0.29839819421498
C            2.03854756342127       -0.63386796836658       -0.22176331233174
C            2.86204066487466       -1.70118860893817       -0.60831011853870
C            2.32610543261449       -2.91462498836738       -1.11441091949289
C            3.13771585846063       -3.93223534559032       -1.51186289059056
C            4.53840556045266       -3.79506076760065       -1.44389944153596
C            5.09454265997503       -2.64519105009911       -0.97459648293352
C            4.28315438165613       -1.56715479321901       -0.53479728930618
C            4.83491236395582       -0.36964403073095       -0.05738493942399
N            6.23462021413881       -0.23709118970763        0.02454511451883
C            7.00997345675681        0.60493125719576       -0.74276088555288
C            6.62344592898025        1.47689183848810       -1.75017221898566
C            7.61231787299912        2.20668833509222       -2.38012511137648
C            8.95336625383556        2.07270776041491       -2.02425694803418
C            9.34306571063802        1.19880465041142       -1.02917456924962
C            8.36799421004455        0.45332644493011       -0.37891459547916
C            8.40065373949913       -0.53009994726332        0.66731206280304
C            9.41806566098835       -1.09143063024459        1.42833858660706
C            9.08765055772285       -2.03226952349093        2.38299303899472
C            7.76282366113909       -2.41297051698154        2.59030583304013
C            6.73259947417727       -1.86980220479896        1.84807200951101
C            7.06163049000779       -0.93146301438525        0.88067353385875
C            4.01759018434975        0.69987537811481        0.33623754043552
C            4.55895394828452        1.90722127169678        0.84915016616365
C            3.74956737224504        2.93444438571920        1.22499428523217
C            2.35004965030836        2.80983565597924        1.12362134066317
C            1.79125689582514        1.65918908534243        0.65886685335746
C            2.59735038459844        0.56680269327436        0.24228907299825
C           -0.11050901601364       -1.63386453512073        0.55257891428797
C           -1.48717777709402       -1.70971747981007        0.51975173824389
N           -4.36883849506639       -2.04820664355784       -0.10062887328201
C           -5.67059184865133       -1.65653822051846       -0.06017996626044
C           -6.82485584175539       -2.47412432640469        0.09026824125947
C           -6.71816016667087       -3.86387087831366        0.20823006725815
C           -7.84540921656184       -4.63823368618860        0.32150552278542
C           -9.09820519209534       -4.02803426267177        0.31420741419990
C           -9.21439080406155       -2.66212140465043        0.20417664644032
C           -8.08594100466925       -1.83499319197102        0.09525023248644
C           -8.17441737632096       -0.38718031490649        0.01322515513562
C           -9.40467542678619        0.28094520105848        0.09130978295925
C           -9.49318402471866        1.65248838208268        0.06179695987150
C           -8.34003630372117        2.42548873179022       -0.02954369058668
C           -7.11560464622271        1.81085628548714       -0.11781724255270
C           -7.00659214390041        0.41296921739518       -0.12103158726304
C           -5.76417503432938       -0.27443222044608       -0.21451355968768
C           -4.32651216513943        2.09786478443801       -1.79753989136284
C           -3.78696920661205        3.35321158692429       -2.10289579388768
C           -2.89619309083871        3.94682988038765       -1.25230913941289
C           -2.53173187180964        3.32604964360541       -0.03955370918719
C           -1.61418146421991        3.92035692523419        0.85260084374381
H           -0.58373936696602        3.76909182773781        2.70907804510153
H           -1.61830344455529        1.62144249908231        3.31927784064017
H           -3.22370232805180        0.54361938532863        1.81901903092358
H           -2.07671520062810        0.48525221130430       -1.98930703957592
H            0.36518890695156        0.63060026818493       -1.90556380630003
H            1.25352804697532       -3.01348310361517       -1.18675255426114
H            2.71421299462762       -4.84920196083058       -1.89404831056456
H            5.16725687036554       -4.60720085801012       -1.77708769758692
H            6.16817589185759       -2.53847125312169       -0.93960634509255
H            5.58477949760515        1.58020583004147       -2.02734353518160
H            7.34137575236494        2.89557951221304       -3.16669053225384
H            9.69644366364915        2.66213791077638       -2.54071630124420
H           10.38313135442534        1.09223076999123       -0.75963444320899
H           10.44435410199004       -0.79378402704786        1.27371428704049
H            9.86459827721190       -2.48146499153162        2.98372705004921
H            7.53762302911651       -3.14815932367397        3.34883517491665
H            5.70634221241567       -2.16446699617699        2.01000955545216
H            5.63025944366968        2.00009395398346        0.94355278431468
H            4.17446302228364        3.84846508598509        1.61265203616228
H            1.72129462169168        3.63308237961339        1.42811805485062
H            0.71690147589916        1.56271366108017        0.60632687939928
H            0.44932731657635       -2.23263300038493        1.25646687442043
H           -2.02028970252948       -2.36967184567179        1.18651405196699
H           -5.72960099612067       -4.29608355967809        0.19989535334309
H           -7.76815233683793       -5.71176180645919        0.41118757274213
H           -9.98907521453593       -4.63403449194817        0.39616121077837
H          -10.20488764463004       -2.23546747772005        0.20054846321931
H          -10.31717844245728       -0.28500575255544        0.18694125890245
H          -10.45939903870399        2.13124937718880        0.12388173479987
H           -8.40623541982358        3.50347116779090       -0.02690130001954
H           -6.22198956862738        2.41293635703968       -0.16918498426709
H           -5.00714288915469        1.61808862141446       -2.48616939606941
H           -4.06920750051231        3.83483783978567       -3.02692250034085
H           -2.45837837305425        4.90350834209604       -1.49665382856104
H           -1.17785609243277        4.87175901415613        0.58392454757577

          :  Hamiltonian                  GFN2-xTB          :
         :: gradient norm              0.000052980547 Eh/a0 ::
         :: HOMO-LUMO gap              1.885219502381 eV    ::
         :: SCC energy              -151.627962495393 Eh    ::
         :: -> dispersion             -0.151196091932 Eh    ::
         :: repulsion energy           2.844800210523 Eh    ::

    * Orbital Energies and Occupations

         #    Occupation            Energy/Eh            Energy/eV
      -------------------------------------------------------------
         1        2.0000           -0.6870146             -18.6946
       ...           ...                  ...                  ...
       127        2.0000           -0.4095166             -11.1435
       128        2.0000           -0.4087693             -11.1232
       129        2.0000           -0.4063523             -11.0574
       130        2.0000           -0.4042277             -10.9996
       131        2.0000           -0.4009330             -10.9099
       132        2.0000           -0.3985270             -10.8445
       133        2.0000           -0.3906325             -10.6297
       134        2.0000           -0.3790972             -10.3158
       135        2.0000           -0.3756083             -10.2208
       136        2.0000           -0.3750254             -10.2050
       137        2.0000           -0.3707013             -10.0873
       138        2.0000           -0.3627729              -9.8716
       139        2.0000           -0.3568824              -9.7113 (HOMO)
       140                         -0.2876019              -7.8260 (LUMO)
       141                         -0.2770935              -7.5401
       142                         -0.2569811              -6.9928
       143                         -0.2465401              -6.7087
       144                         -0.2449245              -6.6647
       145                         -0.2412415              -6.5645
       146                         -0.2397426              -6.5237
       147                         -0.2382243              -6.4824
       148                         -0.2301839              -6.2636
       149                         -0.2262676              -6.1571
       150                         -0.2181403              -5.9359
       ...                                ...                  ...
       275                          0.7496209              20.3982
      -------------------------------------------------------------
                  HL-Gap            0.0692805 Eh            1.8852 eV

     #   Z          covCN         q      C6AA      α(0)
     1   6 C        2.916    -0.026    28.651     8.777
     2   6 C        2.917    -0.028    28.688     8.783
     3   6 C        2.917    -0.031    28.765     8.795
     4   6 C        2.987     0.003    27.949     8.672
     5   6 C        2.909     0.060    26.648     8.465
     6   7 N        2.841    -0.044    22.086     6.980
     7   6 C        3.195     0.129    24.709     8.104
     8   6 C        2.974     0.002    27.974     8.676
     9   6 C        2.921    -0.034    28.846     8.808
    10   6 C        2.924    -0.032    28.805     8.801
    11   6 C        2.978     0.016    27.646     8.625
    12   6 C        2.977    -0.006    28.158     8.704
    13   6 C        2.984     0.007    27.856     8.658
    14   6 C        2.917    -0.034    28.836     8.806
    15   6 C        2.914    -0.028    28.705     8.786
    16   6 C        2.915    -0.028    28.693     8.784
    17   6 C        2.917    -0.032    28.788     8.798
    18   6 C        2.983     0.001    27.994     8.679
    19   6 C        2.911     0.045    26.986     8.518
    20   7 N        2.803    -0.045    22.101     6.982
    21   6 C        3.081     0.048    26.840     8.493
    22   6 C        2.909    -0.050    29.233     8.866
    23   6 C        2.925    -0.033    28.833     8.806
    24   6 C        2.920    -0.042    29.037     8.837
    25   6 C        2.912    -0.033    28.832     8.805
    26   6 C        3.068    -0.019    28.409     8.740
    27   6 C        3.069    -0.019    28.410     8.740
    28   6 C        2.912    -0.033    28.832     8.805
    29   6 C        2.920    -0.042    29.035     8.836
    30   6 C        2.925    -0.033    28.830     8.805
    31   6 C        2.909    -0.050    29.231     8.865
    32   6 C        3.081     0.048    26.839     8.493
    33   6 C        2.983     0.001    27.999     8.680
    34   6 C        2.917    -0.032    28.788     8.798
    35   6 C        2.915    -0.028    28.711     8.786
    36   6 C        2.915    -0.029    28.732     8.790
    37   6 C        2.917    -0.033    28.831     8.805
    38   6 C        2.984     0.007    27.867     8.659
    39   6 C        2.923    -0.031    28.782     8.798
    40   6 C        2.926    -0.028    28.700     8.785
    41   7 N        1.893    -0.291    28.404     7.901
    42   6 C        3.210     0.056    26.129     8.321
    43   6 C        2.986     0.003    27.958     8.673
    44   6 C        2.922    -0.031    28.780     8.797
    45   6 C        2.917    -0.030    28.754     8.793
    46   6 C        2.917    -0.033    28.819     8.803
    47   6 C        2.922    -0.035    28.866     8.811
    48   6 C        2.979    -0.002    28.059     8.689
    49   6 C        2.980     0.002    27.978     8.676
    50   6 C        2.922    -0.034    28.839     8.807
    51   6 C        2.916    -0.033    28.828     8.805
    52   6 C        2.917    -0.032    28.790     8.799
    53   6 C        2.919    -0.040    28.982     8.828
    54   6 C        2.978    -0.002    28.068     8.690
    55   6 C        3.074     0.020    27.492     8.597
    56   6 C        2.919    -0.040    28.991     8.830
    57   6 C        2.915    -0.030    28.754     8.793
    58   6 C        2.918    -0.037    28.923     8.819
    59   6 C        2.987     0.014    27.683     8.631
    60   6 C        2.919    -0.033    28.825     8.804
    61   1 H        0.926     0.035     2.515     2.480
    62   1 H        0.926     0.035     2.510     2.477
    63   1 H        0.926     0.034     2.524     2.484
    64   1 H        0.926     0.029     2.601     2.522
    65   1 H        0.926     0.032     2.553     2.499
    66   1 H        0.926     0.037     2.495     2.470
    67   1 H        0.926     0.033     2.540     2.492
    68   1 H        0.926     0.033     2.542     2.493
    69   1 H        0.926     0.037     2.494     2.469
    70   1 H        0.926     0.022     2.696     2.567
    71   1 H        0.926     0.027     2.627     2.535
    72   1 H        0.926     0.026     2.637     2.539
    73   1 H        0.926     0.030     2.592     2.518
    74   1 H        0.926     0.030     2.593     2.518
    75   1 H        0.926     0.027     2.634     2.538
    76   1 H        0.926     0.028     2.620     2.531
    77   1 H        0.926     0.023     2.687     2.563
    78   1 H        0.926     0.037     2.488     2.467
    79   1 H        0.926     0.032     2.554     2.499
    80   1 H        0.926     0.030     2.583     2.513
    81   1 H        0.926     0.030     2.581     2.512
    82   1 H        0.926     0.037     2.488     2.467
    83   1 H        0.926     0.051     2.310     2.377
    84   1 H        0.926     0.050     2.319     2.382
    85   1 H        0.926     0.030     2.589     2.516
    86   1 H        0.926     0.028     2.619     2.531
    87   1 H        0.926     0.030     2.582     2.513
    88   1 H        0.926     0.034     2.529     2.487
    89   1 H        0.926     0.028     2.609     2.526
    90   1 H        0.926     0.027     2.634     2.538
    91   1 H        0.926     0.025     2.659     2.550
    92   1 H        0.926     0.041     2.437     2.441
    93   1 H        0.926     0.039     2.466     2.456
    94   1 H        0.926     0.038     2.469     2.457
    95   1 H        0.926     0.036     2.503     2.474

molecular dipole:
                 x           y           z       tot (Debye)
 q only:       -0.042       0.751      -0.021
   full:       -0.281       1.184      -0.096       3.103

 projected vibrational frequencies (cm⁻¹)
eigval :       -0.00     0.00     0.00     0.00     0.00     0.00
eigval :        7.83    10.46    13.77    20.17    24.96    31.13
eigval :       33.02    39.75    46.46    56.99    61.28    73.45
eigval :       75.90    77.38    87.80    90.26    98.46   112.81
eigval :      121.26   128.10   141.73   146.19   154.48   160.54
eigval :      168.15   183.22   188.72   204.03   208.94   212.91
eigval :      232.36   239.06   246.78   254.82   270.99   273.19
eigval :      300.78   309.39   315.35   347.14   373.49   377.10
eigval :      379.22   388.99   393.76   396.53   400.46   405.43
eigval :      411.94   412.41   422.54   422.92   429.54   434.57
eigval :      436.80   439.81   445.81   449.21   458.83   472.71
eigval :      488.63   503.42   513.54   517.96   523.69   528.32
eigval :      534.23   539.50   541.37   541.80   544.07   582.78
eigval :      584.50   586.65   588.69   594.53   601.50   615.73
eigval :      620.09   631.51   639.77   642.59   649.82   661.72
eigval :      672.60   675.38   680.62   681.95   687.78   693.12
eigval :      704.48   706.86   708.38   722.35   735.29   736.82
eigval :      737.72   755.99   761.97   766.49   767.44   774.05
eigval :      775.44   776.87   778.97   782.71   784.63   817.07
eigval :      818.90   843.35   853.94   863.26   866.85   869.15
eigval :      873.19   874.32   875.29   876.97   878.32   887.80
eigval :      896.66   900.72   901.68   902.19   907.61   908.31
eigval :      914.47   916.85   917.52   918.89   920.79   921.18
eigval :      921.40   923.58   924.89   927.29   927.45   928.69
eigval :      929.71   931.26   933.60   935.53   944.12  1002.60
eigval :     1012.13  1017.10  1043.05  1058.53  1067.71  1071.19
eigval :     1082.85  1083.63  1085.10  1085.38  1098.63  1107.94
eigval :     1113.55  1134.72  1136.30  1142.33  1146.69  1150.69
eigval :     1152.34  1171.21  1172.82  1175.34  1181.07  1181.21
eigval :     1181.45  1182.47  1183.17  1185.49  1187.89  1194.66
eigval :     1196.55  1212.06  1218.39  1224.56  1229.24  1231.44
eigval :     1239.01  1250.57  1255.27  1257.91  1259.17  1263.76
eigval :     1270.55  1284.01  1288.09  1296.21  1307.21  1307.33
eigval :     1314.41  1324.42  1335.80  1337.73  1342.69  1347.66
eigval :     1349.82  1353.18  1358.78  1363.06  1384.53  1386.75
eigval :     1388.32  1394.36  1399.50  1408.10  1416.57  1420.09
eigval :     1421.70  1428.48  1429.60  1432.12  1432.82  1436.87
eigval :     1448.46  1458.35  1471.76  1476.24  1486.96  1489.54
eigval :     1507.48  1515.25  1518.12  1526.91  1532.73  1540.42
eigval :     1547.13  1558.43  1562.50  1566.06  1572.68  1573.26
eigval :     1589.80  1595.02  1595.69  1598.63  1599.34  1605.26
eigval :     1607.76  1610.83  1615.83  1621.90  3072.14  3073.69
eigval :     3074.77  3075.31  3075.47  3078.51  3078.88  3078.99
eigval :     3079.37  3080.04  3080.41  3080.62  3082.83  3083.58
eigval :     3084.90  3085.03  3085.86  3085.92  3086.43  3088.16
eigval :     3088.97  3093.92  3094.65  3095.69  3096.07  3096.10
eigval :     3096.87  3096.94  3098.93  3099.06  3099.90  3102.26
eigval :     3104.68  3108.59  3110.65

   temp. (K)  partition function   enthalpy   heat capacity  entropy
                                   cal/mol     cal/K/mol   cal/K/mol   J/K/mol
 298.15  VIB  0.365E+21            26653.342    172.173    164.899
         ROT  0.148E+09              888.752      2.981     40.363
         INT  0.539E+29            27542.095    175.154    205.262
         TR   0.203E+29             1481.254      4.968     45.750
         TOT                       29023.3486   180.1219   251.0124  1050.2357

       T/K    H(0)-H(T)+PV         H(T)/Eh          T*S/Eh         G(T)/Eh
   ------------------------------------------------------------------------
    298.15    0.462517E-01    0.773428E+00    0.119264E+00    0.654164E+00
   ------------------------------------------------------------------------

         :::::::::::::::::::::::::::::::::::::::::::::::::::::
         ::                  THERMODYNAMIC                  ::
         :::::::::::::::::::::::::::::::::::::::::::::::::::::
         :: total free energy        -148.128997941549 Eh   ::
         ::.................................................::
         :: total energy             -148.783162284869 Eh   ::
         :: zero point energy           0.727176765585 Eh   ::
         :: G(RRHO) w/o ZPVE           -0.073012422265 Eh   ::
         :: G(RRHO) contrib.            0.654164343320 Eh   ::
         :::::::::::::::::::::::::::::::::::::::::::::::::::::

           -------------------------------------------------
          | TOTAL ENERGY             -148.783162284869 Eh   |
          | TOTAL ENTHALPY           -148.009733869277 Eh   |
          | TOTAL FREE ENERGY        -148.128997941549 Eh   |
          | GRADIENT NORM               0.000052974410 Eh/α |
          | HOMO-LUMO GAP               1.885219243100 eV   |
           -------------------------------------------------

 * finished run on 2025/09/13 at 00:01:42.648
