   * xtb version 6.7.1 (edcfbbe) compiled by 'albert@albert-system' on 2024-07-22

   ID    Z sym.   atoms
    1    6 C      1-5, 7, 8, 10-21, 23, 24, 26-38
    2    7 N      6, 9, 22, 25
    3    1 H      39-60

          program call               : xtb data2507/toluene/CPzPC/CPzPC_toluene_S0_finalOpt.xtbopt.xyz --gfn 2 --uhf 2 --gbsa toluene --ohess vtight --parallel 40 --molden --ceasefiles --namespace data2507/toluene/CPzPC/CPzPC_toluene_T1_preOpt
      * Solvation model:               GBSA
        Solvent                        toluene
        Solvent mass                       9.2140E+01 g/mol
          :  Hamiltonian                  GFN2-xTB          :
 * total energy  :   -95.7361368 Eh     change       -0.1723802E-07 Eh
 * total energy  :   -95.7396517 Eh     change       -0.3514915E-02 Eh
 * total energy  :   -95.7407015 Eh     change       -0.1049722E-02 Eh
 * total energy  :   -95.7410275 Eh     change       -0.3260935E-03 Eh
 * total energy  :   -95.7412571 Eh     change       -0.2295702E-03 Eh
 * total energy  :   -95.7413445 Eh     change       -0.8740823E-04 Eh
 * total energy  :   -95.7414126 Eh     change       -0.6804353E-04 Eh
 * total energy  :   -95.7414610 Eh     change       -0.4838304E-04 Eh
 * total energy  :   -95.7414970 Eh     change       -0.3601758E-04 Eh
 * total energy  :   -95.7415223 Eh     change       -0.2531125E-04 Eh
 * total energy  :   -95.7418476 Eh     change       -0.2374950E-05 Eh
 * total energy  :   -95.7418502 Eh     change       -0.2592535E-05 Eh
 * total energy  :   -95.7418526 Eh     change       -0.2393897E-05 Eh
 * total energy  :   -95.7418546 Eh     change       -0.2007117E-05 Eh
 * total energy  :   -95.7418562 Eh     change       -0.1635736E-05 Eh
 * total energy  :   -95.7418575 Eh     change       -0.1330755E-05 Eh
 * total energy  :   -95.7418587 Eh     change       -0.1175055E-05 Eh
 * total energy  :   -95.7418599 Eh     change       -0.1152737E-05 Eh
 * total energy  :   -95.7418599 Eh     change       -0.4725280E-08 Eh
   *** GEOMETRY OPTIMIZATION CONVERGED AFTER 68 ITERATIONS ***

 final structure:
================
60
 xtb: 6.7.1 (edcfbbe)
C            1.32469893985322        1.76660082005123       -1.93683529784867
C            0.27784089785962        1.08186651685234       -1.36900115030096
C            0.50675821047005        0.04563386869227       -0.43264839082790
C           -0.60890707393482       -0.61873663891433        0.15893755590084
C           -0.51197002117351       -1.79602550455348        0.92841574705957
N           -1.55024039058065       -2.37923729191184        1.44780715845655
C           -2.78087828296884       -1.86117189880829        1.25223432767304
C           -2.92512756000759       -0.75629006865983        0.41050865688639
N           -4.17822461096095       -0.21459510019999        0.18539124233939
C           -5.36978600300087       -0.90716150332513        0.03763576263116
C           -5.59304695227294       -2.26940348940198       -0.10184437948817
C           -6.89915032060501       -2.69710382941078       -0.26707883701578
C           -7.95880800017137       -1.79584284858454       -0.30644492435384
C           -7.73851615866072       -0.43387159222253       -0.20252545156987
C           -6.43773469914181        0.01700874953207       -0.03490139965236
C           -5.85490126109871        1.33046254234357        0.07089162938762
C           -6.38228661894502        2.61334932978551        0.06156590213358
C           -5.51542696743384        3.68550289024037        0.18069708986753
C           -4.14293841097038        3.48961450240881        0.30805648405661
C           -3.59564280500655        2.21870868353435        0.32503359517688
C           -4.46060265829923        1.14368972680120        0.19655755038118
N           -1.87487328919613       -0.15923008849179       -0.11469787267919
C            1.84097460069578       -0.24380312817187       -0.09316317445826
C            2.88474682574090        0.45282598840219       -0.67214059503303
N            4.20946199730085        0.14622120126403       -0.31482411977361
C            4.78084933486806       -1.10758239442747       -0.33132336772972
C            4.23824073907609       -2.32001654965886       -0.73726282038048
C            5.04402089482541       -3.44135246796437       -0.67258198844408
C            6.36085997204740       -3.36489091031254       -0.22368250670594
C            6.91391549289454       -2.15680270379275        0.16032314640936
C            6.12468851544044       -1.01704267794690        0.10452312198896
C            6.36236000403346        0.37021260271150        0.40112420994680
C            7.46095236392585        1.07354815832094        0.87420163451796
C            7.33883974280042        2.43675005208062        1.07303863856813
C            6.13741764499853        3.09479382508176        0.81839853500803
C            5.02899689936827        2.41583160596827        0.34808052875512
C            5.15208541327579        1.05043410447437        0.12557646632224
C            2.63966093102079        1.46246122752821       -1.60782222511516
H            1.12554186023566        2.54733604704429       -2.65683449254594
H           -0.74319168054019        1.31889107311277       -1.62444083376377
H            0.44051744682945       -2.28718229331017        1.06081576191772
H           -3.60021589599121       -2.26926259042263        1.81724017402540
H           -4.77721175391833       -2.97585643423023       -0.09741466677048
H           -7.09670742113690       -3.75326082013273       -0.37335402714251
H           -8.96423908033857       -2.16753771185838       -0.43451412935589
H           -8.55781837688057        0.26627563129714       -0.25660056185769
H           -7.44561594986191        2.76869507563650       -0.03745711522562
H           -5.90687924810660        4.69181741028798        0.17721143258617
H           -3.49112043872886        4.34534913094467        0.40122566160209
H           -2.53318644792072        2.06294986126937        0.42913002883957
H            2.06747793487898       -0.99227123539387        0.65079275988038
H            3.22403314368921       -2.38241454169662       -1.10214759967060
H            4.64483159428215       -4.39677645119822       -0.98004144606586
H            6.95824301749789       -4.26381631434653       -0.18513826895593
H            7.93935338629716       -2.09788205663476        0.49280076546829
H            8.38891239383788        0.56388595962299        1.08561702382910
H            8.18288181769620        3.00236012555106        1.43915160627797
H            6.06915704009150        4.15795380041918        0.99639454524739
H            4.09615361903979        2.92797694364590        0.16793066793023
H            3.46495197465586        1.97617964975301       -2.07511439493201

          :  Hamiltonian                  GFN2-xTB          :
         :: gradient norm              0.000057673309 Eh/a0 ::
         :: HOMO-LUMO gap              0.531895567362 eV    ::
         :: SCC energy               -97.494715595341 Eh    ::
         :: -> dispersion             -0.081608198201 Eh    ::
         :: -> Gsolv                  -0.040410069894 Eh    ::
         :: repulsion energy           1.752855722180 Eh    ::

    * Orbital Energies and Occupations

         #    Occupation            Energy/Eh            Energy/eV
      -------------------------------------------------------------
         1        2.0000           -0.6912401             -18.8096
       ...           ...                  ...                  ...
        78        2.0000           -0.4239143             -11.5353
        79        2.0000           -0.4225266             -11.4975
        80        2.0000           -0.4211786             -11.4609
        81        2.0000           -0.4164949             -11.3334
        82        2.0000           -0.4102288             -11.1629
        83        2.0000           -0.4079083             -11.0998
        84        2.0000           -0.3931684             -10.6987
        85        2.0000           -0.3906633             -10.6305
        86        2.0000           -0.3838416             -10.4449
        87        2.0000           -0.3815457             -10.3824
        88        1.9314           -0.3667121              -9.9787
        89        1.0686           -0.3617556              -9.8439
        90        1.0000           -0.2815541              -7.6615 (HOMO)
        91        0.0000           -0.2620074              -7.1296 (LUMO)
        92                         -0.2529868              -6.8841
        93                         -0.2499796              -6.8023
        94                         -0.2336685              -6.3584
        95                         -0.2275961              -6.1932
        96                         -0.2272096              -6.1827
        97                         -0.2151506              -5.8545
        98                         -0.1980636              -5.3896
        99                         -0.1975036              -5.3743
       100                         -0.1911069              -5.2003
       101                         -0.1901674              -5.1747
       ...                                ...                  ...
       174                          0.7397050              20.1284
      -------------------------------------------------------------
                  HL-Gap            0.0195468 Eh            0.5319 eV

     #   Z          covCN         q      C6AA      α(0)
     1   6 C        2.914    -0.032    28.788     8.798
     2   6 C        2.924    -0.040    28.993     8.830
     3   6 C        2.972    -0.004    28.129     8.700
     4   6 C        2.928     0.053    26.818     8.493
     5   6 C        2.888     0.049    26.898     8.503
     6   7 N        1.839    -0.206    26.300     7.600
     7   6 C        2.891    -0.010    28.267     8.717
     8   6 C        2.861     0.156    24.623     8.134
     9   7 N        2.805    -0.037    21.964     6.961
    10   6 C        3.062     0.047    26.891     8.504
    11   6 C        2.910    -0.047    29.161     8.855
    12   6 C        2.923    -0.031    28.776     8.797
    13   6 C        2.920    -0.035    28.870     8.811
    14   6 C        2.912    -0.030    28.760     8.794
    15   6 C        3.065    -0.011    28.230     8.713
    16   6 C        3.062    -0.013    28.265     8.718
    17   6 C        2.912    -0.031    28.772     8.796
    18   6 C        2.920    -0.035    28.866     8.811
    19   6 C        2.924    -0.031    28.772     8.796
    20   6 C        2.910    -0.043    29.057     8.839
    21   6 C        3.069     0.054    26.725     8.477
    22   7 N        1.853    -0.257    27.533     7.777
    23   6 C        2.923    -0.060    29.504     8.907
    24   6 C        2.909     0.060    26.657     8.466
    25   7 N        2.803    -0.033    21.871     6.946
    26   6 C        3.077     0.048    26.840     8.494
    27   6 C        2.909    -0.047    29.173     8.857
    28   6 C        2.923    -0.033    28.835     8.806
    29   6 C        2.920    -0.038    28.954     8.824
    30   6 C        2.912    -0.032    28.804     8.801
    31   6 C        3.066    -0.016    28.335     8.729
    32   6 C        3.066    -0.016    28.338     8.729
    33   6 C        2.912    -0.032    28.803     8.800
    34   6 C        2.920    -0.038    28.951     8.823
    35   6 C        2.923    -0.033    28.826     8.805
    36   6 C        2.909    -0.047    29.162     8.855
    37   6 C        3.077     0.049    26.829     8.492
    38   6 C        2.919    -0.057    29.405     8.892
    39   1 H        0.926     0.037     2.488     2.467
    40   1 H        0.926     0.043     2.414     2.430
    41   1 H        0.926     0.050     2.322     2.383
    42   1 H        0.926     0.042     2.427     2.436
    43   1 H        0.926     0.035     2.517     2.481
    44   1 H        0.926     0.043     2.415     2.430
    45   1 H        0.926     0.043     2.407     2.426
    46   1 H        0.926     0.046     2.374     2.410
    47   1 H        0.926     0.045     2.382     2.414
    48   1 H        0.926     0.043     2.411     2.428
    49   1 H        0.926     0.043     2.415     2.430
    50   1 H        0.926     0.047     2.356     2.401
    51   1 H        0.926     0.029     2.595     2.519
    52   1 H        0.926     0.032     2.557     2.501
    53   1 H        0.926     0.035     2.523     2.484
    54   1 H        0.926     0.034     2.524     2.485
    55   1 H        0.926     0.037     2.491     2.468
    56   1 H        0.926     0.036     2.496     2.471
    57   1 H        0.926     0.034     2.524     2.485
    58   1 H        0.926     0.036     2.508     2.476
    59   1 H        0.926     0.036     2.503     2.474
    60   1 H        0.926     0.036     2.508     2.476

molecular dipole:
                 x           y           z       tot (Debye)
 q only:       -0.561       0.546      -0.137
   full:       -0.496       0.407      -0.075       1.642

 projected vibrational frequencies (cm⁻¹)
eigval :       -0.00    -0.00     0.00     0.00     0.00     0.00
eigval :       10.96    14.51    23.14    30.96    40.23    62.57
eigval :       76.78    90.99    97.51   100.65   116.87   128.90
eigval :      137.93   140.16   189.86   193.98   209.36   218.78
eigval :      231.74   270.64   271.21   276.57   285.62   321.32
eigval :      335.22   354.19   378.10   383.32   391.99   395.47
eigval :      420.62   421.14   429.98   433.03   434.74   464.54
eigval :      499.34   514.25   515.87   521.74   535.92   538.61
eigval :      544.25   553.93   561.61   582.72   585.46   596.27
eigval :      606.68   614.00   620.08   635.74   647.81   668.85
eigval :      673.43   675.29   683.36   709.30   710.79   723.23
eigval :      752.98   755.39   765.16   769.13   773.59   776.73
eigval :      779.76   804.89   812.99   836.90   857.14   865.37
eigval :      870.31   872.32   875.35   892.59   896.37   898.83
eigval :      901.59   902.57   904.72   909.66   914.91   919.01
eigval :      920.34   920.91   924.32   948.25   982.93  1008.41
eigval :     1010.69  1018.40  1064.95  1066.36  1069.22  1071.71
eigval :     1076.93  1084.97  1112.24  1118.93  1128.07  1142.72
eigval :     1144.81  1149.57  1172.37  1172.97  1177.05  1177.81
eigval :     1179.05  1185.62  1189.75  1223.42  1229.11  1231.71
eigval :     1234.77  1253.45  1267.95  1272.64  1287.21  1291.39
eigval :     1291.52  1293.95  1331.40  1336.97  1346.27  1346.91
eigval :     1354.98  1357.47  1359.27  1369.03  1411.12  1413.79
eigval :     1416.03  1417.76  1424.75  1444.19  1452.15  1462.76
eigval :     1465.34  1473.90  1478.60  1482.54  1504.08  1557.45
eigval :     1566.87  1569.80  1582.57  1583.32  1584.00  1585.67
eigval :     1600.95  1604.63  3067.93  3072.29  3075.30  3075.65
eigval :     3080.33  3080.38  3081.58  3081.69  3086.60  3087.12
eigval :     3087.44  3088.42  3089.61  3093.66  3094.23  3095.26
eigval :     3095.81  3098.41  3099.83  3100.94  3103.00  3109.95

   temp. (K)  partition function   enthalpy   heat capacity  entropy
                                   cal/mol     cal/K/mol   cal/K/mol   J/K/mol
 298.15  VIB  0.122E+13            16431.276    108.697    100.047
         ROT  0.457E+08              888.752      2.981     38.030
         INT  0.556E+20            17320.028    111.678    138.078
         TR   0.104E+29             1481.254      4.968     44.414
         TOT                       18801.2820   116.6458   182.4917   763.5451

       T/K    H(0)-H(T)+PV         H(T)/Eh          T*S/Eh         G(T)/Eh
   ------------------------------------------------------------------------
    298.15    0.299617E-01    0.481351E+00    0.867077E-01    0.394643E+00
   ------------------------------------------------------------------------

         :::::::::::::::::::::::::::::::::::::::::::::::::::::
         ::                  THERMODYNAMIC                  ::
         :::::::::::::::::::::::::::::::::::::::::::::::::::::
         :: total free energy         -95.347216668433 Eh   ::
         ::.................................................::
         :: total energy              -95.741859869910 Eh   ::
         :: zero point energy           0.451389124675 Eh   ::
         :: G(RRHO) w/o ZPVE           -0.056745923198 Eh   ::
         :: G(RRHO) contrib.            0.394643201477 Eh   ::
         :::::::::::::::::::::::::::::::::::::::::::::::::::::

           -------------------------------------------------
          | TOTAL ENERGY              -95.741859869910 Eh   |
          | TOTAL ENTHALPY            -95.260508995282 Eh   |
          | TOTAL FREE ENERGY         -95.347216668433 Eh   |
          | GRADIENT NORM               0.000057980029 Eh/α |
          | HOMO-LUMO GAP               0.531894826306 eV   |
           -------------------------------------------------

 * finished run on 2025/08/30 at 21:14:22.449
