   * xtb version 6.7.1 (edcfbbe) compiled by 'albert@albert-system' on 2024-07-22

   ID    Z sym.   atoms
    1    6 C      1-5, 7, 8, 10-21, 23, 24, 26-38
    2    7 N      6, 9, 22, 25
    3    1 H      39-60

          program call               : xtb data2507/toluene/CPzPC/CPzPC_toluene_T1_crest.xyz --gfn 2 --uhf 2 --gbsa toluene --ohess vtight --parallel 40 --molden --ceasefiles --namespace data2507/toluene/CPzPC/CPzPC_toluene_T1_finalOpt
      * Solvation model:               GBSA
        Solvent                        toluene
        Solvent mass                       9.2140E+01 g/mol
          :  Hamiltonian                  GFN2-xTB          :
 * total energy  :   -95.7418175 Eh     change       -0.5508042E-08 Eh
 * total energy  :   -95.7418495 Eh     change       -0.3201658E-04 Eh
 * total energy  :   -95.7418653 Eh     change       -0.1578983E-04 Eh
 * total energy  :   -95.7418719 Eh     change       -0.6609820E-05 Eh
 * total energy  :   -95.7418760 Eh     change       -0.4106625E-05 Eh
 * total energy  :   -95.7418788 Eh     change       -0.2811921E-05 Eh
 * total energy  :   -95.7418818 Eh     change       -0.2942377E-05 Eh
 * total energy  :   -95.7418852 Eh     change       -0.3459510E-05 Eh
 * total energy  :   -95.7418888 Eh     change       -0.3620831E-05 Eh
 * total energy  :   -95.7418919 Eh     change       -0.3106276E-05 Eh
 * total energy  :   -95.7418944 Eh     change       -0.2453278E-05 Eh
 * total energy  :   -95.7418964 Eh     change       -0.2015241E-05 Eh
 * total energy  :   -95.7418980 Eh     change       -0.1583120E-05 Eh
 * total energy  :   -95.7418990 Eh     change       -0.1009857E-05 Eh
 * total energy  :   -95.7418995 Eh     change       -0.5284319E-06 Eh
 * total energy  :   -95.7418999 Eh     change       -0.3228827E-06 Eh
 * total energy  :   -95.7419001 Eh     change       -0.2668177E-06 Eh
 * total energy  :   -95.7419003 Eh     change       -0.1408567E-06 Eh
 * total energy  :   -95.7419003 Eh     change       -0.8006462E-07 Eh
   *** GEOMETRY OPTIMIZATION CONVERGED AFTER 19 ITERATIONS ***

 final structure:
================
60
 xtb: 6.7.1 (edcfbbe)
C            1.30515758775801       -1.83716716579635       -1.84559229191739
C            0.26569590511805       -1.14583620373012       -1.27233534835988
C            0.50612686295974       -0.09835878630861       -0.35119813195542
C           -0.60301779305405        0.57531485299892        0.24167417307665
C           -0.49573848782007        1.74494384754950        1.02190870804151
N           -1.52977548862761        2.33927673173558        1.53663778299849
C           -2.76675370545640        1.84447654927880        1.32194386100283
C           -2.91964518794343        0.74882964263032        0.46967053301953
N           -4.17946051298475        0.23581797860120        0.21654911904037
C           -4.49037969951576       -1.11579118911109        0.19774536128350
C           -3.65370976707400       -2.21080955888741        0.34376144570196
C           -4.22640487541720       -3.46929898997527        0.28651079134517
C           -5.59636235732002       -3.63387768144088        0.10125102929944
C           -6.43551610429718       -2.54180671603183       -0.03392567395278
C           -5.88238593520320       -1.27077337118761        0.01636183492819
C           -6.43323746645086        0.05620838296376       -0.09125884061707
C           -7.71686357007814        0.53710289596409       -0.30244264841193
C           -7.90434785978996        1.90462838385706       -0.39653997850900
C           -6.82825336867145        2.78229526842329       -0.30398881531648
C           -5.53892457648226        2.32463530480989       -0.09374550564502
C           -5.34960949097844        0.95614415258694        0.03427249081031
N           -1.87329640078610        0.13600115297242       -0.04473920394428
C            1.84484146997731        0.19638925947654       -0.03470272401400
C            2.88132300403836       -0.50265449369402       -0.62387052588465
N            4.21065076749270       -0.17798784483046       -0.30175300011160
C            5.17729004144202       -1.06487074528312        0.12110988999157
C            5.07820662395656       -2.42857599682418        0.36513565990692
C            6.20925164057643       -3.08786463417663        0.80891252141720
C            7.40974166562373       -2.41209651899820        1.01725764155569
C            7.50857960048651       -1.05021810146152        0.79735859470012
C            6.38707715955809       -0.36657376421452        0.35004458378086
C            6.12378935443818        1.01347228312317        0.04155146493151
C            6.90077676016667        2.16287238162995        0.05650472276138
C            6.32216185387628        3.35861448592623       -0.32850768251484
C            4.99156868015801        3.41320587764062       -0.73826378134096
C            4.19754782144428        2.28194578449026       -0.76170563461170
C            4.76636660941791        1.08206235797296       -0.35417338335577
C            2.62441762738223       -1.52603065103865       -1.54123668447335
H            1.09656009484676       -2.62750438192857       -2.55233609178805
H           -0.75849105961822       -1.38616947935100       -1.51142147509470
H            0.46266865151522        2.22005102444781        1.16906592916970
H           -3.58592440895873        2.26418303420080        1.87850039264179
H           -2.59310386195757       -2.07969522715251        0.49164375591854
H           -3.59681524391890       -4.34010976515232        0.39213639744509
H           -6.00821657476831       -4.63141019629332        0.06607822740774
H           -7.49708734328580       -2.67285911544049       -0.17710638673122
H           -8.54774434128170       -0.14475750348672       -0.39768619390718
H           -8.89588843971357        2.29958366361537       -0.55887539141699
H           -6.99929714736154        3.84374797698736       -0.40335242640113
H           -4.70942808300494        3.01347634654244       -0.04789366602110
H            2.08204253555345        0.95537692204736        0.69503191078379
H            4.14670627459536       -2.95435605321548        0.22100686930970
H            6.15991274781575       -4.14934044381792        1.00255880934612
H            8.27208571521047       -2.96252471157840        1.36331472351473
H            8.43628711765831       -0.52667122486532        0.97285609632482
H            7.93624091498770        2.12083413755486        0.35905822036948
H            6.90966397120424        4.26479810101458       -0.32133654834002
H            4.57206173859044        4.35916501101597       -1.04789138418289
H            3.17197007516988        2.32747286483809       -1.09602045036102
H            3.44356799170009       -2.04296608142336       -2.01563318474485

          :  Hamiltonian                  GFN2-xTB          :
         :: gradient norm              0.000036341194 Eh/a0 ::
         :: HOMO-LUMO gap              0.533831925129 eV    ::
         :: SCC energy               -97.494868308476 Eh    ::
         :: -> dispersion             -0.081616667026 Eh    ::
         :: -> Gsolv                  -0.040394271900 Eh    ::
         :: repulsion energy           1.752967960249 Eh    ::

    * Orbital Energies and Occupations

         #    Occupation            Energy/Eh            Energy/eV
      -------------------------------------------------------------
         1        2.0000           -0.6911491             -18.8071
       ...           ...                  ...                  ...
        78        2.0000           -0.4239646             -11.5367
        79        2.0000           -0.4225378             -11.4978
        80        2.0000           -0.4212035             -11.4615
        81        2.0000           -0.4164273             -11.3316
        82        2.0000           -0.4102843             -11.1644
        83        2.0000           -0.4078432             -11.0980
        84        2.0000           -0.3930562             -10.6956
        85        2.0000           -0.3905812             -10.6283
        86        2.0000           -0.3839220             -10.4470
        87        2.0000           -0.3813569             -10.3772
        88        1.9306           -0.3667546              -9.9799
        89        1.0694           -0.3618220              -9.8457
        90        1.0000           -0.2816224              -7.6633 (HOMO)
        91        0.0000           -0.2620044              -7.1295 (LUMO)
        92                         -0.2529391              -6.8828
        93                         -0.2500501              -6.8042
        94                         -0.2335898              -6.3563
        95                         -0.2276141              -6.1937
        96                         -0.2272402              -6.1835
        97                         -0.2150055              -5.8506
        98                         -0.1979333              -5.3860
        99                         -0.1974219              -5.3721
       100                         -0.1911761              -5.2022
       101                         -0.1900793              -5.1723
       ...                                ...                  ...
       174                          0.7396185              20.1260
      -------------------------------------------------------------
                  HL-Gap            0.0196180 Eh            0.5338 eV

     #   Z          covCN         q      C6AA      α(0)
     1   6 C        2.914    -0.032    28.788     8.798
     2   6 C        2.924    -0.040    28.995     8.830
     3   6 C        2.972    -0.004    28.130     8.700
     4   6 C        2.928     0.053    26.820     8.493
     5   6 C        2.888     0.049    26.898     8.503
     6   7 N        1.839    -0.205    26.295     7.599
     7   6 C        2.891    -0.010    28.270     8.717
     8   6 C        2.861     0.156    24.623     8.134
     9   7 N        2.805    -0.038    21.964     6.961
    10   6 C        3.068     0.054    26.723     8.476
    11   6 C        2.910    -0.043    29.055     8.839
    12   6 C        2.924    -0.031    28.773     8.797
    13   6 C        2.920    -0.035    28.867     8.811
    14   6 C        2.912    -0.031    28.772     8.796
    15   6 C        3.063    -0.013    28.265     8.718
    16   6 C        3.065    -0.011    28.231     8.713
    17   6 C        2.912    -0.030    28.761     8.794
    18   6 C        2.920    -0.035    28.872     8.811
    19   6 C        2.923    -0.031    28.776     8.797
    20   6 C        2.910    -0.047    29.165     8.855
    21   6 C        3.062     0.047    26.889     8.503
    22   7 N        1.853    -0.256    27.525     7.776
    23   6 C        2.923    -0.061    29.507     8.908
    24   6 C        2.909     0.060    26.658     8.466
    25   7 N        2.803    -0.032    21.866     6.945
    26   6 C        3.077     0.049    26.829     8.492
    27   6 C        2.909    -0.047    29.160     8.855
    28   6 C        2.923    -0.033    28.826     8.805
    29   6 C        2.920    -0.038    28.950     8.823
    30   6 C        2.912    -0.032    28.802     8.800
    31   6 C        3.066    -0.016    28.336     8.729
    32   6 C        3.066    -0.016    28.334     8.728
    33   6 C        2.912    -0.032    28.803     8.800
    34   6 C        2.920    -0.038    28.952     8.824
    35   6 C        2.923    -0.033    28.834     8.806
    36   6 C        2.909    -0.047    29.171     8.856
    37   6 C        3.077     0.048    26.841     8.494
    38   6 C        2.919    -0.057    29.408     8.893
    39   1 H        0.926     0.037     2.489     2.467
    40   1 H        0.926     0.043     2.413     2.429
    41   1 H        0.926     0.050     2.322     2.383
    42   1 H        0.926     0.042     2.427     2.436
    43   1 H        0.926     0.047     2.363     2.404
    44   1 H        0.926     0.042     2.416     2.431
    45   1 H        0.926     0.043     2.412     2.429
    46   1 H        0.926     0.045     2.383     2.414
    47   1 H        0.926     0.046     2.375     2.410
    48   1 H        0.926     0.043     2.408     2.427
    49   1 H        0.926     0.042     2.416     2.431
    50   1 H        0.926     0.035     2.518     2.482
    51   1 H        0.926     0.029     2.595     2.519
    52   1 H        0.926     0.036     2.502     2.474
    53   1 H        0.926     0.036     2.507     2.476
    54   1 H        0.926     0.034     2.523     2.484
    55   1 H        0.926     0.037     2.495     2.470
    56   1 H        0.926     0.037     2.490     2.467
    57   1 H        0.926     0.035     2.523     2.484
    58   1 H        0.926     0.035     2.522     2.483
    59   1 H        0.926     0.032     2.555     2.500
    60   1 H        0.926     0.036     2.509     2.477

molecular dipole:
                 x           y           z       tot (Debye)
 q only:       -0.542      -0.521      -0.171
   full:       -0.476      -0.386      -0.104       1.579

 projected vibrational frequencies (cm⁻¹)
eigval :       -0.00    -0.00     0.00     0.00     0.00     0.00
eigval :        5.44    13.65    23.08    29.37    40.50    62.79
eigval :       70.03    92.12    98.02   102.12   118.86   128.25
eigval :      139.18   141.11   189.42   193.86   209.76   217.28
eigval :      230.04   271.02   272.57   276.85   286.34   321.44
eigval :      335.47   353.61   377.32   383.21   392.49   396.00
eigval :      421.40   421.67   429.12   432.76   434.72   464.73
eigval :      499.50   514.14   515.83   521.65   538.06   539.06
eigval :      545.24   554.37   562.21   582.54   585.09   596.44
eigval :      606.78   612.72   620.06   636.00   647.30   669.04
eigval :      672.95   675.03   682.69   708.90   709.76   723.01
eigval :      752.76   754.99   765.67   768.75   772.20   778.27
eigval :      779.42   805.55   812.94   837.70   854.38   867.93
eigval :      870.41   872.34   874.36   892.75   896.15   900.51
eigval :      901.80   904.68   907.39   909.52   910.03   919.37
eigval :      919.88   921.21   924.78   948.12   982.72  1008.09
eigval :     1010.42  1018.19  1064.45  1065.16  1068.65  1069.67
eigval :     1076.41  1085.56  1111.43  1118.79  1127.98  1142.91
eigval :     1143.45  1149.16  1171.56  1172.69  1175.74  1177.01
eigval :     1179.15  1184.32  1188.65  1223.24  1226.92  1230.81
eigval :     1234.24  1253.07  1268.04  1273.75  1287.49  1290.74
eigval :     1291.22  1293.66  1331.19  1336.58  1346.70  1347.04
eigval :     1355.21  1357.48  1359.29  1368.89  1410.77  1413.85
eigval :     1415.56  1416.81  1425.59  1443.97  1452.25  1463.14
eigval :     1465.27  1474.60  1479.10  1482.35  1503.91  1557.37
eigval :     1566.80  1570.14  1582.46  1583.47  1583.70  1585.88
eigval :     1601.08  1604.48  3067.71  3072.12  3074.39  3075.48
eigval :     3079.95  3081.29  3081.52  3081.58  3086.24  3087.10
eigval :     3087.67  3088.90  3089.35  3093.02  3093.88  3095.41
eigval :     3095.72  3098.89  3099.45  3100.99  3103.32  3111.38

   temp. (K)  partition function   enthalpy   heat capacity  entropy
                                   cal/mol     cal/K/mol   cal/K/mol   J/K/mol
 298.15  VIB  0.277E+13            16443.555    108.645    100.832
         ROT  0.457E+08              888.752      2.981     38.031
         INT  0.127E+21            17332.308    111.626    138.863
         TR   0.104E+29             1481.254      4.968     44.414
         TOT                       18813.5617   116.5939   183.2768   766.8302

       T/K    H(0)-H(T)+PV         H(T)/Eh          T*S/Eh         G(T)/Eh
   ------------------------------------------------------------------------
    298.15    0.299813E-01    0.481317E+00    0.870807E-01    0.394236E+00
   ------------------------------------------------------------------------

         :::::::::::::::::::::::::::::::::::::::::::::::::::::
         ::                  THERMODYNAMIC                  ::
         :::::::::::::::::::::::::::::::::::::::::::::::::::::
         :: total free energy         -95.347664068278 Eh   ::
         ::.................................................::
         :: total energy              -95.741900345995 Eh   ::
         :: zero point energy           0.451335682972 Eh   ::
         :: G(RRHO) w/o ZPVE           -0.057099405254 Eh   ::
         :: G(RRHO) contrib.            0.394236277718 Eh   ::
         :::::::::::::::::::::::::::::::::::::::::::::::::::::

           -------------------------------------------------
          | TOTAL ENERGY              -95.741900345995 Eh   |
          | TOTAL ENTHALPY            -95.260583344076 Eh   |
          | TOTAL FREE ENERGY         -95.347664068278 Eh   |
          | GRADIENT NORM               0.000036999352 Eh/α |
          | HOMO-LUMO GAP               0.533833600075 eV   |
           -------------------------------------------------

 * finished run on 2025/08/30 at 21:17:54.207
