   * xtb version 6.7.1 (edcfbbe) compiled by 'albert@albert-system' on 2024-07-22

   ID    Z sym.   atoms
    1    6 C      1-5, 7, 8, 10-21, 23, 24, 26-38
    2    7 N      6, 9, 22, 25
    3    1 H      39-60

          program call               : xtb data2507/toluene/CPzPC/CPzPC.xyz --gfn 2 --gbsa toluene --ohess vtight --parallel 40 --molden --ceasefiles --namespace data2507/toluene/CPzPC/CPzPC_toluene_S0_preOpt
      * Solvation model:               GBSA
        Solvent                        toluene
        Solvent mass                       9.2140E+01 g/mol
          :  Hamiltonian                  GFN2-xTB          :
 * total energy  :   -95.7994630 Eh     change       -0.2109417E-08 Eh
 * total energy  :   -95.8145609 Eh     change       -0.1509787E-01 Eh
 * total energy  :   -95.8180923 Eh     change       -0.3531431E-02 Eh
 * total energy  :   -95.8187453 Eh     change       -0.6529693E-03 Eh
 * total energy  :   -95.8192812 Eh     change       -0.5359062E-03 Eh
 * total energy  :   -95.8194806 Eh     change       -0.1993802E-03 Eh
 * total energy  :   -95.8196157 Eh     change       -0.1351419E-03 Eh
 * total energy  :   -95.8196907 Eh     change       -0.7500464E-04 Eh
 * total energy  :   -95.8197290 Eh     change       -0.3823867E-04 Eh
 * total energy  :   -95.8197635 Eh     change       -0.3455982E-04 Eh
 * total energy  :   -95.8199286 Eh     change       -0.2893826E-05 Eh
 * total energy  :   -95.8199305 Eh     change       -0.1964452E-05 Eh
 * total energy  :   -95.8199317 Eh     change       -0.1195834E-05 Eh
 * total energy  :   -95.8199326 Eh     change       -0.8879569E-06 Eh
 * total energy  :   -95.8199335 Eh     change       -0.8466433E-06 Eh
 * total energy  :   -95.8199341 Eh     change       -0.6793941E-06 Eh
 * total energy  :   -95.8199348 Eh     change       -0.6285031E-06 Eh
 * total energy  :   -95.8199352 Eh     change       -0.3950647E-06 Eh
 * total energy  :   -95.8199352 Eh     change       -0.2796185E-08 Eh
   *** GEOMETRY OPTIMIZATION CONVERGED AFTER 44 ITERATIONS ***

 final structure:
================
60
 xtb: 6.7.1 (edcfbbe)
C            1.29641099522374        2.53284342917106        0.78644048151012
C            0.23505605229796        1.64898217769097        0.83937923764382
C            0.44721225308163        0.28466789605180        0.64052193477335
C           -0.69150152764791       -0.63751102443240        0.70485025060157
C           -0.57268966061751       -1.98999768143411        1.03482935357204
N           -1.61699126594009       -2.80535995800684        1.00236714526346
C           -2.79538963590033       -2.29850247230139        0.69987727485611
C           -2.95222439079159       -0.92320522402913        0.46094477101050
N           -4.18052089189172       -0.35352180998826        0.18952701922476
C           -5.41501637857095       -0.75693274298929        0.68837150661045
C           -5.72055565011805       -1.67541204241514        1.68190373071033
C           -7.05232122492784       -1.85912068293568        2.01102823947659
C           -8.06348881657064       -1.13919372295664        1.38210165235994
C           -7.76329139413341       -0.19089771788410        0.42342227612098
C           -6.43346863223202        0.01038516714601        0.08011846718113
C           -5.78267373461676        0.92779879114136       -0.81729602423095
C           -6.25722702333736        1.90462820427413       -1.68269109351445
C           -5.34455997217071        2.62978394786282       -2.42400959807035
C           -3.97860639441508        2.38475531999211       -2.31274036141171
C           -3.48475637694897        1.41608935008119       -1.45713347221377
C           -4.39643340194543        0.69229112819689       -0.70593839705980
N           -1.89291601687622       -0.12282167708793        0.44165134500085
C            1.73493346195407       -0.17598093963453        0.38306341784653
C            2.79792532158270        0.71739421419252        0.31533043314100
N            4.08863199952150        0.24604816816934        0.03560442319654
C            4.43768286901829       -0.57735583704035       -1.01776080000189
C            3.65237738940870       -1.08091820861530       -2.04546160626262
C            4.26567975613794       -1.87029283558282       -2.99992589487864
C            5.62990937985976       -2.14913015349236       -2.94637790897358
C            6.42099034276440       -1.63140237369711       -1.94001039684787
C            5.82705408591288       -0.83600686955733       -0.96820218583347
C            6.33225177311099       -0.13576072207139        0.18007406981234
C            7.59314423539246       -0.02380868914490        0.75244695425506
C            7.73455493768693        0.73174247573595        1.89948932113970
C            6.63581807154098        1.35846776800123        2.48427005030706
C            5.37164881693361        1.26097616404365        1.93417823105502
C            5.22742189026242        0.52228296857389        0.76809718884826
C            2.57570980487523        2.07726805916452        0.52073052859668
H            1.12583179311547        3.58751210373114        0.94165761021889
H           -0.76709373900235        1.99582840591204        1.03602259562048
H            0.36547850046838       -2.43898835112408        1.32549165879907
H           -3.61343421780429       -2.99831800120773        0.61480489937228
H           -4.95214313755020       -2.22180537586865        2.20695768166059
H           -7.30866425251214       -2.57389106789324        2.77888495895310
H           -9.09130722453343       -1.31469542067900        1.66227186713089
H           -8.54204340091467        0.39084769841617       -0.04545405756012
H           -7.31713369977605        2.08791288554289       -1.77193704000327
H           -5.69137620138460        3.39659111809785       -3.10073851864351
H           -3.28644695607069        2.96429234145909       -2.90555336955674
H           -2.42602582461322        1.23370297002320       -1.37008267687709
H            1.92019399690295       -1.22681327309944        0.22162479672535
H            2.59768607464632       -0.85759158506340       -2.10728985289551
H            3.67416462465392       -2.27698584302461       -3.80738876282758
H            6.07158609463911       -2.77238630907112       -3.71004474583789
H            7.48097603722412       -1.83454719726795       -1.90768507579083
H            8.44165771886014       -0.52226181452423        0.30802774125784
H            8.70685860278707        0.83381298835367        2.35881846509442
H            6.77462864605699        1.93068323498026        3.39002821050837
H            4.52435082805126        1.73591329414537        2.40541638949599
H            3.40247468983852        2.76791735396535        0.45309366034109

          :  Hamiltonian                  GFN2-xTB          :
         :: gradient norm              0.000041198577 Eh/a0 ::
         :: HOMO-LUMO gap              2.070422675620 eV    ::
         :: SCC energy               -97.578872077502 Eh    ::
         :: -> dispersion             -0.081433840327 Eh    ::
         :: -> Gsolv                  -0.040087155596 Eh    ::
         :: repulsion energy           1.758936918968 Eh    ::

    * Orbital Energies and Occupations

         #    Occupation            Energy/Eh            Energy/eV
      -------------------------------------------------------------
         1        2.0000           -0.6958790             -18.9358
       ...           ...                  ...                  ...
        77        2.0000           -0.4242144             -11.5435
        78        2.0000           -0.4231802             -11.5153
        79        2.0000           -0.4210817             -11.4582
        80        2.0000           -0.4197151             -11.4210
        81        2.0000           -0.4175874             -11.3631
        82        2.0000           -0.4129600             -11.2372
        83        2.0000           -0.4104046             -11.1677
        84        2.0000           -0.4068017             -11.0696
        85        2.0000           -0.3866848             -10.5222
        86        2.0000           -0.3807736             -10.3614
        87        2.0000           -0.3802484             -10.3471
        88        2.0000           -0.3670711              -9.9885
        89        2.0000           -0.3648017              -9.9268 (HOMO)
        90                         -0.2887150              -7.8563 (LUMO)
        91                         -0.2711055              -7.3772
        92                         -0.2514156              -6.8414
        93                         -0.2481824              -6.7534
        94                         -0.2392904              -6.5114
        95                         -0.2298462              -6.2544
        96                         -0.2252012              -6.1280
        97                         -0.2236000              -6.0845
        98                         -0.1989284              -5.4131
        99                         -0.1937228              -5.2715
       100                         -0.1917457              -5.2177
       ...                                ...                  ...
       174                          0.7425907              20.2069
      -------------------------------------------------------------
                  HL-Gap            0.0760866 Eh            2.0704 eV

     #   Z          covCN         q      C6AA      α(0)
     1   6 C        2.917    -0.025    28.638     8.775
     2   6 C        2.924    -0.030    28.743     8.792
     3   6 C        2.979     0.004    27.936     8.670
     4   6 C        2.948     0.089    26.011     8.365
     5   6 C        2.905     0.035    27.207     8.553
     6   7 N        1.839    -0.224    26.739     7.663
     7   6 C        2.904     0.033    27.266     8.562
     8   6 C        2.882     0.150    24.741     8.154
     9   7 N        2.802    -0.052    22.245     7.005
    10   6 C        3.057     0.045    26.935     8.511
    11   6 C        2.910    -0.052    29.284     8.874
    12   6 C        2.923    -0.033    28.814     8.803
    13   6 C        2.920    -0.038    28.949     8.823
    14   6 C        2.913    -0.033    28.813     8.802
    15   6 C        3.065    -0.013    28.265     8.718
    16   6 C        3.063    -0.015    28.317     8.726
    17   6 C        2.913    -0.033    28.833     8.805
    18   6 C        2.920    -0.038    28.951     8.824
    19   6 C        2.924    -0.032    28.810     8.802
    20   6 C        2.910    -0.047    29.178     8.857
    21   6 C        3.062     0.053    26.746     8.481
    22   7 N        1.858    -0.254    27.459     7.767
    23   6 C        2.926    -0.047    29.170     8.857
    24   6 C        2.911     0.067    26.493     8.440
    25   7 N        2.802    -0.045    22.117     6.985
    26   6 C        3.073     0.046    26.886     8.502
    27   6 C        2.910    -0.052    29.290     8.874
    28   6 C        2.924    -0.035    28.865     8.811
    29   6 C        2.920    -0.042    29.045     8.838
    30   6 C        2.912    -0.034    28.855     8.808
    31   6 C        3.067    -0.018    28.384     8.736
    32   6 C        3.067    -0.018    28.384     8.736
    33   6 C        2.912    -0.034    28.854     8.808
    34   6 C        2.920    -0.042    29.044     8.838
    35   6 C        2.924    -0.034    28.857     8.809
    36   6 C        2.909    -0.052    29.293     8.875
    37   6 C        3.073     0.047    26.882     8.501
    38   6 C        2.922    -0.040    28.982     8.828
    39   1 H        0.926     0.052     2.295     2.369
    40   1 H        0.926     0.058     2.226     2.333
    41   1 H        0.926     0.043     2.412     2.429
    42   1 H        0.926     0.044     2.396     2.421
    43   1 H        0.926     0.028     2.612     2.527
    44   1 H        0.926     0.039     2.468     2.457
    45   1 H        0.926     0.039     2.467     2.456
    46   1 H        0.926     0.041     2.430     2.438
    47   1 H        0.926     0.039     2.456     2.451
    48   1 H        0.926     0.037     2.483     2.464
    49   1 H        0.926     0.039     2.466     2.456
    50   1 H        0.926     0.047     2.363     2.404
    51   1 H        0.926     0.044     2.397     2.421
    52   1 H        0.926     0.027     2.634     2.538
    53   1 H        0.926     0.030     2.585     2.514
    54   1 H        0.926     0.029     2.596     2.520
    55   1 H        0.926     0.032     2.556     2.500
    56   1 H        0.926     0.032     2.563     2.504
    57   1 H        0.926     0.029     2.597     2.520
    58   1 H        0.926     0.032     2.564     2.504
    59   1 H        0.926     0.031     2.571     2.508
    60   1 H        0.926     0.052     2.291     2.367

molecular dipole:
                 x           y           z       tot (Debye)
 q only:       -0.392       0.827      -0.021
   full:       -0.371       0.679       0.051       1.970

 projected vibrational frequencies (cm⁻¹)
eigval :       -0.00    -0.00    -0.00    -0.00     0.00     0.00
eigval :        4.94    13.05    23.02    33.27    40.73    55.53
eigval :       69.22    90.88    93.33   101.46   118.79   132.49
eigval :      138.79   148.82   181.10   202.22   212.12   231.98
eigval :      241.67   270.57   271.50   272.73   288.55   324.19
eigval :      331.83   351.55   380.08   392.08   394.68   399.29
eigval :      422.05   422.76   434.93   436.74   440.77   448.76
eigval :      511.87   516.26   518.85   531.04   540.40   540.61
eigval :      550.22   573.42   583.76   589.51   600.41   607.71
eigval :      610.89   628.25   655.67   670.42   673.81   675.34
eigval :      680.85   707.68   710.37   721.92   730.73   754.46
eigval :      756.94   768.13   769.27   779.60   780.11   800.37
eigval :      818.71   827.54   866.18   868.20   871.77   872.48
eigval :      886.97   889.07   895.23   896.57   899.95   903.49
eigval :      903.80   906.53   907.48   921.72   921.95   923.30
eigval :      923.69   931.33   934.42   996.71  1005.40  1011.02
eigval :     1017.15  1021.23  1068.45  1069.27  1071.69  1074.68
eigval :     1103.62  1116.26  1121.42  1135.93  1148.17  1150.52
eigval :     1162.45  1174.78  1175.98  1177.24  1178.67  1179.66
eigval :     1188.82  1191.03  1227.58  1232.94  1234.08  1239.38
eigval :     1245.47  1258.18  1267.05  1286.81  1296.50  1298.49
eigval :     1301.05  1319.38  1337.82  1352.17  1355.12  1355.62
eigval :     1358.87  1364.25  1386.71  1404.11  1420.35  1423.79
eigval :     1426.06  1432.63  1450.01  1470.06  1470.62  1475.48
eigval :     1482.75  1486.38  1509.40  1549.73  1568.84  1574.15
eigval :     1576.23  1584.73  1587.40  1587.94  1596.82  1597.27
eigval :     1609.05  1612.40  3071.50  3071.92  3074.69  3076.22
eigval :     3076.73  3077.33  3078.09  3078.77  3083.71  3084.38
eigval :     3085.08  3085.72  3086.52  3091.46  3091.54  3093.85
eigval :     3094.28  3097.81  3098.81  3098.88  3107.89  3111.30

   temp. (K)  partition function   enthalpy   heat capacity  entropy
                                   cal/mol     cal/K/mol   cal/K/mol   J/K/mol
 298.15  VIB  0.258E+13            16212.536    106.740     99.802
         ROT  0.445E+08              888.752      2.981     37.980
         INT  0.115E+21            17101.289    109.720    137.782
         TR   0.104E+29             1481.254      4.968     44.414
         TOT                       18582.5426   114.6886   182.1958   762.3073

       T/K    H(0)-H(T)+PV         H(T)/Eh          T*S/Eh         G(T)/Eh
   ------------------------------------------------------------------------
    298.15    0.296132E-01    0.484782E+00    0.865671E-01    0.398215E+00
   ------------------------------------------------------------------------

         :::::::::::::::::::::::::::::::::::::::::::::::::::::
         ::                  THERMODYNAMIC                  ::
         :::::::::::::::::::::::::::::::::::::::::::::::::::::
         :: total free energy         -95.421720199956 Eh   ::
         ::.................................................::
         :: total energy              -95.819935157269 Eh   ::
         :: zero point energy           0.455168903204 Eh   ::
         :: G(RRHO) w/o ZPVE           -0.056953945891 Eh   ::
         :: G(RRHO) contrib.            0.398214957314 Eh   ::
         :::::::::::::::::::::::::::::::::::::::::::::::::::::

           -------------------------------------------------
          | TOTAL ENERGY              -95.819935157269 Eh   |
          | TOTAL ENTHALPY            -95.335153087415 Eh   |
          | TOTAL FREE ENERGY         -95.421720199956 Eh   |
          | GRADIENT NORM               0.000041197537 Eh/α |
          | HOMO-LUMO GAP               2.070422704334 eV   |
           -------------------------------------------------

 * finished run on 2025/08/30 at 21:11:33.127
