   * xtb version 6.7.1 (edcfbbe) compiled by 'albert@albert-system' on 2024-07-22

   ID    Z sym.   atoms
    1    6 C      1-5, 7, 8, 10-21, 23, 24, 26-38
    2    7 N      6, 9, 22, 25
    3    1 H      39-60

          program call               : xtb data2507/toluene/CPzPC/CPzPC_toluene_S0_crest.xyz --gfn 2 --gbsa toluene --ohess vtight --parallel 40 --molden --ceasefiles --namespace data2507/toluene/CPzPC/CPzPC_toluene_S0_finalOpt
      * Solvation model:               GBSA
        Solvent                        toluene
        Solvent mass                       9.2140E+01 g/mol
          :  Hamiltonian                  GFN2-xTB          :
 * total energy  :   -95.8201185 Eh     change       -0.1646285E-08 Eh
 * total energy  :   -95.8201380 Eh     change       -0.1946582E-04 Eh
 * total energy  :   -95.8201455 Eh     change       -0.7519836E-05 Eh
 * total energy  :   -95.8201493 Eh     change       -0.3877442E-05 Eh
 * total energy  :   -95.8201559 Eh     change       -0.6559749E-05 Eh
 * total energy  :   -95.8201607 Eh     change       -0.4778455E-05 Eh
 * total energy  :   -95.8201661 Eh     change       -0.5370835E-05 Eh
 * total energy  :   -95.8201721 Eh     change       -0.6070485E-05 Eh
 * total energy  :   -95.8201761 Eh     change       -0.4013754E-05 Eh
 * total energy  :   -95.8201784 Eh     change       -0.2266940E-05 Eh
 * total energy  :   -95.8201856 Eh     change       -0.1883403E-05 Eh
 * total energy  :   -95.8201878 Eh     change       -0.2210876E-05 Eh
 * total energy  :   -95.8201897 Eh     change       -0.1959013E-05 Eh
 * total energy  :   -95.8201912 Eh     change       -0.1485801E-05 Eh
 * total energy  :   -95.8201925 Eh     change       -0.1260703E-05 Eh
 * total energy  :   -95.8201936 Eh     change       -0.1108435E-05 Eh
 * total energy  :   -95.8201943 Eh     change       -0.6622754E-06 Eh
 * total energy  :   -95.8201947 Eh     change       -0.4157475E-06 Eh
 * total energy  :   -95.8201947 Eh     change       -0.5979643E-08 Eh
   *** GEOMETRY OPTIMIZATION CONVERGED AFTER 22 ITERATIONS ***

 final structure:
================
60
 xtb: 6.7.1 (edcfbbe)
C            1.29564335086383        1.64742441004825       -2.10197222633116
C            0.24464291924109        0.93178427288630       -1.56067793507539
C            0.48450779903763       -0.05445547136735       -0.60294484559959
C           -0.64624013915342       -0.80585280095474       -0.04859936310162
C           -0.52449913219892       -2.06740475110958        0.54021987792328
N           -1.56147337888600       -2.67507168879336        1.09852490209848
C           -2.73861463739093       -2.08558435980496        1.03606700260479
C           -2.90160261871530       -0.86671941306323        0.35725891643505
N           -4.13100609416959       -0.25276522821955        0.22078503445629
C           -5.36489714854793       -0.88130793394335        0.08738027300894
C           -5.66920140033839       -2.22150689552830       -0.10033641869972
C           -7.00020579198154       -2.57265324773887       -0.24421138348630
C           -8.01169487844565       -1.61745056571278       -0.21805533870322
C           -7.71246776174133       -0.27616656421146       -0.07688872124807
C           -6.38337493507685        0.09757433004924        0.06677317100073
C           -5.73303846171877        1.37625765156117        0.17945632337083
C           -6.20760377167455        2.68053183690955        0.22444806336876
C           -5.29519895655280        3.71146512510455        0.33935493509900
C           -3.92956641069501        3.45140310157365        0.41521664713517
C           -3.43569516283985        2.15970205527705        0.37286305993985
C           -4.34699245644746        1.12358523253033        0.24815408789135
N           -1.84768365596964       -0.23532572875683       -0.14534824643747
C            1.79009738948853       -0.29574667228226       -0.18525045327981
C            2.84595382895922        0.42113990264780       -0.73682013615527
N            4.15810802231448        0.16395617358154       -0.31548183330739
C            4.75353946617282       -1.08079859077841       -0.24626498627560
C            4.25264847091637       -2.32203443943467       -0.61308825623245
C            5.07786926754282       -3.42100146308386       -0.46669975145883
C            6.37586650852842       -3.29538102050442        0.02459097591368
C            6.88853395429148       -2.05985506362881        0.36733094031568
C            6.07792787212917       -0.94018895039763        0.22874748191314
C            6.28186076617321        0.46312783927892        0.45977683540668
C            7.35531592460205        1.20796338186067        0.93203856470626
C            7.20974673057971        2.57580285559221        1.05282618038838
C            6.00761277489517        3.19995784224800        0.72539287064540
C            4.92552203733163        2.48040580722001        0.25485445328650
C            5.07398177795404        1.10844259138330        0.10761325913319
C            2.59621373973610        1.39187059848163       -1.70430049737382
H            1.10337293648188        2.40374498941223       -2.84799916187971
H           -0.77162838272380        1.11830926955583       -1.86987434357942
H            0.41045577924303       -2.60617127657676        0.58093150122065
H           -3.54973740089060       -2.57160525720672        1.55770526850151
H           -4.90036590139784       -2.97665554939034       -0.15706015952144
H           -7.25540351433559       -3.61228081370940       -0.38659361235407
H           -9.03897531401009       -1.93098592246922       -0.32810745829265
H           -8.49129149039396        0.47085121992318       -0.08748691111324
H           -7.26730383105588        2.87890520483197        0.17271900785055
H           -5.64214648744566        4.73359876949367        0.37275338893415
H           -3.23764352471109        4.27541068457313        0.50801385318987
H           -2.37719053710095        1.96352218208085        0.42685479611986
H            1.99487586600492       -1.01637647758430        0.59154421837988
H            3.25555925910402       -2.42751517412958       -1.01407514073264
H            4.70931918693180       -4.39830983637246       -0.74293073404575
H            6.98913528138882       -4.17865071276453        0.12712956482931
H            7.90002494474093       -1.96083865058721        0.73200426208651
H            8.28165045931413        0.72261775983470        1.20091125367639
H            8.03324359578678        3.17361081193972        1.41509263440368
H            5.91854638292531        4.26998780054129        0.84460649055722
H            3.99330608246359        2.97167308482185        0.02023913981696
H            3.42182295816696        1.93082109606288       -2.14361898122307

          :  Hamiltonian                  GFN2-xTB          :
         :: gradient norm              0.000059927583 Eh/a0 ::
         :: HOMO-LUMO gap              2.057777823852 eV    ::
         :: SCC energy               -97.579108252612 Eh    ::
         :: -> dispersion             -0.081684353377 Eh    ::
         :: -> Gsolv                  -0.040024211615 Eh    ::
         :: repulsion energy           1.758913577798 Eh    ::

    * Orbital Energies and Occupations

         #    Occupation            Energy/Eh            Energy/eV
      -------------------------------------------------------------
         1        2.0000           -0.6957321             -18.9318
       ...           ...                  ...                  ...
        77        2.0000           -0.4242788             -11.5452
        78        2.0000           -0.4231609             -11.5148
        79        2.0000           -0.4210480             -11.4573
        80        2.0000           -0.4200514             -11.4302
        81        2.0000           -0.4174881             -11.3604
        82        2.0000           -0.4128899             -11.2353
        83        2.0000           -0.4100526             -11.1581
        84        2.0000           -0.4068207             -11.0702
        85        2.0000           -0.3866321             -10.5208
        86        2.0000           -0.3806633             -10.3584
        87        2.0000           -0.3803061             -10.3487
        88        2.0000           -0.3672660              -9.9938
        89        2.0000           -0.3646639              -9.9230 (HOMO)
        90                         -0.2890419              -7.8652 (LUMO)
        91                         -0.2712659              -7.3815
        92                         -0.2513694              -6.8401
        93                         -0.2482572              -6.7554
        94                         -0.2392236              -6.5096
        95                         -0.2297771              -6.2526
        96                         -0.2247967              -6.1170
        97                         -0.2236542              -6.0859
        98                         -0.1990492              -5.4164
        99                         -0.1936709              -5.2701
       100                         -0.1911561              -5.2016
       ...                                ...                  ...
       174                          0.7425698              20.2064
      -------------------------------------------------------------
                  HL-Gap            0.0756219 Eh            2.0578 eV

     #   Z          covCN         q      C6AA      α(0)
     1   6 C        2.917    -0.025    28.639     8.776
     2   6 C        2.925    -0.030    28.747     8.793
     3   6 C        2.978     0.003    27.941     8.671
     4   6 C        2.948     0.089    26.017     8.366
     5   6 C        2.905     0.036    27.203     8.552
     6   7 N        1.839    -0.225    26.748     7.664
     7   6 C        2.904     0.033    27.264     8.562
     8   6 C        2.881     0.150    24.740     8.154
     9   7 N        2.802    -0.052    22.246     7.005
    10   6 C        3.057     0.045    26.934     8.511
    11   6 C        2.910    -0.052    29.286     8.874
    12   6 C        2.923    -0.033    28.814     8.803
    13   6 C        2.920    -0.038    28.950     8.823
    14   6 C        2.913    -0.033    28.813     8.802
    15   6 C        3.065    -0.013    28.266     8.718
    16   6 C        3.063    -0.015    28.317     8.726
    17   6 C        2.913    -0.033    28.833     8.805
    18   6 C        2.920    -0.038    28.952     8.824
    19   6 C        2.924    -0.032    28.810     8.802
    20   6 C        2.910    -0.047    29.177     8.857
    21   6 C        3.062     0.053    26.747     8.481
    22   7 N        1.858    -0.254    27.459     7.767
    23   6 C        2.926    -0.047    29.169     8.857
    24   6 C        2.911     0.067    26.495     8.440
    25   7 N        2.802    -0.045    22.115     6.984
    26   6 C        3.074     0.046    26.888     8.502
    27   6 C        2.910    -0.052    29.294     8.875
    28   6 C        2.924    -0.035    28.866     8.811
    29   6 C        2.920    -0.042    29.046     8.838
    30   6 C        2.912    -0.034    28.854     8.808
    31   6 C        3.067    -0.018    28.384     8.736
    32   6 C        3.067    -0.018    28.384     8.736
    33   6 C        2.912    -0.034    28.854     8.808
    34   6 C        2.920    -0.042    29.044     8.838
    35   6 C        2.924    -0.034    28.857     8.809
    36   6 C        2.910    -0.052    29.292     8.875
    37   6 C        3.074     0.047    26.881     8.501
    38   6 C        2.922    -0.039    28.980     8.828
    39   1 H        0.926     0.052     2.296     2.369
    40   1 H        0.926     0.059     2.211     2.325
    41   1 H        0.926     0.043     2.415     2.430
    42   1 H        0.926     0.044     2.398     2.421
    43   1 H        0.926     0.028     2.614     2.528
    44   1 H        0.926     0.038     2.469     2.457
    45   1 H        0.926     0.039     2.468     2.457
    46   1 H        0.926     0.041     2.431     2.438
    47   1 H        0.926     0.039     2.457     2.451
    48   1 H        0.926     0.037     2.484     2.464
    49   1 H        0.926     0.039     2.465     2.455
    50   1 H        0.926     0.046     2.365     2.405
    51   1 H        0.926     0.044     2.398     2.421
    52   1 H        0.926     0.026     2.639     2.540
    53   1 H        0.926     0.031     2.579     2.511
    54   1 H        0.926     0.029     2.595     2.519
    55   1 H        0.926     0.032     2.557     2.501
    56   1 H        0.926     0.032     2.564     2.504
    57   1 H        0.926     0.029     2.597     2.520
    58   1 H        0.926     0.032     2.562     2.503
    59   1 H        0.926     0.031     2.567     2.505
    60   1 H        0.926     0.052     2.290     2.367

molecular dipole:
                 x           y           z       tot (Debye)
 q only:       -0.402       0.730      -0.443
   full:       -0.376       0.561      -0.412       2.010

 projected vibrational frequencies (cm⁻¹)
eigval :       -0.00     0.00     0.00     0.00     0.00     0.00
eigval :        7.52     9.93    21.51    31.86    40.18    56.82
eigval :       65.70    89.83    96.39   102.38   118.14   130.14
eigval :      141.29   144.04   186.45   200.63   210.79   229.66
eigval :      241.42   269.81   271.32   274.26   290.72   324.69
eigval :      334.57   350.68   380.53   389.75   394.14   395.85
eigval :      422.05   422.92   435.23   436.69   439.70   459.13
eigval :      505.86   516.59   518.53   529.82   538.27   541.23
eigval :      542.42   578.67   583.82   593.02   595.62   608.78
eigval :      613.68   628.61   654.62   669.94   672.14   674.63
eigval :      681.16   708.04   709.88   722.69   730.98   754.49
eigval :      757.00   767.85   770.08   778.98   780.48   799.50
eigval :      819.32   826.39   866.64   868.53   871.80   874.12
eigval :      886.65   887.82   895.41   896.47   899.86   902.78
eigval :      904.08   905.79   908.03   921.74   922.87   923.07
eigval :      923.26   930.86   934.38   996.83  1005.64  1011.25
eigval :     1017.45  1021.79  1069.35  1069.59  1072.75  1075.37
eigval :     1104.00  1117.25  1122.17  1137.16  1149.47  1152.45
eigval :     1165.42  1176.48  1177.13  1178.15  1179.55  1182.28
eigval :     1191.55  1193.32  1228.20  1234.27  1235.37  1240.70
eigval :     1246.50  1260.17  1268.85  1287.93  1297.15  1299.61
eigval :     1301.42  1319.62  1338.27  1352.35  1355.34  1355.76
eigval :     1358.89  1364.28  1386.99  1404.64  1420.54  1423.77
eigval :     1426.67  1432.97  1450.39  1470.00  1470.84  1475.60
eigval :     1483.03  1486.64  1509.57  1550.00  1568.31  1573.81
eigval :     1576.30  1584.21  1587.53  1588.06  1596.45  1597.33
eigval :     1608.89  1612.45  3070.97  3072.71  3076.44  3076.67
eigval :     3078.04  3078.17  3078.64  3079.06  3083.32  3084.60
eigval :     3085.40  3085.86  3086.94  3091.24  3091.90  3094.10
eigval :     3094.74  3097.58  3098.85  3098.98  3108.85  3111.15

   temp. (K)  partition function   enthalpy   heat capacity  entropy
                                   cal/mol     cal/K/mol   cal/K/mol   J/K/mol
 298.15  VIB  0.255E+13            16220.568    106.667     99.749
         ROT  0.452E+08              888.752      2.981     38.010
         INT  0.115E+21            17109.320    109.648    137.759
         TR   0.104E+29             1481.254      4.968     44.414
         TOT                       18590.5741   114.6163   182.1729   762.2116

       T/K    H(0)-H(T)+PV         H(T)/Eh          T*S/Eh         G(T)/Eh
   ------------------------------------------------------------------------
    298.15    0.296260E-01    0.484882E+00    0.865562E-01    0.398326E+00
   ------------------------------------------------------------------------

         :::::::::::::::::::::::::::::::::::::::::::::::::::::
         ::                  THERMODYNAMIC                  ::
         :::::::::::::::::::::::::::::::::::::::::::::::::::::
         :: total free energy         -95.421869025622 Eh   ::
         ::.................................................::
         :: total energy              -95.820194676010 Eh   ::
         :: zero point energy           0.455255931472 Eh   ::
         :: G(RRHO) w/o ZPVE           -0.056930281084 Eh   ::
         :: G(RRHO) contrib.            0.398325650388 Eh   ::
         :::::::::::::::::::::::::::::::::::::::::::::::::::::

           -------------------------------------------------
          | TOTAL ENERGY              -95.820194676010 Eh   |
          | TOTAL ENTHALPY            -95.335312778931 Eh   |
          | TOTAL FREE ENERGY         -95.421869025622 Eh   |
          | GRADIENT NORM               0.000059933444 Eh/α |
          | HOMO-LUMO GAP               2.057777964583 eV   |
           -------------------------------------------------

 * finished run on 2025/08/30 at 21:14:16.474
