   * xtb version 6.7.1 (edcfbbe) compiled by 'albert@albert-system' on 2024-07-22

   ID    Z sym.   atoms
    1    6 C      1, 3-9, 11-22, 24-27
    2    8 O      2
    3    7 N      10, 23
    4    1 H      28-45

          program call               : xtb data2507/gas/ImPy-2/ImPy-2.xyz --gfn 2 --ohess vtight --parallel 40 --molden --ceasefiles --namespace data2507/gas/ImPy-2/ImPy-2_gas_S0_preOpt
          :  Hamiltonian                  GFN2-xTB          :
 * total energy  :   -70.4867749 Eh     change       -0.3712714E-08 Eh
 * total energy  :   -70.4942242 Eh     change       -0.7449272E-02 Eh
 * total energy  :   -70.4959858 Eh     change       -0.1761632E-02 Eh
 * total energy  :   -70.4962227 Eh     change       -0.2369367E-03 Eh
 * total energy  :   -70.4964204 Eh     change       -0.1976603E-03 Eh
 * total energy  :   -70.4965120 Eh     change       -0.9156896E-04 Eh
 * total energy  :   -70.4966562 Eh     change       -0.1442482E-03 Eh
 * total energy  :   -70.4968215 Eh     change       -0.1653039E-03 Eh
 * total energy  :   -70.4969501 Eh     change       -0.1286186E-03 Eh
 * total energy  :   -70.4970566 Eh     change       -0.1064656E-03 Eh
 * total energy  :   -70.4978238 Eh     change       -0.7522410E-06 Eh
 * total energy  :   -70.4978248 Eh     change       -0.9803026E-06 Eh
 * total energy  :   -70.4978258 Eh     change       -0.9392579E-06 Eh
 * total energy  :   -70.4978265 Eh     change       -0.7386590E-06 Eh
 * total energy  :   -70.4978271 Eh     change       -0.5817095E-06 Eh
 * total energy  :   -70.4978277 Eh     change       -0.6006465E-06 Eh
 * total energy  :   -70.4978282 Eh     change       -0.5663922E-06 Eh
 * total energy  :   -70.4978287 Eh     change       -0.4702121E-06 Eh
 * total energy  :   -70.4978287 Eh     change       -0.5748788E-08 Eh
   *** GEOMETRY OPTIMIZATION CONVERGED AFTER 44 ITERATIONS ***

 final structure:
================
45
 xtb: 6.7.1 (edcfbbe)
C            7.92935860209325        0.51214688657126       -0.35251526734617
O            6.85948269579970        1.20059881140454        0.24633821272133
C            5.59088449274075        0.73510267465921        0.06493652716300
C            5.26820155960170       -0.41307782729653       -0.68471237120026
C            3.96488347774294       -0.80795977197289       -0.81094507019292
C            2.91691064798299       -0.09013589983945       -0.20326001042752
C            1.57115920608651       -0.48719910364705       -0.32011701336120
C            0.56670308263664        0.22726817370795        0.29200818768483
C           -0.83515876197902       -0.13664168734012        0.19491837602668
N           -1.80837565148509        0.74873773031449        0.11363402800439
C           -2.97926432050288        0.08455450030524        0.01823603778448
C           -4.23540753502638        0.80444328899350       -0.09741812946843
C           -4.22662716290073        2.09072811237335       -0.63888675340068
C           -5.39950837298453        2.80769724079463       -0.76390209471000
C           -6.60128325347912        2.25622076529722       -0.34856984623415
C           -6.61731624515057        0.98864562871226        0.20888249000145
C           -5.44531732609800        0.26728096765937        0.33928797482566
C           -2.72597181331225       -1.29188644303986        0.03709878175037
C           -3.49128258478185       -2.46421806137837       -0.08667675202213
C           -2.88310777377146       -3.68034943944596        0.00442551473335
C           -1.48817019598078       -3.75485998620705        0.24700151208028
C           -0.74347975799060       -2.62539741618215        0.32022530583864
N           -1.33715184107064       -1.40872895553612        0.16550269700137
C            0.89324802695234        1.40274609668702        1.01073968175332
C            2.18679504035550        1.80863061531929        1.13622318522795
C            3.24033395207394        1.07199428865107        0.54678174325354
C            4.58278098221229        1.45865885513656        0.66611137772822
H            7.84090195597586        0.49763191621957       -1.44389879796903
H            8.82561153631520        1.06457532571077       -0.07411273879316
H            8.00995480939758       -0.51427770167201        0.02065119641236
H            6.04449714992239       -0.98871280831047       -1.16426081319155
H            3.72616513746624       -1.69081592541877       -1.38751460273802
H            1.34641320864471       -1.34583867711402       -0.93760860706774
H           -3.28299609298277        2.50761619413302       -0.95500547873375
H           -5.38038837630117        3.80128845310604       -1.18822209753364
H           -7.52018372424579        2.81510116810901       -0.44987681483589
H           -7.54941387653373        0.56190099450778        0.55148120560227
H           -5.46623188185108       -0.70379461978903        0.81049923438662
H           -4.55094885027831       -2.37852167677196       -0.26285123625405
H           -3.45180613831248       -4.59144221150990       -0.09151359872749
H           -1.01547828673659       -4.71563794176789        0.37071853510032
H            0.31606401861264       -2.62872254440400        0.52030280260838
H            0.08301213844218        1.96246929972413        1.45115357832761
H            2.42966694655485        2.70388286791213        1.68987529268442
H            4.84184015614690        2.33829784263411        1.23483361550315

          :  Hamiltonian                  GFN2-xTB          :
         :: gradient norm              0.000049521535 Eh/a0 ::
         :: HOMO-LUMO gap              2.354420367883 eV    ::
         :: SCC energy               -71.731195518422 Eh    ::
         :: -> dispersion             -0.053736331335 Eh    ::
         :: repulsion energy           1.233366804538 Eh    ::

    * Orbital Energies and Occupations

         #    Occupation            Energy/Eh            Energy/eV
      -------------------------------------------------------------
         1        2.0000           -0.7165657             -19.4987
       ...           ...                  ...                  ...
        53        2.0000           -0.4373215             -11.9001
        54        2.0000           -0.4256500             -11.5825
        55        2.0000           -0.4247431             -11.5578
        56        2.0000           -0.4172377             -11.3536
        57        2.0000           -0.4138669             -11.2619
        58        2.0000           -0.4131439             -11.2422
        59        2.0000           -0.4110322             -11.1848
        60        2.0000           -0.3993482             -10.8668
        61        2.0000           -0.3940900             -10.7237
        62        2.0000           -0.3915244             -10.6539
        63        2.0000           -0.3737761             -10.1710
        64        2.0000           -0.3719632             -10.1216
        65        2.0000           -0.3483443              -9.4789 (HOMO)
        66                         -0.2618209              -7.1245 (LUMO)
        67                         -0.2595800              -7.0635
        68                         -0.2381901              -6.4815
        69                         -0.2265717              -6.1653
        70                         -0.2116778              -5.7600
        71                         -0.1997581              -5.4357
        72                         -0.1858483              -5.0572
        73                         -0.1573045              -4.2805
        74                         -0.1248514              -3.3974
        75                         -0.1082618              -2.9460
        76                         -0.0653498              -1.7783
       ...                                ...                  ...
       126                          0.7178083              19.5326
      -------------------------------------------------------------
                  HL-Gap            0.0865233 Eh            2.3544 eV

     #   Z          covCN         q      C6AA      α(0)
     1   6 C        3.643     0.040    20.250     6.469
     2   8 O        1.706    -0.271    18.492     5.806
     3   6 C        2.861     0.142    24.897     8.179
     4   6 C        2.914    -0.062    29.552     8.914
     5   6 C        2.919    -0.038    28.942     8.822
     6   6 C        2.985     0.004    27.935     8.670
     7   6 C        2.922    -0.045    29.107     8.847
     8   6 C        2.969    -0.000    28.032     8.685
     9   6 C        3.124     0.103    25.546     8.277
    10   7 N        1.916    -0.278    28.060     7.854
    11   6 C        3.132     0.047    26.748     8.467
    12   6 C        2.973     0.010    27.784     8.646
    13   6 C        2.928    -0.030    28.753     8.794
    14   6 C        2.918    -0.029    28.733     8.790
    15   6 C        2.920    -0.033    28.816     8.803
    16   6 C        2.919    -0.031    28.772     8.796
    17   6 C        2.923    -0.040    28.988     8.829
    18   6 C        3.072     0.024    27.401     8.583
    19   6 C        2.908    -0.034    28.848     8.807
    20   6 C        2.919    -0.035    28.865     8.810
    21   6 C        2.914    -0.041    29.018     8.833
    22   6 C        2.851     0.011    27.770     8.637
    23   7 N        2.844     0.005    21.172     6.834
    24   6 C        2.922    -0.030    28.739     8.791
    25   6 C        2.916    -0.035    28.872     8.811
    26   6 C        2.986     0.014    27.699     8.633
    27   6 C        2.920    -0.065    29.610     8.923
    28   1 H        0.924     0.039     2.457     2.452
    29   1 H        0.925     0.061     2.185     2.312
    30   1 H        0.924     0.039     2.464     2.455
    31   1 H        0.926     0.035     2.521     2.483
    32   1 H        0.926     0.033     2.549     2.497
    33   1 H        0.925     0.027     2.627     2.535
    34   1 H        0.926     0.049     2.331     2.388
    35   1 H        0.926     0.029     2.603     2.523
    36   1 H        0.926     0.026     2.637     2.539
    37   1 H        0.926     0.026     2.650     2.546
    38   1 H        0.926     0.025     2.656     2.548
    39   1 H        0.926     0.045     2.377     2.411
    40   1 H        0.926     0.036     2.508     2.476
    41   1 H        0.926     0.041     2.434     2.440
    42   1 H        0.926     0.049     2.327     2.385
    43   1 H        0.926     0.051     2.302     2.373
    44   1 H        0.926     0.037     2.484     2.464
    45   1 H        0.926     0.048     2.344     2.394

molecular dipole:
                 x           y           z       tot (Debye)
 q only:        0.698      -0.976      -0.147
   full:        0.836      -1.580      -0.245       4.585

 projected vibrational frequencies (cm⁻¹)
eigval :       -0.00    -0.00    -0.00     0.00     0.00     0.00
eigval :       22.65    27.74    40.34    45.51    63.30    81.70
eigval :       92.26   116.47   158.88   172.14   182.79   196.57
eigval :      202.86   218.17   244.86   260.10   275.18   338.51
eigval :      343.65   368.51   372.34   377.13   392.44   413.98
eigval :      431.60   450.19   475.86   503.48   518.69   541.69
eigval :      560.39   575.08   576.67   591.62   598.97   632.94
eigval :      638.39   663.22   678.85   691.07   703.29   716.19
eigval :      745.94   761.56   766.21   785.06   796.93   830.29
eigval :      835.38   853.70   867.69   875.70   876.27   884.13
eigval :      897.76   901.34   905.77   911.05   922.27   928.73
eigval :      930.87   932.40   946.88   986.58  1023.49  1064.06
eigval :     1066.57  1082.82  1118.46  1121.67  1122.13  1143.32
eigval :     1153.88  1155.70  1165.68  1173.89  1181.91  1184.22
eigval :     1188.05  1206.81  1229.60  1244.09  1256.44  1270.47
eigval :     1275.51  1290.46  1320.77  1323.27  1329.57  1343.32
eigval :     1370.18  1389.95  1396.07  1404.70  1427.09  1428.28
eigval :     1433.66  1446.80  1473.70  1474.54  1484.80  1496.14
eigval :     1498.90  1515.10  1541.93  1556.56  1580.11  1597.60
eigval :     1604.76  1606.60  1614.71  2927.97  2941.82  3026.15
eigval :     3065.87  3067.54  3070.45  3072.81  3078.65  3084.62
eigval :     3091.78  3099.17  3100.40  3101.39  3104.02  3104.08
eigval :     3106.06  3114.36  3118.23

   temp. (K)  partition function   enthalpy   heat capacity  entropy
                                   cal/mol     cal/K/mol   cal/K/mol   J/K/mol
 298.15  VIB  0.197E+09            11832.464     77.691     71.660
         ROT  0.173E+08              888.752      2.981     36.101
         INT  0.341E+16            12721.216     80.672    107.761
         TR   0.635E+28             1481.254      4.968     43.436
         TOT                       14202.4702    85.6403   151.1970   632.6081

       T/K    H(0)-H(T)+PV         H(T)/Eh          T*S/Eh         G(T)/Eh
   ------------------------------------------------------------------------
    298.15    0.226331E-01    0.369718E+00    0.718386E-01    0.297879E+00
   ------------------------------------------------------------------------

         :::::::::::::::::::::::::::::::::::::::::::::::::::::
         ::                  THERMODYNAMIC                  ::
         :::::::::::::::::::::::::::::::::::::::::::::::::::::
         :: total free energy         -70.199949699216 Eh   ::
         ::.................................................::
         :: total energy              -70.497828713884 Eh   ::
         :: zero point energy           0.347084498805 Eh   ::
         :: G(RRHO) w/o ZPVE           -0.049205484137 Eh   ::
         :: G(RRHO) contrib.            0.297879014667 Eh   ::
         :::::::::::::::::::::::::::::::::::::::::::::::::::::

           -------------------------------------------------
          | TOTAL ENERGY              -70.497828713884 Eh   |
          | TOTAL ENTHALPY            -70.128111138103 Eh   |
          | TOTAL FREE ENERGY         -70.199949699216 Eh   |
          | GRADIENT NORM               0.000049522235 Eh/α |
          | HOMO-LUMO GAP               2.354419936029 eV   |
           -------------------------------------------------

 * finished run on 2025/09/04 at 13:01:29.395
