   * xtb version 6.7.1 (edcfbbe) compiled by 'albert@albert-system' on 2024-07-22

   ID    Z sym.   atoms
    1    6 C      1, 3-9, 11-22, 24-27
    2    8 O      2
    3    7 N      10, 23
    4    1 H      28-45

          program call               : xtb data2507/gas/ImPy-2/ImPy-2_gas_T1_crest.xyz --gfn 2 --spinpol --tblite --uhf 2 --ohess vtight --parallel 40 --molden --ceasefiles --namespace data2507/gas/ImPy-2/ImPy-2_gas_T1_finalOpt
 * total energy  :   -70.4201550 Eh     change       -0.3840682E-08 Eh
 * total energy  :   -70.4202701 Eh     change       -0.1151015E-03 Eh
 * total energy  :   -70.4203508 Eh     change       -0.8069926E-04 Eh
 * total energy  :   -70.4203588 Eh     change       -0.8086421E-05 Eh
 * total energy  :   -70.4203630 Eh     change       -0.4177864E-05 Eh
 * total energy  :   -70.4203648 Eh     change       -0.1800319E-05 Eh
 * total energy  :   -70.4203666 Eh     change       -0.1820714E-05 Eh
 * total energy  :   -70.4203679 Eh     change       -0.1291838E-05 Eh
 * total energy  :   -70.4203688 Eh     change       -0.9014812E-06 Eh
 * total energy  :   -70.4203695 Eh     change       -0.7051855E-06 Eh
 * total energy  :   -70.4203706 Eh     change       -0.5438977E-06 Eh
 * total energy  :   -70.4203711 Eh     change       -0.4996332E-06 Eh
 * total energy  :   -70.4203716 Eh     change       -0.4628841E-06 Eh
 * total energy  :   -70.4203721 Eh     change       -0.4459082E-06 Eh
 * total energy  :   -70.4203725 Eh     change       -0.3999968E-06 Eh
 * total energy  :   -70.4203728 Eh     change       -0.3344460E-06 Eh
 * total energy  :   -70.4203730 Eh     change       -0.2603136E-06 Eh
 * total energy  :   -70.4203732 Eh     change       -0.1628442E-06 Eh
 * total energy  :   -70.4203733 Eh     change       -0.7224567E-07 Eh
   *** GEOMETRY OPTIMIZATION CONVERGED AFTER 20 ITERATIONS ***

 final structure:
================
45
 xtb: 6.7.1 (edcfbbe)
C            7.54058707635967        1.71762123064879        0.35230007244597
O            7.05849127080757        0.52664452038625       -0.21984916943283
C            5.71800583028344        0.29957378344038       -0.21551720831552
C            5.31879430317647       -0.91545878427878       -0.81490686758646
C            4.00124754362862       -1.26151447298006       -0.87459582126777
C            3.00318393189486       -0.41756015793803       -0.33527896325049
C            1.64257292124073       -0.75663305838446       -0.37436814088064
C            0.68186895899789        0.08421402216204        0.16639123051232
C           -0.72866570976979       -0.20555880708593        0.13810824499365
N           -1.64530319820051        0.73056554212832        0.04069985404209
C           -2.86775602709533        0.11040796937734       -0.01136896826867
C           -4.05384683364106        0.88627930531464       -0.09328704171716
C           -3.92956609379848        2.26846988466828       -0.36158261862757
C           -5.04001969823875        3.06979810020509       -0.46709995498513
C           -6.31294990195265        2.53401742340896       -0.29776565904353
C           -6.45317664149866        1.18186742144671       -0.00637733714099
C           -5.34980176452888        0.36623876439115        0.09642641701555
C           -2.66381644845577       -1.31601407161836        0.04583209865904
C           -3.46961352200801       -2.42685474163362       -0.03693555383284
C           -2.87511935205102       -3.72436278827504        0.10442536597409
C           -1.53282204032685       -3.83178808403814        0.35650283539778
C           -0.72293092208193       -2.69706931121837        0.41159006290780
N           -1.29632809762474       -1.46825600596717        0.18107256316725
C            1.08570890763308        1.32215459455138        0.71993349148213
C            2.40311992387508        1.66649426455218        0.77415102719123
C            3.40354761798114        0.80802332820448        0.26114436974392
C            4.76694069258902        1.14584847375202        0.31181931406437
H            7.29312924516340        1.77999133218345        1.41694856296714
H            8.62261119220422        1.68530378391134        0.23530852375150
H            7.14658915319186        2.59872287145683       -0.16436516032671
H            6.08968521632344       -1.55162671086430       -1.22031511838903
H            3.70372995929266       -2.19287122099542       -1.33411684984300
H            1.35679495030228       -1.66360077678302       -0.88703107805267
H           -2.93595184009211        2.66614765534575       -0.49252654291497
H           -4.92645804969414        4.12256832296509       -0.68257242375830
H           -7.18549823347362        3.16436061361388       -0.38140764295608
H           -7.43972081561501        0.76795834096155        0.14746742033357
H           -5.47952795691782       -0.66945562013822        0.36243821477928
H           -4.52478245001339       -2.34497133083011       -0.21854996433584
H           -3.50285717843499       -4.59716449156548        0.03745698913780
H           -1.07267183914782       -4.79416715291115        0.51693729920633
H            0.31446912332492       -2.72115700711258        0.68984425511124
H            0.31751842221914        1.97397436137881        1.10469446474839
H            2.70287673627010        2.60771494057895        1.21214173439405
H            5.03932789010167        2.08364092338473        0.77096356719974

 projected vibrational frequencies (cm⁻¹)
eigval :       -0.00    -0.00    -0.00     0.00     0.00     0.00
eigval :       22.85    27.31    35.61    40.19    64.14    80.62
eigval :      102.99   128.43   144.50   163.95   168.27   186.20
eigval :      202.97   213.32   243.24   245.60   288.46   318.20
eigval :      336.08   352.85   365.40   369.25   371.37   393.69
eigval :      442.81   451.74   458.08   495.22   503.98   515.08
eigval :      536.34   551.22   576.88   588.49   593.25   618.51
eigval :      619.65   630.64   640.25   658.55   666.18   693.47
eigval :      695.28   715.28   740.73   744.69   770.67   775.12
eigval :      795.09   830.95   835.80   841.98   845.57   872.07
eigval :      876.04   878.38   881.18   909.44   916.09   916.99
eigval :      921.41   923.80   954.40   969.79  1000.53  1038.56
eigval :     1065.73  1071.92  1075.66  1104.85  1114.86  1121.69
eigval :     1130.16  1143.83  1149.55  1157.65  1163.54  1175.86
eigval :     1177.48  1187.05  1188.89  1212.15  1224.23  1245.62
eigval :     1261.09  1275.25  1276.76  1298.35  1311.57  1320.79
eigval :     1335.13  1349.42  1373.05  1388.24  1391.44  1401.67
eigval :     1405.97  1419.14  1434.29  1442.71  1449.15  1470.28
eigval :     1479.02  1487.24  1488.88  1510.46  1523.27  1543.80
eigval :     1564.58  1567.25  1597.59  2932.45  2946.56  3028.30
eigval :     3070.54  3074.25  3074.71  3076.21  3079.77  3090.55
eigval :     3095.80  3096.10  3106.76  3109.26  3112.43  3112.95
eigval :     3119.72  3139.48  3148.74

   temp. (K)  partition function   enthalpy   heat capacity  entropy
                                   cal/mol     cal/K/mol   cal/K/mol   J/K/mol
 298.15  VIB  0.333E+09            12171.789     79.828     73.390
         ROT  0.175E+08              888.752      2.981     36.120
         INT  0.582E+16            13060.542     82.809    109.509
         TR   0.635E+28             1481.254      4.968     43.436
         TOT                       14541.7956    87.7767   152.9452   639.9228

       T/K    H(0)-H(T)+PV         H(T)/Eh          T*S/Eh         G(T)/Eh
   ------------------------------------------------------------------------
    298.15    0.231738E-01    0.365463E+00    0.726692E-01    0.292793E+00
   ------------------------------------------------------------------------

         :::::::::::::::::::::::::::::::::::::::::::::::::::::
         ::                  THERMODYNAMIC                  ::
         :::::::::::::::::::::::::::::::::::::::::::::::::::::
         :: total free energy         -70.127579986149 Eh   ::
         ::.................................................::
         :: total energy              -70.420373279860 Eh   ::
         :: zero point energy           0.342288678088 Eh   ::
         :: G(RRHO) w/o ZPVE           -0.049495384377 Eh   ::
         :: G(RRHO) contrib.            0.292793293711 Eh   ::
         :::::::::::::::::::::::::::::::::::::::::::::::::::::

           -------------------------------------------------
          | TOTAL ENERGY              -70.420373279860 Eh   |
          | TOTAL ENTHALPY            -70.054910775384 Eh   |
          | TOTAL FREE ENERGY         -70.127579986149 Eh   |
          | GRADIENT NORM               0.000047579029 Eh/α |
           -------------------------------------------------

 * finished run on 2025/09/04 at 13:03:39.517
