   * xtb version 6.7.1 (edcfbbe) compiled by 'albert@albert-system' on 2024-07-22

   ID    Z sym.   atoms
    1    6 C      1, 3-9, 11-22, 24-27
    2    8 O      2
    3    7 N      10, 23
    4    1 H      28-45

          program call               : xtb data2507/gas/ImPy-2/ImPy-2_gas_S0_crest.xyz --gfn 2 --ohess vtight --parallel 40 --molden --ceasefiles --namespace data2507/gas/ImPy-2/ImPy-2_gas_S0_finalOpt
          :  Hamiltonian                  GFN2-xTB          :
 * total energy  :   -70.4994348 Eh     change       -0.2486800E-08 Eh
 * total energy  :   -70.4994361 Eh     change       -0.1321171E-05 Eh
 * total energy  :   -70.4994375 Eh     change       -0.1412433E-05 Eh
 * total energy  :   -70.4994395 Eh     change       -0.1983101E-05 Eh
 * total energy  :   -70.4994407 Eh     change       -0.1192748E-05 Eh
 * total energy  :   -70.4994419 Eh     change       -0.1193279E-05 Eh
 * total energy  :   -70.4994438 Eh     change       -0.1863246E-05 Eh
 * total energy  :   -70.4994456 Eh     change       -0.1867643E-05 Eh
 * total energy  :   -70.4994464 Eh     change       -0.7695300E-06 Eh
 * total energy  :   -70.4994468 Eh     change       -0.3411511E-06 Eh
 * total energy  :   -70.4994473 Eh     change       -0.2534396E-06 Eh
 * total energy  :   -70.4994475 Eh     change       -0.1516611E-06 Eh
 * total energy  :   -70.4994476 Eh     change       -0.1605780E-06 Eh
 * total energy  :   -70.4994478 Eh     change       -0.2305473E-06 Eh
 * total energy  :   -70.4994482 Eh     change       -0.3146683E-06 Eh
 * total energy  :   -70.4994485 Eh     change       -0.2953278E-06 Eh
 * total energy  :   -70.4994487 Eh     change       -0.1993645E-06 Eh
 * total energy  :   -70.4994488 Eh     change       -0.1196602E-06 Eh
 * total energy  :   -70.4994489 Eh     change       -0.8836267E-07 Eh
   *** GEOMETRY OPTIMIZATION CONVERGED AFTER 20 ITERATIONS ***

 final structure:
================
45
 xtb: 6.7.1 (edcfbbe)
C            7.57179800186610        1.66442817228347        0.47234491081347
O            7.08379547048828        0.52871728378393       -0.19775981590340
C            5.73997215665652        0.30925929974581       -0.20524533072005
C            5.33307105405773       -0.85061687049684       -0.90540554697270
C            4.01628137299659       -1.18624295512727       -0.98774499411588
C            3.02349153899732       -0.38855604849861       -0.37570948210475
C            1.65762651434925       -0.71621342005261       -0.44128750246338
C            0.70857504266064        0.07088147543174        0.17355036166726
C           -0.71294144090500       -0.21930456483203        0.12805432018644
N           -1.63826512233425        0.71680880146976        0.05271779222978
C           -2.84618688397136        0.11671390271124        0.01154640635761
C           -4.06490840260847        0.90113000086173       -0.08319102091012
C           -4.00757106674286        2.16778797148601       -0.66617356252507
C           -5.14433138668923        2.94362945568738       -0.77228321416660
C           -6.35735300631655        2.47174882780873       -0.29607701910610
C           -6.42024231775216        1.22460908627218        0.30265786833007
C           -5.28450028582043        0.44448093238938        0.41400453907027
C           -2.66836194994990       -1.27070344760056        0.05934036929032
C           -3.50123480854884       -2.40057111868803       -0.01137678516828
C           -2.95870658192407       -3.64644483492720        0.09133687531005
C           -1.56307329335930       -3.79320814893202        0.29339445416630
C           -0.75494933646643       -2.70595029424424        0.31599036023714
N           -1.28474908793697       -1.46173005929847        0.14829151733102
C            1.11761059896112        1.24862773582357        0.84017439867236
C            2.43564341312059        1.58832658968648        0.91282853565149
C            3.42917002119553        0.77809322919689        0.32122088154012
C            4.79749541652924        1.10713768617585        0.39522198066507
H            7.32795141132001        1.63635986953127        1.53943377202608
H            8.65336033725736        1.63912567823614        0.34931406106548
H            7.17896604701962        2.58797647132108        0.03469260245010
H            6.10106472100886       -1.45131565312479       -1.36687755139131
H            3.71395467435114       -2.07396318375146       -1.52484146501758
H            1.37060133902890       -1.58160279313713       -1.02218721353131
H           -3.05563114144121        2.52260964674876       -1.02963449786711
H           -5.08814828043001        3.92114493118973       -1.22940435868385
H           -7.24814274906286        3.07676336403527       -0.38230922705187
H           -7.36023499315102        0.86026466196004        0.69245026023442
H           -5.33931147608514       -0.50934510192390        0.91675576272404
H           -4.55956598232396       -2.25917119846200       -0.15722866034237
H           -3.57960668821588       -4.52622442770491        0.03511856603648
H           -1.14055347900312       -4.77581856288555        0.42666286114514
H            0.30839971584666       -2.76461073599721        0.48451626033297
H            0.35329984290693        1.86653165678647        1.28476308152393
H            2.73887420632263        2.48869763477253        1.42809077047744
H            5.07283743069794        2.00083196938967        0.93392642590677

          :  Hamiltonian                  GFN2-xTB          :
         :: gradient norm              0.000020966827 Eh/a0 ::
         :: HOMO-LUMO gap              2.399318470055 eV    ::
         :: SCC energy               -71.733413288220 Eh    ::
         :: -> dispersion             -0.053774890587 Eh    ::
         :: repulsion energy           1.233964421033 Eh    ::

    * Orbital Energies and Occupations

         #    Occupation            Energy/Eh            Energy/eV
      -------------------------------------------------------------
         1        2.0000           -0.7173467             -19.5200
       ...           ...                  ...                  ...
        53        2.0000           -0.4365149             -11.8782
        54        2.0000           -0.4265314             -11.6065
        55        2.0000           -0.4247403             -11.5578
        56        2.0000           -0.4175350             -11.3617
        57        2.0000           -0.4145706             -11.2810
        58        2.0000           -0.4134131             -11.2495
        59        2.0000           -0.4113599             -11.1937
        60        2.0000           -0.3995783             -10.8731
        61        2.0000           -0.3943727             -10.7314
        62        2.0000           -0.3897545             -10.6058
        63        2.0000           -0.3749870             -10.2039
        64        2.0000           -0.3736490             -10.1675
        65        2.0000           -0.3486223              -9.4865 (HOMO)
        66                         -0.2604490              -7.0872 (LUMO)
        67                         -0.2593087              -7.0561
        68                         -0.2390693              -6.5054
        69                         -0.2268575              -6.1731
        70                         -0.2119885              -5.7685
        71                         -0.1996017              -5.4314
        72                         -0.1861413              -5.0652
        73                         -0.1575078              -4.2860
        74                         -0.1246819              -3.3928
        75                         -0.1082468              -2.9455
        76                         -0.0657688              -1.7897
       ...                                ...                  ...
       126                          0.7164166              19.4947
      -------------------------------------------------------------
                  HL-Gap            0.0881734 Eh            2.3993 eV

     #   Z          covCN         q      C6AA      α(0)
     1   6 C        3.645     0.038    20.265     6.470
     2   8 O        1.705    -0.269    18.458     5.801
     3   6 C        2.863     0.143    24.891     8.178
     4   6 C        2.916    -0.050    29.253     8.869
     5   6 C        2.917    -0.036    28.904     8.816
     6   6 C        2.986     0.004    27.924     8.668
     7   6 C        2.922    -0.044    29.103     8.847
     8   6 C        2.970    -0.001    28.040     8.686
     9   6 C        3.125     0.103    25.549     8.277
    10   7 N        1.916    -0.279    28.071     7.856
    11   6 C        3.132     0.047    26.749     8.467
    12   6 C        2.973     0.010    27.783     8.646
    13   6 C        2.928    -0.030    28.754     8.794
    14   6 C        2.918    -0.029    28.734     8.790
    15   6 C        2.920    -0.033    28.816     8.803
    16   6 C        2.919    -0.031    28.771     8.796
    17   6 C        2.923    -0.040    28.987     8.829
    18   6 C        3.073     0.024    27.401     8.583
    19   6 C        2.908    -0.034    28.849     8.807
    20   6 C        2.919    -0.035    28.862     8.810
    21   6 C        2.914    -0.041    29.015     8.833
    22   6 C        2.851     0.011    27.770     8.637
    23   7 N        2.844     0.005    21.171     6.834
    24   6 C        2.923    -0.030    28.754     8.794
    25   6 C        2.917    -0.036    28.904     8.816
    26   6 C        2.987     0.012    27.745     8.640
    27   6 C        2.916    -0.077    29.934     8.972
    28   1 H        0.924     0.040     2.448     2.447
    29   1 H        0.925     0.061     2.185     2.311
    30   1 H        0.924     0.041     2.441     2.443
    31   1 H        0.926     0.048     2.340     2.392
    32   1 H        0.926     0.036     2.501     2.473
    33   1 H        0.926     0.028     2.619     2.531
    34   1 H        0.926     0.049     2.336     2.390
    35   1 H        0.926     0.029     2.605     2.524
    36   1 H        0.926     0.026     2.637     2.539
    37   1 H        0.926     0.026     2.649     2.545
    38   1 H        0.926     0.025     2.655     2.548
    39   1 H        0.926     0.045     2.377     2.411
    40   1 H        0.926     0.036     2.506     2.476
    41   1 H        0.926     0.041     2.430     2.438
    42   1 H        0.926     0.050     2.323     2.383
    43   1 H        0.926     0.051     2.311     2.377
    44   1 H        0.926     0.033     2.537     2.491
    45   1 H        0.926     0.035     2.523     2.484

molecular dipole:
                 x           y           z       tot (Debye)
 q only:        0.506      -0.442       0.251
   full:        0.532      -0.793       0.342       2.578

 projected vibrational frequencies (cm⁻¹)
eigval :       -0.00    -0.00    -0.00     0.00     0.00     0.00
eigval :       23.90    26.26    41.63    42.96    67.59    84.67
eigval :       92.44   129.57   150.89   165.33   184.05   190.40
eigval :      208.94   215.29   241.77   263.33   279.20   332.05
eigval :      355.13   371.67   372.30   374.58   393.89   412.46
eigval :      451.79   459.55   475.90   498.76   518.18   520.73
eigval :      560.88   574.67   576.92   591.66   602.09   629.21
eigval :      637.15   663.40   679.03   691.01   699.29   717.08
eigval :      746.30   761.62   766.23   785.08   796.78   834.83
eigval :      839.49   852.11   855.93   876.19   880.56   885.04
eigval :      897.87   902.73   911.09   915.91   921.60   928.86
eigval :      930.83   934.52   955.94   986.86  1024.19  1064.17
eigval :     1066.78  1082.79  1118.40  1121.43  1122.93  1136.43
eigval :     1155.31  1158.46  1162.19  1173.63  1181.93  1186.55
eigval :     1189.16  1206.71  1227.95  1242.17  1247.82  1267.86
eigval :     1274.41  1289.32  1313.60  1323.07  1329.61  1345.46
eigval :     1380.25  1393.62  1396.15  1403.23  1425.94  1429.75
eigval :     1433.97  1448.65  1470.94  1474.00  1483.04  1493.94
eigval :     1496.90  1514.28  1542.20  1564.86  1580.12  1597.66
eigval :     1603.60  1614.41  1614.82  2930.31  2944.66  3027.60
eigval :     3067.58  3068.70  3072.01  3072.73  3074.68  3084.51
eigval :     3091.48  3094.74  3099.33  3103.79  3104.60  3105.43
eigval :     3106.27  3114.52  3118.25

   temp. (K)  partition function   enthalpy   heat capacity  entropy
                                   cal/mol     cal/K/mol   cal/K/mol   J/K/mol
 298.15  VIB  0.179E+09            11814.368     77.690     71.439
         ROT  0.174E+08              888.752      2.981     36.115
         INT  0.312E+16            12703.120     80.671    107.554
         TR   0.635E+28             1481.254      4.968     43.436
         TOT                       14184.3740    85.6395   150.9900   631.7420

       T/K    H(0)-H(T)+PV         H(T)/Eh          T*S/Eh         G(T)/Eh
   ------------------------------------------------------------------------
    298.15    0.226042E-01    0.369774E+00    0.717402E-01    0.298034E+00
   ------------------------------------------------------------------------

         :::::::::::::::::::::::::::::::::::::::::::::::::::::
         ::                  THERMODYNAMIC                  ::
         :::::::::::::::::::::::::::::::::::::::::::::::::::::
         :: total free energy         -70.201415269306 Eh   ::
         ::.................................................::
         :: total energy              -70.499448867185 Eh   ::
         :: zero point energy           0.347169557911 Eh   ::
         :: G(RRHO) w/o ZPVE           -0.049135960032 Eh   ::
         :: G(RRHO) contrib.            0.298033597879 Eh   ::
         :::::::::::::::::::::::::::::::::::::::::::::::::::::

           -------------------------------------------------
          | TOTAL ENERGY              -70.499448867185 Eh   |
          | TOTAL ENTHALPY            -70.129675070521 Eh   |
          | TOTAL FREE ENERGY         -70.201415269306 Eh   |
          | GRADIENT NORM               0.000021016214 Eh/α |
          | HOMO-LUMO GAP               2.399319048240 eV   |
           -------------------------------------------------

 * finished run on 2025/09/04 at 13:02:26.404
