   * xtb version 6.7.1 (edcfbbe) compiled by 'albert@albert-system' on 2024-07-22

   ID    Z sym.   atoms
    1    6 C      1, 3-9, 11-22, 24-27
    2    8 O      2
    3    7 N      10, 23
    4    1 H      28-45

          program call               : xtb data2507/gas/ImPy-2/ImPy-2_gas_S0_finalOpt.xtbopt.xyz --gfn 2 --spinpol --tblite --uhf 2 --ohess vtight --parallel 40 --molden --ceasefiles --namespace data2507/gas/ImPy-2/ImPy-2_gas_T1_preOpt
 * total energy  :   -70.4111922 Eh     change        0.2631873E-07 Eh
 * total energy  :   -70.4171501 Eh     change       -0.5957901E-02 Eh
 * total energy  :   -70.4191317 Eh     change       -0.1981566E-02 Eh
 * total energy  :   -70.4194098 Eh     change       -0.2781400E-03 Eh
 * total energy  :   -70.4196159 Eh     change       -0.2060956E-03 Eh
 * total energy  :   -70.4196956 Eh     change       -0.7973078E-04 Eh
 * total energy  :   -70.4197809 Eh     change       -0.8526838E-04 Eh
 * total energy  :   -70.4198564 Eh     change       -0.7554635E-04 Eh
 * total energy  :   -70.4199209 Eh     change       -0.6446003E-04 Eh
 * total energy  :   -70.4199852 Eh     change       -0.6427563E-04 Eh
 * total energy  :   -70.4203697 Eh     change       -0.8072057E-06 Eh
 * total energy  :   -70.4203702 Eh     change       -0.5085504E-06 Eh
 * total energy  :   -70.4203708 Eh     change       -0.5322650E-06 Eh
 * total energy  :   -70.4203713 Eh     change       -0.4977232E-06 Eh
 * total energy  :   -70.4203717 Eh     change       -0.3895645E-06 Eh
 * total energy  :   -70.4203719 Eh     change       -0.2718014E-06 Eh
 * total energy  :   -70.4203721 Eh     change       -0.1589409E-06 Eh
 * total energy  :   -70.4203721 Eh     change        0.2129897E-07 Eh
 * total energy  :   -70.4203721 Eh     change       -0.1921840E-07 Eh
   *** GEOMETRY OPTIMIZATION CONVERGED AFTER 45 ITERATIONS ***

 final structure:
================
45
 xtb: 6.7.1 (edcfbbe)
C            7.54576253447385        1.68196328428123        0.40164618580992
O            7.06018479499645        0.50246944251787       -0.19094805182789
C            5.71850901681622        0.28251877289079       -0.19666811322257
C            5.31649762721309       -0.92385306473653       -0.81146142441112
C            3.99770800325448       -1.26333462696961       -0.88056453371134
C            3.00116275218848       -0.42106334634062       -0.33584012269951
C            1.63956828002460       -0.75517348957168       -0.38145169408785
C            0.68041614616062        0.08309077088030        0.16608795998011
C           -0.73042571511927       -0.20512511081356        0.13595582297109
N           -1.64736835628492        0.73135399495192        0.04535258789103
C           -2.86976946499927        0.11103268265879       -0.00810625103513
C           -4.05672126622554        0.88640964108598       -0.08188206887338
C           -3.93495111495610        2.27011044517103       -0.34325393735545
C           -5.04676787769774        3.07065433837526       -0.44048330646501
C           -6.31844643698558        2.53249542411784       -0.26928346610938
C           -6.45606958671246        1.17870706697353        0.01562731183141
C           -5.35136352032541        0.36387540884560        0.11002901753061
C           -2.66535816576719       -1.31561119582772        0.04009893603961
C           -3.47092460033781       -2.42624780161924       -0.04828608484304
C           -2.87584360213855       -3.72431022305386        0.08494981017225
C           -1.53320092967111       -3.83276346522868        0.33481179677864
C           -0.72356739294680       -2.69811446895022        0.39516175994780
N           -1.29767315568313       -1.46825122475696        0.17229964206150
C            1.08673737353175        1.31489005505084        0.73121602410166
C            2.40520007981229        1.65429845350801        0.79189110687717
C            3.40419067160081        0.79683031452822        0.27438913981175
C            4.76886610235566        1.12788634141631        0.33471315110115
H            7.29050750284245        1.73084356598599        1.46516179051395
H            8.62841708443998        1.64396584422656        0.29243022984864
H            7.16167795384371        2.57298531891406       -0.10536163412718
H            6.08634176891149       -1.55900113769254       -1.22044791143810
H            3.69798346001869       -2.18827033957821       -1.35147587864273
H            1.35185688420670       -1.65621609350519       -0.90341339847834
H           -2.94229539191664        2.66969043790102       -0.47567219741574
H           -4.93526474065582        4.12467096888472       -0.65085311719168
H           -7.19203276856750        3.16223493881741       -0.34646063590818
H           -7.44153370454494        0.76283681241171        0.17109810911409
H           -5.47878973114150       -0.67325590441493        0.37151820355914
H           -4.52629944589254       -2.34367915295634       -0.22841152852038
H           -3.50342466572498       -4.59690538083680        0.01387827303355
H           -1.07253255347975       -4.79584226758160        0.48936868150598
H            0.31418514461460       -2.72340853762282        0.67204613580832
H            0.31973051218718        1.96566916013318        1.12011708588334
H            2.70695582280069        2.59047996156307        1.23921102303996
H            5.04345218621914        2.05954222990163        0.80491328840447

 projected vibrational frequencies (cm⁻¹)
eigval :       -0.00    -0.00    -0.00    -0.00     0.00     0.00
eigval :       22.58    26.89    35.43    40.02    64.03    80.66
eigval :      102.60   128.41   144.48   163.79   168.26   186.26
eigval :      202.93   213.10   243.13   245.62   288.34   318.21
eigval :      335.83   353.16   365.26   369.32   371.21   393.70
eigval :      442.63   451.73   458.31   495.15   503.80   515.14
eigval :      536.34   551.17   576.84   588.52   593.25   618.45
eigval :      619.86   630.54   640.26   658.52   666.13   693.51
eigval :      694.98   715.28   740.65   744.49   770.72   775.05
eigval :      794.83   831.02   835.55   841.76   845.32   872.28
eigval :      875.66   878.09   881.13   909.15   915.65   916.65
eigval :      921.53   923.42   954.70   969.95  1000.25  1039.07
eigval :     1065.96  1072.06  1076.32  1105.34  1114.68  1121.39
eigval :     1129.96  1144.61  1149.29  1157.39  1163.23  1175.04
eigval :     1177.30  1186.50  1188.34  1211.69  1223.98  1245.42
eigval :     1260.86  1275.05  1276.29  1298.24  1311.51  1320.83
eigval :     1335.14  1349.39  1372.77  1387.86  1391.15  1401.15
eigval :     1405.68  1418.95  1434.08  1442.65  1449.16  1469.47
eigval :     1478.63  1486.95  1488.82  1510.74  1523.18  1543.78
eigval :     1565.06  1567.18  1597.60  2932.38  2946.32  3028.28
eigval :     3070.48  3074.31  3074.60  3075.99  3079.71  3090.44
eigval :     3095.88  3095.93  3106.65  3109.01  3112.51  3112.90
eigval :     3119.71  3139.32  3148.85

   temp. (K)  partition function   enthalpy   heat capacity  entropy
                                   cal/mol     cal/K/mol   cal/K/mol   J/K/mol
 298.15  VIB  0.347E+09            12175.186     79.822     73.424
         ROT  0.174E+08              888.752      2.981     36.118
         INT  0.605E+16            13063.939     82.803    109.542
         TR   0.635E+28             1481.254      4.968     43.436
         TOT                       14545.1927    87.7707   152.9780   640.0601

       T/K    H(0)-H(T)+PV         H(T)/Eh          T*S/Eh         G(T)/Eh
   ------------------------------------------------------------------------
    298.15    0.231792E-01    0.365439E+00    0.726848E-01    0.292754E+00
   ------------------------------------------------------------------------

         :::::::::::::::::::::::::::::::::::::::::::::::::::::
         ::                  THERMODYNAMIC                  ::
         :::::::::::::::::::::::::::::::::::::::::::::::::::::
         :: total free energy         -70.127618242193 Eh   ::
         ::.................................................::
         :: total energy              -70.420372068756 Eh   ::
         :: zero point energy           0.342259388322 Eh   ::
         :: G(RRHO) w/o ZPVE           -0.049505561759 Eh   ::
         :: G(RRHO) contrib.            0.292753826563 Eh   ::
         :::::::::::::::::::::::::::::::::::::::::::::::::::::

           -------------------------------------------------
          | TOTAL ENERGY              -70.420372068756 Eh   |
          | TOTAL ENTHALPY            -70.054933440393 Eh   |
          | TOTAL FREE ENERGY         -70.127618242193 Eh   |
          | GRADIENT NORM               0.000095551480 Eh/α |
           -------------------------------------------------

 * finished run on 2025/09/04 at 13:02:29.988
