   * xtb version 6.7.1 (edcfbbe) compiled by 'albert@albert-system' on 2024-07-22

   ID    Z sym.   atoms
    1    6 C      1-9, 11-17, 19-25, 27-32
    2    7 N      10
    3    8 O      18, 26
    4    1 H      33-53

          program call               : xtb data2507/gas/DMAC-AQ/DMAC-AQ_gas_S0_crest.xyz --gfn 2 --ohess vtight --parallel 40 --molden --ceasefiles --namespace data2507/gas/DMAC-AQ/DMAC-AQ_gas_S0_finalOpt
          :  Hamiltonian                  GFN2-xTB          :
 * total energy  :   -83.8864497 Eh     change       -0.9438423E-09 Eh
 * total energy  :   -83.8864504 Eh     change       -0.7764230E-06 Eh
 * total energy  :   -83.8864509 Eh     change       -0.4920998E-06 Eh
 * total energy  :   -83.8864522 Eh     change       -0.1227435E-05 Eh
 * total energy  :   -83.8864528 Eh     change       -0.6439384E-06 Eh
 * total energy  :   -83.8864533 Eh     change       -0.4797246E-06 Eh
 * total energy  :   -83.8864538 Eh     change       -0.5048461E-06 Eh
 * total energy  :   -83.8864542 Eh     change       -0.4443217E-06 Eh
 * total energy  :   -83.8864545 Eh     change       -0.2250164E-06 Eh
 * total energy  :   -83.8864546 Eh     change       -0.1706705E-06 Eh
 * total energy  :   -83.8864548 Eh     change       -0.1490066E-06 Eh
 * total energy  :   -83.8864549 Eh     change       -0.9859367E-07 Eh
   *** GEOMETRY OPTIMIZATION CONVERGED AFTER 12 ITERATIONS ***

 final structure:
================
53
 xtb: 6.7.1 (edcfbbe)
C           -5.09331540594004       -0.81121233742295       -1.89338667950104
C           -3.76077738770209       -0.42418738601088       -1.25266306305507
C           -2.74023315014228       -0.18037748215250       -2.38281473504515
C           -3.22617046695552       -1.50361874347407       -0.32691061975071
C           -3.70864380452855       -2.80198797631827       -0.27388007135420
C           -3.17191056965174       -3.72369955682100        0.60938494402488
C           -2.16255090561490       -3.35092156731297        1.47865952279561
C           -1.67467561496906       -2.05799708457079        1.45070833678012
C           -2.18113990728152       -1.14857036331874        0.53129323520540
N           -1.73329450520327        0.19072584567466        0.50580857830413
C           -0.41765967364904        0.54764849969926        0.34351135429619
C           -0.03872864657996        1.88990008263013        0.16511133883277
C            1.28270137179450        2.23442358061463        0.01303614972581
C            2.29596302146703        1.27371814597674        0.01012493258139
C            1.92322521897195       -0.07469935847286        0.11475863898419
C            0.59163564879000       -0.42153909627065        0.26604534192719
C            2.92228205406692       -1.16436136093937        0.06272196039699
O            2.60308526572791       -2.33769713934911        0.12995520041931
C            4.33331878675249       -0.74294536049029       -0.06835464589383
C            5.32335654770566       -1.72244283816873       -0.10115993336657
C            6.65599959227694       -1.37504094572216       -0.21897728213460
C            7.01677569459946       -0.03840343639628       -0.30638829353782
C            6.04295103567709        0.94274068076913       -0.27617646234348
C            4.69766172490898        0.60621737902774       -0.15731919623023
C            3.69084447058065        1.69497739382319       -0.13219523618920
O            4.01658729468134        2.86792965843721       -0.22562397955789
C           -2.80210716037766        1.11071163652075        0.45703844720023
C           -2.84615049249326        2.20508942391065        1.31151673823059
C           -3.92729118173537        3.06540615968691        1.27226391447587
C           -4.97193855519231        2.81696356282107        0.40001349389727
C           -4.94761062796722        1.69987766313495       -0.41819004492192
C           -3.86847346357512        0.83001391371911       -0.40285159311358
H           -4.97145049181094       -1.70528678443934       -2.49955951264561
H           -5.43582911588945       -0.01854025466196       -2.55386737197842
H           -5.85227096271856       -0.99590888575586       -1.13639379564484
H           -1.76472399458484        0.09995691474012       -1.99537237023498
H           -2.62386578948968       -1.08559836777089       -2.97493342105886
H           -3.09253073429677        0.61893810735721       -3.03159486098528
H           -4.51001730072884       -3.11239705196430       -0.92431433133030
H           -3.55574524247135       -4.73250626704660        0.62660231217662
H           -1.76111974389183       -4.06008799440801        2.18609431563068
H           -0.91434932627797       -1.74655795490376        2.15068176465216
H           -0.79141422529650        2.66081368734313        0.12240796363197
H            1.56533943485238        3.26893870220324       -0.11374160826875
H            0.35738351752436       -1.47410653338947        0.29950311142079
H            5.01906364565224       -2.75649127288897       -0.03163252956272
H            7.41430578696300       -2.14362066138148       -0.24277190385511
H            8.05710815102657        0.23664245985516       -0.39834742109100
H            6.30075865585428        1.98945818875069       -0.34371662168101
H           -2.04377113294299        2.36665088010862        2.01563772692023
H           -3.95781990613882        3.91961700434898        1.93142644934848
H           -5.81832581973217        3.48609307013499        0.36529056079756
H           -5.78504142974432        1.51736154013415       -1.07159439592448

          :  Hamiltonian                  GFN2-xTB          :
         :: gradient norm              0.000069139684 Eh/a0 ::
         :: HOMO-LUMO gap              1.457244290348 eV    ::
         :: SCC energy               -85.322719856894 Eh    ::
         :: -> dispersion             -0.072128034337 Eh    ::
         :: repulsion energy           1.436264973259 Eh    ::

    * Orbital Energies and Occupations

         #    Occupation            Energy/Eh            Energy/eV
      -------------------------------------------------------------
         1        2.0000           -0.7041082             -19.1598
       ...           ...                  ...                  ...
        65        2.0000           -0.4301188             -11.7041
        66        2.0000           -0.4264188             -11.6034
        67        2.0000           -0.4262569             -11.5990
        68        2.0000           -0.4215186             -11.4701
        69        2.0000           -0.4182472             -11.3811
        70        2.0000           -0.4175725             -11.3627
        71        2.0000           -0.4167926             -11.3415
        72        2.0000           -0.4109135             -11.1815
        73        2.0000           -0.4080507             -11.1036
        74        2.0000           -0.4063771             -11.0581
        75        2.0000           -0.3983231             -10.8389
        76        2.0000           -0.3804011             -10.3512
        77        2.0000           -0.3662780              -9.9669 (HOMO)
        78                         -0.3127251              -8.5097 (LUMO)
        79                         -0.2675075              -7.2792
        80                         -0.2423189              -6.5938
        81                         -0.2369702              -6.4483
        82                         -0.2350586              -6.3963
        83                         -0.2312040              -6.2914
        84                         -0.2282385              -6.2107
        85                         -0.2216894              -6.0325
        86                         -0.1787596              -4.8643
        87                         -0.1737006              -4.7266
        88                         -0.1118435              -3.0434
       ...                                ...                  ...
       149                          0.7397805              20.1305
      -------------------------------------------------------------
                  HL-Gap            0.0535529 Eh            1.4572 eV

     #   Z          covCN         q      C6AA      α(0)
     1   6 C        3.759    -0.107    22.602     6.778
     2   6 C        3.911     0.023    20.132     6.377
     3   6 C        3.762    -0.099    22.435     6.752
     4   6 C        2.987    -0.006    28.156     8.704
     5   6 C        2.923    -0.037    28.929     8.820
     6   6 C        2.919    -0.034    28.859     8.809
     7   6 C        2.920    -0.030    28.751     8.793
     8   6 C        2.920    -0.043    29.065     8.841
     9   6 C        2.951     0.055    26.775     8.487
    10   7 N        2.754    -0.059    22.385     7.027
    11   6 C        2.910     0.074    26.337     8.415
    12   6 C        2.920    -0.054    29.345     8.883
    13   6 C        2.922    -0.018    28.456     8.748
    14   6 C        2.973    -0.031    28.757     8.796
    15   6 C        2.974    -0.015    28.392     8.740
    16   6 C        2.929    -0.046    29.153     8.855
    17   6 C        2.832     0.224    23.289     7.908
    18   8 O        0.858    -0.373    21.154     6.166
    19   6 C        2.975    -0.014    28.364     8.736
    20   6 C        2.924    -0.017    28.432     8.744
    21   6 C        2.918    -0.023    28.573     8.766
    22   6 C        2.918    -0.021    28.537     8.760
    23   6 C        2.924    -0.017    28.442     8.746
    24   6 C        2.975    -0.012    28.306     8.727
    25   6 C        2.830     0.220    23.368     7.921
    26   8 O        0.858    -0.384    21.372     6.198
    27   6 C        2.951     0.055    26.767     8.486
    28   6 C        2.920    -0.045    29.119     8.849
    29   6 C        2.920    -0.032    28.806     8.801
    30   6 C        2.919    -0.035    28.882     8.813
    31   6 C        2.923    -0.037    28.931     8.821
    32   6 C        2.987    -0.005    28.151     8.703
    33   1 H        0.925     0.042     2.417     2.431
    34   1 H        0.925     0.042     2.426     2.436
    35   1 H        0.925     0.039     2.459     2.452
    36   1 H        0.925     0.036     2.505     2.475
    37   1 H        0.925     0.041     2.436     2.441
    38   1 H        0.925     0.040     2.454     2.450
    39   1 H        0.926     0.042     2.429     2.437
    40   1 H        0.926     0.036     2.498     2.472
    41   1 H        0.926     0.040     2.450     2.448
    42   1 H        0.926     0.043     2.408     2.426
    43   1 H        0.926     0.044     2.396     2.420
    44   1 H        0.926     0.063     2.165     2.301
    45   1 H        0.926     0.066     2.124     2.279
    46   1 H        0.926     0.064     2.153     2.295
    47   1 H        0.926     0.044     2.401     2.423
    48   1 H        0.926     0.044     2.395     2.420
    49   1 H        0.926     0.066     2.130     2.282
    50   1 H        0.926     0.041     2.440     2.442
    51   1 H        0.926     0.037     2.487     2.466
    52   1 H        0.926     0.036     2.507     2.476
    53   1 H        0.926     0.042     2.423     2.434

molecular dipole:
                 x           y           z       tot (Debye)
 q only:       -1.513      -0.347      -0.096
   full:       -1.443      -0.350      -0.084       3.781

 projected vibrational frequencies (cm⁻¹)
eigval :       -0.00    -0.00    -0.00     0.00     0.00     0.00
eigval :       18.24    24.05    36.83    49.65    63.83    88.45
eigval :      103.54   113.78   134.04   140.67   152.80   169.03
eigval :      180.16   186.57   199.05   227.71   256.45   262.30
eigval :      285.21   299.56   317.07   338.77   349.22   364.47
eigval :      369.43   371.16   381.79   401.19   403.37   404.84
eigval :      411.32   422.97   450.73   456.73   478.07   499.62
eigval :      507.12   517.45   554.18   562.55   573.54   592.93
eigval :      602.27   621.39   622.33   645.53   670.04   679.96
eigval :      684.85   686.77   693.73   720.18   725.40   769.89
eigval :      778.52   783.92   791.08   793.75   810.62   834.02
eigval :      872.87   880.62   887.48   894.24   896.63   908.51
eigval :      915.66   919.76   924.24   929.46   933.84   936.58
eigval :      942.47   944.30   951.93   968.22  1010.27  1014.78
eigval :     1073.86  1078.72  1084.77  1086.31  1100.18  1106.83
eigval :     1124.32  1138.36  1152.70  1171.45  1174.72  1178.67
eigval :     1183.71  1190.75  1194.29  1215.32  1228.19  1230.83
eigval :     1242.91  1254.30  1258.45  1269.36  1273.91  1285.55
eigval :     1289.93  1320.38  1327.24  1333.74  1343.76  1363.10
eigval :     1400.13  1417.24  1419.52  1423.36  1439.32  1443.25
eigval :     1454.38  1457.44  1471.50  1491.16  1492.94  1495.76
eigval :     1507.48  1523.72  1537.64  1569.67  1576.87  1577.56
eigval :     1579.23  1585.29  1589.44  1599.32  1662.22  1681.67
eigval :     3028.16  3031.02  3033.09  3035.60  3047.34  3055.47
eigval :     3079.50  3083.13  3085.26  3087.18  3088.99  3091.06
eigval :     3093.48  3094.24  3097.26  3098.62  3101.48  3108.21
eigval :     3109.34  3113.02  3113.64

   temp. (K)  partition function   enthalpy   heat capacity  entropy
                                   cal/mol     cal/K/mol   cal/K/mol   J/K/mol
 298.15  VIB  0.375E+10            14254.757     94.871     85.219
         ROT  0.215E+08              888.752      2.981     36.534
         INT  0.806E+17            15143.509     97.852    121.753
         TR   0.819E+28             1481.254      4.968     43.944
         TOT                       16624.7630   102.8199   165.6966   693.2744

       T/K    H(0)-H(T)+PV         H(T)/Eh          T*S/Eh         G(T)/Eh
   ------------------------------------------------------------------------
    298.15    0.264932E-01    0.435913E+00    0.787278E-01    0.357185E+00
   ------------------------------------------------------------------------

         :::::::::::::::::::::::::::::::::::::::::::::::::::::
         ::                  THERMODYNAMIC                  ::
         :::::::::::::::::::::::::::::::::::::::::::::::::::::
         :: total free energy         -83.529269923253 Eh   ::
         ::.................................................::
         :: total energy              -83.886454883634 Eh   ::
         :: zero point energy           0.409419500427 Eh   ::
         :: G(RRHO) w/o ZPVE           -0.052234540046 Eh   ::
         :: G(RRHO) contrib.            0.357184960381 Eh   ::
         :::::::::::::::::::::::::::::::::::::::::::::::::::::

           -------------------------------------------------
          | TOTAL ENERGY              -83.886454883634 Eh   |
          | TOTAL ENTHALPY            -83.450542137055 Eh   |
          | TOTAL FREE ENERGY         -83.529269923253 Eh   |
          | GRADIENT NORM               0.000069300206 Eh/α |
          | HOMO-LUMO GAP               1.457248500588 eV   |
           -------------------------------------------------

 * finished run on 2025/08/25 at 18:07:51.655
