   * xtb version 6.7.1 (edcfbbe) compiled by 'albert@albert-system' on 2024-07-22

   ID    Z sym.   atoms
    1    6 C      1-9, 11-17, 19-25, 27-32
    2    7 N      10
    3    8 O      18, 26
    4    1 H      33-53

          program call               : xtb data2507/gas/DMAC-AQ/DMAC-AQ.xyz --gfn 2 --ohess vtight --parallel 40 --molden --ceasefiles --namespace data2507/gas/DMAC-AQ/DMAC-AQ_gas_S0_preOpt
          :  Hamiltonian                  GFN2-xTB          :
 * total energy  :   -83.8689684 Eh     change       -0.2533142E-08 Eh
 * total energy  :   -83.8799587 Eh     change       -0.1099030E-01 Eh
 * total energy  :   -83.8830985 Eh     change       -0.3139801E-02 Eh
 * total energy  :   -83.8835656 Eh     change       -0.4671824E-03 Eh
 * total energy  :   -83.8837787 Eh     change       -0.2130607E-03 Eh
 * total energy  :   -83.8838014 Eh     change       -0.2272394E-04 Eh
 * total energy  :   -83.8838071 Eh     change       -0.5661279E-05 Eh
 * total energy  :   -83.8838085 Eh     change       -0.1402500E-05 Eh
 * total energy  :   -83.8838094 Eh     change       -0.9443569E-06 Eh
 * total energy  :   -83.8838100 Eh     change       -0.5785681E-06 Eh
 * total energy  :   -83.8838104 Eh     change       -0.3434726E-06 Eh
 * total energy  :   -83.8838106 Eh     change       -0.2051300E-06 Eh
 * total energy  :   -83.8838107 Eh     change       -0.1525576E-06 Eh
 * total energy  :   -83.8838109 Eh     change       -0.1477814E-06 Eh
 * total energy  :   -83.8838110 Eh     change       -0.1749294E-06 Eh
 * total energy  :   -83.8838112 Eh     change       -0.2066922E-06 Eh
 * total energy  :   -83.8838114 Eh     change       -0.1982951E-06 Eh
 * total energy  :   -83.8838116 Eh     change       -0.1390326E-06 Eh
 * total energy  :   -83.8838116 Eh     change       -0.6886390E-07 Eh
   *** GEOMETRY OPTIMIZATION CONVERGED AFTER 19 ITERATIONS ***

 final structure:
================
53
 xtb: 6.7.1 (edcfbbe)
C           -5.15854445101934        0.00005415452712        0.75924718235468
C           -4.03466903159964        0.00004063961218       -0.29297082887596
C           -4.63198634446852        0.00007132809282       -1.71184790932423
C           -3.20458980616627       -1.25758155844201       -0.11654074326379
C           -3.80878510790604       -2.50085436158730       -0.24310177405137
C           -3.10183009178055       -3.67964502598704       -0.09327288350691
C           -1.74941149813987       -3.62689464224168        0.19059823779832
C           -1.12317807143909       -2.40516580433882        0.32165894942161
C           -1.83717828805880       -1.21350695131782        0.17138959029474
N           -1.18087236370894       -0.00003138351291        0.31207271264799
C            0.20613964418820       -0.00006797133172        0.61109637064158
C            0.63346292483126       -0.00030907976143        1.93688017937519
C            1.98412433436190       -0.00034671511750        2.22367784386930
C            2.93072515527623       -0.00016236097243        1.20107134081257
C            2.50229037681479        0.00006730853369       -0.13232507167428
C            1.14054089672087        0.00012553623990       -0.41521350679392
C            3.45917958109141        0.00023627242617       -1.26351915932344
O            3.08451440233384        0.00043653816615       -2.42002823336601
C            4.89272443085050        0.00014200637045       -0.90129236096372
C            5.83929286235880        0.00026252375732       -1.92296629282128
C            7.19110178004705        0.00018536365912       -1.63190771619173
C            7.61501986976800       -0.00000968067152       -0.31099986068861
C            6.68504757115854       -0.00013441563259        0.71243302932695
C            5.32081494041824       -0.00006243691617        0.43261233865147
C            4.36563937937895       -0.00021012077145        1.56193457652110
O            4.73637228176175       -0.00038053151341        2.72044749211799
C           -1.83712234120418        1.21347729077624        0.17141521502258
C           -1.12307898849282        2.40509999367856        0.32176637331717
C           -1.74925968612390        3.62686068401787        0.19075016323711
C           -3.10167122616261        3.67967922615454       -0.09314165788737
C           -3.80867530310045        2.50092431169235       -0.24302197615516
C           -3.20453257342487        1.25762088198228       -0.11651090153776
H           -4.72924972783825        0.00003870114001        1.75950222487718
H           -5.78694498711042       -0.88016789469013        0.65612498760702
H           -5.78691520523043        0.88029908299227        0.65613892272092
H           -5.24770815301785       -0.88028564276315       -1.87384030426191
H           -5.24767162604043        0.88045870612192       -1.87381427541792
H           -3.83196082874289        0.00006573704708       -2.44975051436788
H           -4.86357014449265       -2.55789667221988       -0.46555571332190
H           -3.60371702125234       -4.62929909042727       -0.19820947192695
H           -1.17813885759436       -4.53522053878479        0.31055859068590
H           -0.06682238451140       -2.37112048192847        0.54224288890533
H           -0.09998274757836       -0.00046363057195        2.72933504937648
H            2.33621040835112       -0.00051509536460        3.24461902530654
H            0.82167175261645        0.00030809376765       -1.44738248412947
H            5.48705174412391        0.00041257016521       -2.94392909797242
H            7.91505193173037        0.00027783759571       -2.43295390335613
H            8.66990606486158       -0.00006639901856       -0.08079599617842
H            6.99285047661951       -0.00028607333820        1.74766773378120
H           -0.06673398993705        2.37100009282708        0.54239272430641
H           -1.17795494318257        4.53515752494242        0.31077772188850
H           -3.60351937385078        4.62935816020104       -0.19803915776391
H           -4.86345664648770        2.55801999273565       -0.46547966974360

          :  Hamiltonian                  GFN2-xTB          :
         :: gradient norm              0.000019579888 Eh/a0 ::
         :: HOMO-LUMO gap              0.459775805302 eV    ::
         :: SCC energy               -85.320733917028 Eh    ::
         :: -> dispersion             -0.071299404595 Eh    ::
         :: repulsion energy           1.436922267029 Eh    ::

    * Orbital Energies and Occupations

         #    Occupation            Energy/Eh            Energy/eV
      -------------------------------------------------------------
         1        2.0000           -0.7191044             -19.5678
       ...           ...                  ...                  ...
        65        2.0000           -0.4389803             -11.9453
        66        2.0000           -0.4357573             -11.8576
        67        2.0000           -0.4325383             -11.7700
        68        2.0000           -0.4324532             -11.7676
        69        2.0000           -0.4257736             -11.5859
        70        2.0000           -0.4161639             -11.3244
        71        2.0000           -0.4100548             -11.1582
        72        2.0000           -0.4089208             -11.1273
        73        2.0000           -0.4042160             -10.9993
        74        2.0000           -0.3986421             -10.8476
        75        2.0000           -0.3982715             -10.8375
        76        2.0000           -0.3933442             -10.7034
        77        1.9997           -0.3484316              -9.4813 (HOMO)
        78        0.0003           -0.3315351              -9.0215 (LUMO)
        79                         -0.2857793              -7.7765
        80                         -0.2562010              -6.9716
        81                         -0.2515288              -6.8444
        82                         -0.2247232              -6.1150
        83                         -0.2197413              -5.9795
        84                         -0.2188390              -5.9549
        85                         -0.1993751              -5.4253
        86                         -0.1952681              -5.3135
        87                         -0.1909425              -5.1958
        88                         -0.1248866              -3.3983
       ...                                ...                  ...
       149                          0.7246304              19.7182
      -------------------------------------------------------------
                  HL-Gap            0.0168965 Eh            0.4598 eV

     #   Z          covCN         q      C6AA      α(0)
     1   6 C        3.761    -0.103    22.521     6.765
     2   6 C        3.909     0.022    20.155     6.381
     3   6 C        3.761    -0.103    22.523     6.765
     4   6 C        2.979    -0.013    28.332     8.731
     5   6 C        2.928    -0.035    28.882     8.813
     6   6 C        2.917    -0.044    29.092     8.845
     7   6 C        2.920    -0.032    28.800     8.800
     8   6 C        2.924    -0.059    29.455     8.900
     9   6 C        2.929     0.058    26.694     8.473
    10   7 N        2.755    -0.073    22.652     7.069
    11   6 C        2.926     0.083    26.144     8.385
    12   6 C        2.919    -0.030    28.754     8.793
    13   6 C        2.923    -0.016    28.408     8.741
    14   6 C        2.974    -0.014    28.368     8.737
    15   6 C        2.974    -0.011    28.297     8.726
    16   6 C        2.926    -0.026    28.642     8.777
    17   6 C        2.830     0.226    23.255     7.902
    18   8 O        0.858    -0.358    20.860     6.124
    19   6 C        2.974    -0.012    28.310     8.728
    20   6 C        2.924    -0.015    28.382     8.737
    21   6 C        2.918    -0.019    28.488     8.753
    22   6 C        2.918    -0.019    28.487     8.752
    23   6 C        2.924    -0.015    28.385     8.737
    24   6 C        2.974    -0.012    28.306     8.727
    25   6 C        2.830     0.225    23.265     7.904
    26   8 O        0.858    -0.361    20.918     6.132
    27   6 C        2.929     0.058    26.694     8.473
    28   6 C        2.924    -0.059    29.455     8.900
    29   6 C        2.920    -0.032    28.800     8.800
    30   6 C        2.917    -0.044    29.092     8.845
    31   6 C        2.928    -0.035    28.882     8.813
    32   6 C        2.979    -0.013    28.332     8.731
    33   1 H        0.925     0.031     2.571     2.507
    34   1 H        0.925     0.040     2.452     2.449
    35   1 H        0.925     0.040     2.452     2.449
    36   1 H        0.925     0.040     2.452     2.449
    37   1 H        0.925     0.040     2.452     2.449
    38   1 H        0.925     0.033     2.547     2.496
    39   1 H        0.926     0.031     2.568     2.506
    40   1 H        0.926     0.028     2.622     2.532
    41   1 H        0.926     0.028     2.611     2.527
    42   1 H        0.926     0.019     2.746     2.591
    43   1 H        0.926     0.057     2.230     2.335
    44   1 H        0.926     0.074     2.043     2.235
    45   1 H        0.926     0.077     2.014     2.220
    46   1 H        0.926     0.069     2.092     2.262
    47   1 H        0.926     0.050     2.322     2.383
    48   1 H        0.926     0.050     2.322     2.383
    49   1 H        0.926     0.069     2.092     2.262
    50   1 H        0.926     0.019     2.746     2.591
    51   1 H        0.926     0.028     2.611     2.527
    52   1 H        0.926     0.028     2.622     2.532
    53   1 H        0.926     0.031     2.568     2.506

molecular dipole:
                 x           y           z       tot (Debye)
 q only:        0.176      -0.000      -0.028
   full:        0.267      -0.000      -0.014       0.680

 projected vibrational frequencies (cm⁻¹)
eigval :       -0.00    -0.00    -0.00     0.00     0.00     0.00
eigval :      -23.74    18.88    19.21    37.99    44.12    89.17
eigval :       97.38    98.48   102.86   128.47   134.84   146.19
eigval :      154.91   189.65   192.08   218.94   229.38   236.25
eigval :      267.80   289.93   310.61   329.89   330.39   344.78
eigval :      364.85   371.42   378.18   383.32   395.44   405.94
eigval :      406.61   418.64   444.25   446.23   482.09   488.34
eigval :      508.03   515.21   547.44   552.09   577.80   590.58
eigval :      605.85   615.17   641.69   646.98   673.74   674.52
eigval :      680.94   684.43   692.75   696.71   723.81   775.32
eigval :      775.88   777.11   789.74   793.97   823.26   841.74
eigval :      864.07   864.58   880.69   893.63   897.65   912.81
eigval :      913.62   918.82   921.08   921.11   929.51   930.96
eigval :      934.68   938.60   951.29   957.39  1008.37  1014.52
eigval :     1077.31  1079.82  1084.99  1088.12  1113.07  1114.92
eigval :     1119.04  1141.13  1154.10  1160.92  1172.39  1174.69
eigval :     1183.17  1187.43  1187.62  1215.07  1218.08  1230.04
eigval :     1244.84  1249.05  1249.68  1269.29  1277.53  1294.54
eigval :     1316.55  1325.57  1326.48  1335.89  1338.06  1345.18
eigval :     1398.77  1402.96  1420.57  1420.97  1436.76  1444.06
eigval :     1456.52  1464.55  1482.00  1489.74  1490.67  1497.00
eigval :     1500.43  1505.32  1553.40  1569.13  1575.11  1576.71
eigval :     1577.36  1591.96  1593.30  1602.54  1680.29  1689.04
eigval :     3027.05  3029.81  3040.05  3042.74  3048.85  3052.74
eigval :     3078.87  3079.01  3083.09  3083.21  3083.92  3090.21
eigval :     3090.42  3091.25  3091.67  3095.55  3096.43  3098.60
eigval :     3099.26  3099.55  3100.28

   temp. (K)  partition function   enthalpy   heat capacity  entropy
                                   cal/mol     cal/K/mol   cal/K/mol   J/K/mol
 298.15  VIB  0.352E+10            14080.088     93.634     84.327
         ROT  0.221E+08              888.752      2.981     36.590
         INT  0.779E+17            14968.840     96.615    120.918
         TR   0.819E+28             1481.254      4.968     43.944
         TOT                       16450.0940   101.5832   164.8612   689.7794

       T/K    H(0)-H(T)+PV         H(T)/Eh          T*S/Eh         G(T)/Eh
   ------------------------------------------------------------------------
    298.15    0.262149E-01    0.434353E+00    0.783309E-01    0.356022E+00
   ------------------------------------------------------------------------

         :::::::::::::::::::::::::::::::::::::::::::::::::::::
         ::                  THERMODYNAMIC                  ::
         :::::::::::::::::::::::::::::::::::::::::::::::::::::
         :: total free energy         -83.527789664710 Eh   ::
         ::.................................................::
         :: total energy              -83.883811650001 Eh   ::
         :: zero point energy           0.408137984886 Eh   ::
         :: G(RRHO) w/o ZPVE           -0.052115999595 Eh   ::
         :: G(RRHO) contrib.            0.356021985291 Eh   ::
         :::::::::::::::::::::::::::::::::::::::::::::::::::::

           -------------------------------------------------
          | TOTAL ENERGY              -83.883811650001 Eh   |
          | TOTAL ENTHALPY            -83.449458771674 Eh   |
          | TOTAL FREE ENERGY         -83.527789664710 Eh   |
          | GRADIENT NORM               0.000019631632 Eh/α |
          | HOMO-LUMO GAP               0.459778452064 eV   |
           -------------------------------------------------

 * finished run on 2025/08/25 at 18:06:28.418
