   * xtb version 6.7.1 (edcfbbe) compiled by 'albert@albert-system' on 2024-07-22

   ID    Z sym.   atoms
    1    6 C      1-9, 11-17, 19-25, 27-32
    2    7 N      10
    3    8 O      18, 26
    4    1 H      33-53

          program call               : xtb data2507/gas/DMAC-AQ/DMAC-AQ_gas_S0_finalOpt.xtbopt.xyz --gfn 2 --spinpol --tblite --uhf 2 --ohess vtight --parallel 40 --molden --ceasefiles --namespace data2507/gas/DMAC-AQ/DMAC-AQ_gas_T1_preOpt
 * total energy  :   -83.8257666 Eh     change        0.4452687E-09 Eh
 * total energy  :   -83.8284533 Eh     change       -0.2686636E-02 Eh
 * total energy  :   -83.8290576 Eh     change       -0.6043203E-03 Eh
 * total energy  :   -83.8290969 Eh     change       -0.3926619E-04 Eh
 * total energy  :   -83.8291137 Eh     change       -0.1680598E-04 Eh
 * total energy  :   -83.8291188 Eh     change       -0.5085082E-05 Eh
 * total energy  :   -83.8291231 Eh     change       -0.4328419E-05 Eh
 * total energy  :   -83.8291270 Eh     change       -0.3950524E-05 Eh
 * total energy  :   -83.8291308 Eh     change       -0.3768972E-05 Eh
 * total energy  :   -83.8291341 Eh     change       -0.3320371E-05 Eh
 * total energy  :   -83.8291395 Eh     change       -0.5273528E-06 Eh
 * total energy  :   -83.8291401 Eh     change       -0.5935150E-06 Eh
 * total energy  :   -83.8291409 Eh     change       -0.8019940E-06 Eh
 * total energy  :   -83.8291418 Eh     change       -0.8830281E-06 Eh
 * total energy  :   -83.8291429 Eh     change       -0.1058119E-05 Eh
 * total energy  :   -83.8291440 Eh     change       -0.1116857E-05 Eh
 * total energy  :   -83.8291449 Eh     change       -0.9715225E-06 Eh
 * total energy  :   -83.8291457 Eh     change       -0.7384909E-06 Eh
 * total energy  :   -83.8291457 Eh     change       -0.1289193E-07 Eh
   *** GEOMETRY OPTIMIZATION CONVERGED AFTER 22 ITERATIONS ***

 final structure:
================
53
 xtb: 6.7.1 (edcfbbe)
C           -5.12607479678690       -0.80356755779854       -1.87026969245093
C           -3.78075537915964       -0.42664672120927       -1.25031984008496
C           -2.77579136625135       -0.18766797009372       -2.39599824357492
C           -3.23826757093183       -1.51067774767523       -0.33617503561130
C           -3.71825413244975       -2.80944667853127       -0.28734154296947
C           -3.17125743799317       -3.73748051871337        0.58362573406639
C           -2.15301601921240       -3.36967694381027        1.44540806417729
C           -1.66247027454678       -2.07841319208165        1.41843632202666
C           -2.17746829551807       -1.16178213105481        0.50833734898409
N           -1.72563509525888        0.17095536845086        0.47814666881812
C           -0.39582596298216        0.52284967656076        0.33433783723048
C           -0.02471793005803        1.87664955201366        0.14000033910938
C            1.28771869671961        2.22515004364784       -0.00464142300073
C            2.31015481376668        1.26057352749360        0.00337292144720
C            1.94993278445126       -0.09112822188742        0.13926811632952
C            0.60341035786150       -0.43998707269008        0.28350411350813
C            2.93112873237041       -1.16321593493897        0.12500677076273
O            2.60960153956542       -2.35702234687158        0.24099754430530
C            4.30871495621406       -0.72798461955696       -0.02697602163635
C            5.31542359565189       -1.70718322320551       -0.04855442794205
C            6.63353240931660       -1.35230274182841       -0.18261009080147
C            6.98946645347122       -0.00588913273897       -0.30186648590367
C            6.02126601848826        0.96609944547174       -0.28576307849947
C            4.66667501885298        0.62405307097011       -0.15044896485883
C            3.68353121199617        1.69706398253235       -0.15248929152118
O            3.99350080832083        2.89223028245697       -0.26766758094057
C           -2.78046088591300        1.09921601321508        0.44365776919320
C           -2.79746054067794        2.20177670481203        1.29150092774240
C           -3.86813230970581        3.07458571779700        1.26327601328137
C           -4.92884548054936        2.83479614480127        0.40736855846548
C           -4.93081518045748        1.71272974341708       -0.40530347256415
C           -3.86544223559554        0.82705201665270       -0.39882310639461
H           -5.01960226297741       -1.69657218230455       -2.48062528136602
H           -5.47387320026899       -0.00724275679289       -2.52333218871895
H           -5.87375209544216       -0.98537185542990       -1.10147894483724
H           -1.79223977218787        0.08358014705037       -2.02235877477020
H           -2.67570981143407       -1.09221778268961       -2.99180470880211
H           -3.13177674171170        0.61594236460797       -3.03720616188626
H           -4.52636373650040       -3.11533431183058       -0.93138341366113
H           -3.55506658357674       -4.74613310836910        0.59854480697425
H           -1.74619878904041       -4.08209053743474        2.14610788098772
H           -0.90013831895690       -1.77052474359782        2.11718652329999
H           -0.78303262594413        2.63964600813904        0.06890378914822
H            1.57634877307709        3.25543908278185       -0.15181135773641
H            0.38232001693458       -1.49438683814474        0.33045564379328
H            5.01088307393972       -2.73913292673632        0.04620098983852
H            7.39820542696437       -2.11499402220794       -0.19523260134333
H            8.02826588130166        0.27005257681720       -0.40750259766790
H            6.26633284107034        2.01396899633867       -0.37813290724471
H           -1.98465841853950        2.35431730538876        1.98543212116727
H           -3.87843853581925        3.93216705408295        1.91834897527840
H           -5.76699926721712        3.51429420138760        0.38125343135928
H           -5.77851507254890        1.53900868531033       -1.04760747372061

 projected vibrational frequencies (cm⁻¹)
eigval :       -0.00    -0.00    -0.00    -0.00    -0.00     0.00
eigval :       16.81    24.57    45.22    50.66    63.97    91.06
eigval :      114.67   119.87   134.42   145.64   153.58   170.45
eigval :      180.23   188.55   202.75   228.15   257.92   270.11
eigval :      283.24   298.85   318.01   336.25   345.82   355.22
eigval :      358.73   362.97   373.78   385.39   400.25   410.94
eigval :      419.09   423.39   449.31   457.27   473.49   483.90
eigval :      498.27   513.06   549.52   560.09   571.04   571.57
eigval :      585.55   596.40   612.45   624.44   629.96   648.42
eigval :      670.22   685.70   692.44   715.74   716.78   724.73
eigval :      775.22   776.74   782.74   795.89   808.20   811.26
eigval :      857.69   873.48   874.99   885.31   890.72   906.95
eigval :      910.86   913.84   916.90   919.23   920.50   930.40
eigval :      936.76   939.46   944.83   967.88  1005.43  1009.57
eigval :     1073.62  1076.01  1076.33  1087.21  1099.15  1105.94
eigval :     1130.01  1136.38  1151.09  1157.83  1168.05  1174.63
eigval :     1181.85  1185.26  1187.87  1189.63  1210.08  1221.76
eigval :     1227.65  1235.02  1248.46  1256.59  1268.50  1271.75
eigval :     1282.63  1311.52  1321.67  1326.19  1363.29  1369.69
eigval :     1384.54  1393.96  1399.44  1415.87  1419.64  1430.85
eigval :     1434.84  1439.83  1449.47  1468.20  1472.81  1490.84
eigval :     1493.47  1499.93  1505.38  1522.17  1540.88  1544.32
eigval :     1552.63  1569.56  1571.74  1577.92  1582.83  1593.10
eigval :     3030.09  3032.78  3034.95  3036.45  3049.20  3054.38
eigval :     3075.69  3083.50  3085.96  3088.87  3089.84  3091.50
eigval :     3091.54  3094.30  3095.38  3101.02  3105.09  3107.31
eigval :     3110.82  3114.66  3115.24

   temp. (K)  partition function   enthalpy   heat capacity  entropy
                                   cal/mol     cal/K/mol   cal/K/mol   J/K/mol
 298.15  VIB  0.301E+10            14358.502     96.232     85.532
         ROT  0.214E+08              888.752      2.981     36.528
         INT  0.646E+17            15247.254     99.212    122.060
         TR   0.819E+28             1481.254      4.968     43.944
         TOT                       16728.5084   104.1806   166.0033   694.5576

       T/K    H(0)-H(T)+PV         H(T)/Eh          T*S/Eh         G(T)/Eh
   ------------------------------------------------------------------------
    298.15    0.266586E-01    0.433207E+00    0.788735E-01    0.354334E+00
   ------------------------------------------------------------------------

         :::::::::::::::::::::::::::::::::::::::::::::::::::::
         ::                  THERMODYNAMIC                  ::
         :::::::::::::::::::::::::::::::::::::::::::::::::::::
         :: total free energy         -83.474811997466 Eh   ::
         ::.................................................::
         :: total energy              -83.829145695233 Eh   ::
         :: zero point energy           0.406548626482 Eh   ::
         :: G(RRHO) w/o ZPVE           -0.052214928716 Eh   ::
         :: G(RRHO) contrib.            0.354333697766 Eh   ::
         :::::::::::::::::::::::::::::::::::::::::::::::::::::

           -------------------------------------------------
          | TOTAL ENERGY              -83.829145695233 Eh   |
          | TOTAL ENTHALPY            -83.395938493798 Eh   |
          | TOTAL FREE ENERGY         -83.474811997466 Eh   |
          | GRADIENT NORM               0.000091228551 Eh/α |
           -------------------------------------------------

 * finished run on 2025/08/25 at 18:07:55.154
