   * xtb version 6.7.1 (edcfbbe) compiled by 'albert@albert-system' on 2024-07-22

   ID    Z sym.   atoms
    1    6 C      1-9, 11-17, 19-25, 27-32
    2    7 N      10
    3    8 O      18, 26
    4    1 H      33-53

          program call               : xtb data2507/gas/DMAC-AQ/DMAC-AQ_gas_T1_crest.xyz --gfn 2 --spinpol --tblite --uhf 2 --ohess vtight --parallel 40 --molden --ceasefiles --namespace data2507/gas/DMAC-AQ/DMAC-AQ_gas_T1_finalOpt
 * total energy  :   -83.8365162 Eh     change       -0.3198537E-08 Eh
 * total energy  :   -83.8365278 Eh     change       -0.1161701E-04 Eh
 * total energy  :   -83.8365321 Eh     change       -0.4300194E-05 Eh
 * total energy  :   -83.8365332 Eh     change       -0.1099320E-05 Eh
 * total energy  :   -83.8365352 Eh     change       -0.1986882E-05 Eh
 * total energy  :   -83.8365384 Eh     change       -0.3229412E-05 Eh
 * total energy  :   -83.8365418 Eh     change       -0.3414489E-05 Eh
 * total energy  :   -83.8365440 Eh     change       -0.2236452E-05 Eh
 * total energy  :   -83.8365455 Eh     change       -0.1512231E-05 Eh
 * total energy  :   -83.8365473 Eh     change       -0.1709022E-05 Eh
 * total energy  :   -83.8365540 Eh     change       -0.1072623E-05 Eh
 * total energy  :   -83.8365550 Eh     change       -0.9977118E-06 Eh
 * total energy  :   -83.8365561 Eh     change       -0.1113750E-05 Eh
 * total energy  :   -83.8365572 Eh     change       -0.1078049E-05 Eh
 * total energy  :   -83.8365580 Eh     change       -0.8532776E-06 Eh
 * total energy  :   -83.8365583 Eh     change       -0.2656605E-06 Eh
 * total energy  :   -83.8365587 Eh     change       -0.4347167E-06 Eh
 * total energy  :   -83.8365592 Eh     change       -0.5000668E-06 Eh
 * total energy  :   -83.8365592 Eh     change       -0.6502859E-08 Eh
   *** GEOMETRY OPTIMIZATION CONVERGED AFTER 22 ITERATIONS ***

 final structure:
================
53
 xtb: 6.7.1 (edcfbbe)
C           -5.71731790676716       -0.00155938576907       -0.58524318532469
C           -4.53923288960515        0.06126282561444        0.40541054884112
C           -5.06293349880279        0.18912850471657        1.84868422762686
C           -3.70100969832912        1.28099078291071        0.08606584918179
C           -4.27750964892689        2.54313938012901        0.12615510130410
C           -3.55535882126365        3.68655962233602       -0.16152954443125
C           -2.21605336703784        3.58165380458458       -0.50352937777316
C           -1.61617296328198        2.34375311982645       -0.54925352204116
C           -2.34385939045576        1.18288984732752       -0.25372204183777
N           -1.71548764576845       -0.04402308431809       -0.31226807394956
C           -0.32206476092378       -0.08882466811972       -0.59915385674635
C            0.12766758645372       -0.25579353094907       -1.92079173261348
C            1.47223522688748       -0.29005397337070       -2.17345673093288
C            2.41089343331464       -0.15867954491683       -1.13582843672134
C            1.95516932486215        0.00470523013318        0.18554251063095
C            0.57681074945890        0.03671133276712        0.43412713472427
C            2.86308139545782        0.14687964300241        1.31431190140585
O            2.45957278336381        0.28858643704798        2.47700636350806
C            4.27571438263740        0.11136895069554        0.96726881035069
C            5.21351033635925        0.24796025239391        2.00279628166184
C            6.55947551360343        0.22267375178600        1.73631436677838
C            7.01167646449036        0.05966033528613        0.42460503333156
C            6.11062149825811       -0.07560050388165       -0.60183926050391
C            4.73041259653965       -0.05185383903456       -0.35064755532597
C            3.82061931726933       -0.19743127794052       -1.47775580090026
O            4.21429929578051       -0.34348754999380       -2.64438041187845
C           -2.38124008299489       -1.22304709833051       -0.04853517784134
C           -1.68785004454860       -2.43827041623093       -0.13145784897357
C           -2.32711764461639       -3.63193631573592        0.11553394413110
C           -3.67172165206860       -3.63706120744075        0.45275755197050
C           -4.35813164442426       -2.43986787789259        0.53865999954566
C           -3.74135282359314       -1.22064626964966        0.29389210145800
H           -6.32188484208912        0.89864840787768       -0.52541459373664
H           -6.35610189153371       -0.85400082510457       -0.37366969369749
H           -5.34215602017182       -0.09681643867629       -1.60237835974207
H           -4.22706936155337        0.23628779640231        2.54383343398759
H           -5.65777945678372        1.09043691268561        1.96520956758470
H           -5.68099295874780       -0.66427925932876        2.11229962328503
H           -5.31901305891152        2.64363061425762        0.39009447238619
H           -4.03431049301385        4.65246355054515       -0.11940341537662
H           -1.63967755819823        4.46449331116122       -0.73293442459525
H           -0.57360372150593        2.26319392079236       -0.81292596468015
H           -0.59428634337972       -0.35331255009797       -2.71705597019101
H            1.85881198236252       -0.41535400663142       -3.17433412882756
H            0.23918569193596        0.16431077032630        1.45224619324885
H            4.83578701349053        0.37249241125641        3.00699520231226
H            7.27044921288195        0.32905402243106        2.54239184024616
H            8.07162893700513        0.04022812630460        0.21825570543404
H            6.43085980197021       -0.20275773096844       -1.62548673379847
H           -0.64056870955876       -2.43434439132132       -0.38879754932116
H           -1.77735632123640       -4.55786055178031        0.04702682816982
H           -4.18189726961205       -4.56712892098822        0.64986797976068
H           -5.40330850467857       -2.46257868682538        0.80620582489708

 projected vibrational frequencies (cm⁻¹)
eigval :       -0.00    -0.00    -0.00     0.00     0.00     0.00
eigval :        9.16    19.97    24.39    50.03    50.97    91.90
eigval :       96.86   103.33   128.03   129.28   147.27   148.83
eigval :      152.96   192.35   201.68   216.95   231.34   241.33
eigval :      274.30   297.35   317.20   326.80   329.16   342.15
eigval :      360.75   375.27   378.82   384.84   404.85   406.60
eigval :      417.12   428.36   443.67   448.77   487.79   503.64
eigval :      505.78   512.97   543.30   548.46   560.14   585.15
eigval :      598.28   602.55   619.01   636.89   640.21   664.93
eigval :      669.51   685.14   687.11   700.93   720.00   722.13
eigval :      774.26   775.87   778.73   796.53   817.02   827.21
eigval :      869.52   869.86   874.00   878.34   881.04   910.18
eigval :      915.10   915.91   916.09   916.54   919.16   923.36
eigval :      923.62   936.36   938.86   958.30   998.59  1013.42
eigval :     1075.61  1077.37  1080.89  1088.30  1106.92  1113.37
eigval :     1120.93  1138.89  1144.30  1151.72  1164.07  1171.83
eigval :     1179.99  1184.23  1184.53  1189.11  1208.27  1217.12
eigval :     1222.67  1241.98  1243.48  1251.27  1259.05  1294.04
eigval :     1303.32  1317.59  1330.68  1335.16  1359.52  1365.91
eigval :     1371.19  1393.12  1401.99  1419.12  1419.85  1422.53
eigval :     1430.99  1439.99  1458.11  1477.61  1481.41  1486.40
eigval :     1487.10  1497.32  1500.81  1515.45  1546.71  1549.30
eigval :     1556.91  1561.97  1571.78  1576.88  1580.26  1591.36
eigval :     3031.01  3033.33  3045.65  3048.37  3053.82  3057.83
eigval :     3075.94  3083.92  3084.69  3087.84  3088.04  3092.01
eigval :     3092.62  3093.75  3093.89  3094.66  3096.01  3102.56
eigval :     3102.88  3110.96  3111.29

   temp. (K)  partition function   enthalpy   heat capacity  entropy
                                   cal/mol     cal/K/mol   cal/K/mol   J/K/mol
 298.15  VIB  0.301E+11            14604.576     95.733     88.586
         ROT  0.219E+08              888.752      2.981     36.570
         INT  0.658E+18            15493.328     98.713    125.157
         TR   0.819E+28             1481.254      4.968     43.944
         TOT                       16974.5824   103.6816   169.1003   707.5158

       T/K    H(0)-H(T)+PV         H(T)/Eh          T*S/Eh         G(T)/Eh
   ------------------------------------------------------------------------
    298.15    0.270507E-01    0.433102E+00    0.803450E-01    0.352757E+00
   ------------------------------------------------------------------------

         :::::::::::::::::::::::::::::::::::::::::::::::::::::
         ::                  THERMODYNAMIC                  ::
         :::::::::::::::::::::::::::::::::::::::::::::::::::::
         :: total free energy         -83.483802571706 Eh   ::
         ::.................................................::
         :: total energy              -83.836559232935 Eh   ::
         :: zero point energy           0.406050973500 Eh   ::
         :: G(RRHO) w/o ZPVE           -0.053294312272 Eh   ::
         :: G(RRHO) contrib.            0.352756661228 Eh   ::
         :::::::::::::::::::::::::::::::::::::::::::::::::::::

           -------------------------------------------------
          | TOTAL ENERGY              -83.836559232935 Eh   |
          | TOTAL ENTHALPY            -83.403457540567 Eh   |
          | TOTAL FREE ENERGY         -83.483802571706 Eh   |
          | GRADIENT NORM               0.000084307117 Eh/α |
           -------------------------------------------------

 * finished run on 2025/08/25 at 18:09:33.772
