   * xtb version 6.7.1 (edcfbbe) compiled by 'albert@albert-system' on 2024-07-22

   ID    Z sym.   atoms
    1    8 O      1, 24
    2    6 C      2-23, 25-30
    3    1 H      31-52

          program call               : xtb data2507/toluene/Z-o-DHMPA/Z-o-DHMPA_toluene_T1_crest.xyz --gfn 2 --uhf 2 --gbsa toluene --ohess vtight --parallel 40 --molden --ceasefiles --namespace data2507/toluene/Z-o-DHMPA/Z-o-DHMPA_toluene_T1_finalOpt
      * Solvation model:               GBSA
        Solvent                        toluene
        Solvent mass                       9.2140E+01 g/mol
          :  Hamiltonian                  GFN2-xTB          :
 * total energy  :   -79.2507555 Eh     change       -0.3554661E-08 Eh
 * total energy  :   -79.2512337 Eh     change       -0.4782347E-03 Eh
 * total energy  :   -79.2514794 Eh     change       -0.2456168E-03 Eh
 * total energy  :   -79.2515344 Eh     change       -0.5500669E-04 Eh
 * total energy  :   -79.2515962 Eh     change       -0.6181778E-04 Eh
 * total energy  :   -79.2516471 Eh     change       -0.5090814E-04 Eh
 * total energy  :   -79.2516761 Eh     change       -0.2899259E-04 Eh
 * total energy  :   -79.2517095 Eh     change       -0.3340454E-04 Eh
 * total energy  :   -79.2517235 Eh     change       -0.1399146E-04 Eh
 * total energy  :   -79.2517444 Eh     change       -0.2094136E-04 Eh
 * total energy  :   -79.2519047 Eh     change       -0.2259555E-05 Eh
 * total energy  :   -79.2519069 Eh     change       -0.2177210E-05 Eh
 * total energy  :   -79.2519089 Eh     change       -0.1986761E-05 Eh
 * total energy  :   -79.2519112 Eh     change       -0.2290892E-05 Eh
 * total energy  :   -79.2519142 Eh     change       -0.3047798E-05 Eh
 * total energy  :   -79.2519172 Eh     change       -0.2972820E-05 Eh
 * total energy  :   -79.2519193 Eh     change       -0.2080000E-05 Eh
 * total energy  :   -79.2519205 Eh     change       -0.1201058E-05 Eh
 * total energy  :   -79.2519205 Eh     change       -0.7245774E-08 Eh
   *** GEOMETRY OPTIMIZATION CONVERGED AFTER 44 ITERATIONS ***

 final structure:
================
52
 xtb: 6.7.1 (edcfbbe)
O           -2.23761564516951        0.38140611199715        2.58123938056760
C           -3.00055722288705       -0.67116760591040        2.02199816845391
C           -3.66593153330488       -0.28547590203667        0.72223456021586
C           -5.04934471186258       -0.23889836685395        0.62710303178826
C           -5.67242193872328        0.15900711274386       -0.54346744015136
C           -4.90796077635769        0.53633513842050       -1.63502038983425
C           -3.52907710251034        0.50479624985233       -1.55203408389477
C           -2.89119406918235        0.08517908202368       -0.38531821815606
C           -1.41825969870129        0.04181806075034       -0.35386749079115
C           -0.67666069228315        1.26093657424112       -0.36403410649816
C           -1.31047555426652        2.50614080695208       -0.33665341671146
C           -0.57728052538919        3.69413178901955       -0.39039772586112
C            0.79608260683315        3.65088698646115       -0.47649918717186
C            1.45675208950855        2.41962088447594       -0.47806584575901
C            0.75040185571063        1.21726498327915       -0.39215728668111
C            1.41802863018690       -0.04182368266820       -0.35343999401270
C            2.89102615142512       -0.08537658512884       -0.38349208236556
C            3.53015033440279       -0.50689219234409       -1.54881605461453
C            4.90913673430820       -0.53931788243187       -1.62995402147013
C            5.67239431306739       -0.16099627406600       -0.53790938905430
C            5.04803058230239        0.23907113124541        0.63123411371041
C            3.66452574819354        0.28664941944323        0.72444467861086
C            2.99756153734962        0.67469313560354        2.02267306468031
O            2.23613535809030       -0.37785819334335        2.58409552259526
C            0.67647088771581       -1.26095125907523       -0.36049600306509
C            1.31036050150127       -2.50606386642557       -0.32998685610066
C            0.57724903619545       -3.69421994180044       -0.38079321835827
C           -0.79610301265013       -3.65124747573282       -0.46715846836430
C           -1.45683171567544       -2.42001181537896       -0.47203089955744
C           -0.75059102116073       -1.21739657868813       -0.38900403187789
H           -1.59281703529990        0.66670802049113        1.91973669085915
H           -3.75502378739977       -0.91267054257122        2.77423887012261
H           -2.36288064634436       -1.55647316270688        1.87401997600849
H           -5.64483897469396       -0.51583900551644        1.48510380427833
H           -6.75052110445261        0.18298963138203       -0.59917152104289
H           -5.38452316370784        0.85496721282241       -2.55048290307748
H           -2.92492262477193        0.79138686138353       -2.40100495757305
H           -2.38722956475249        2.55077764096145       -0.27356877984310
H           -1.09784880371824        4.63978112353211       -0.37027657158540
H            1.37256065369203        4.56191369811888       -0.53572201019911
H            2.53387470838821        2.39580273605218       -0.55022366458255
H            2.92694399588387       -0.79448107965319       -2.39812322191304
H            5.38672083842451       -0.85960798267929       -2.54430874910853
H            6.75055187784733       -0.18590879533257       -0.59208796929106
H            5.64254106611067        0.51696972662240        1.48960682201266
H            2.35836530817123        1.55840715448097        1.87184650893162
H            3.75100631619449        0.91955718657603        2.77484455997957
H            1.59257208548458       -0.66631134717849        1.92277811516711
H            2.38712306146398       -2.55047750977340       -0.26687273384004
H            1.09786539976768       -4.63978663007372       -0.35823522409694
H           -1.37254188746369       -4.56244192132256       -0.52412690182470
H           -2.53392953389014       -2.39650223104137       -0.54461961204962

          :  Hamiltonian                  GFN2-xTB          :
         :: gradient norm              0.000066880101 Eh/a0 ::
         :: HOMO-LUMO gap              1.645493160035 eV    ::
         :: SCC energy               -80.615126294103 Eh    ::
         :: -> dispersion             -0.071809789640 Eh    ::
         :: -> Gsolv                  -0.031366274639 Eh    ::
         :: repulsion energy           1.363205792069 Eh    ::

    * Orbital Energies and Occupations

         #    Occupation            Energy/Eh            Energy/eV
      -------------------------------------------------------------
         1        2.0000           -0.6922386             -18.8368
       ...           ...                  ...                  ...
        62        2.0000           -0.4276731             -11.6376
        63        2.0000           -0.4249495             -11.5635
        64        2.0000           -0.4160959             -11.3225
        65        2.0000           -0.4112556             -11.1908
        66        2.0000           -0.4108190             -11.1790
        67        2.0000           -0.4086163             -11.1190
        68        2.0000           -0.4078581             -11.0984
        69        2.0000           -0.4074115             -11.0862
        70        2.0000           -0.4044010             -11.0043
        71        2.0000           -0.4024931             -10.9524
        72        2.0000           -0.3991262             -10.8608
        73        1.0000           -0.3586181              -9.7585
        74        1.0000           -0.2946136              -8.0168 (HOMO)
        75                         -0.2341428              -6.3714 (LUMO)
        76                         -0.2323417              -6.3223
        77                         -0.2320391              -6.3141
        78                         -0.2309239              -6.2838
        79                         -0.2297098              -6.2507
        80                         -0.2289339              -6.2296
        81                         -0.1874383              -5.1005
        82                         -0.1812483              -4.9320
        83                         -0.1056267              -2.8742
        84                         -0.1047066              -2.8492
        85                         -0.1037345              -2.8228
       ...                                ...                  ...
       142                          0.6983620              19.0034
      -------------------------------------------------------------
                  HL-Gap            0.0604708 Eh            1.6455 eV

     #   Z          covCN         q      C6AA      α(0)
     1   8 O        1.654    -0.466    22.181     6.358
     2   6 C        3.679     0.081    19.447     6.317
     3   6 C        2.968    -0.007    28.193     8.709
     4   6 C        2.922    -0.035    28.879     8.813
     5   6 C        2.918    -0.031    28.764     8.795
     6   6 C        2.918    -0.031    28.775     8.796
     7   6 C        2.925    -0.032    28.791     8.799
     8   6 C        2.977     0.011    27.773     8.645
     9   6 C        2.973    -0.015    28.381     8.738
    10   6 C        2.976     0.002    27.966     8.675
    11   6 C        2.920    -0.039    28.965     8.826
    12   6 C        2.913    -0.030    28.746     8.792
    13   6 C        2.913    -0.031    28.763     8.794
    14   6 C        2.920    -0.038    28.951     8.823
    15   6 C        2.976     0.007    27.869     8.659
    16   6 C        2.973    -0.015    28.380     8.738
    17   6 C        2.977     0.011    27.773     8.645
    18   6 C        2.925    -0.032    28.791     8.799
    19   6 C        2.918    -0.031    28.774     8.796
    20   6 C        2.918    -0.031    28.764     8.795
    21   6 C        2.922    -0.035    28.878     8.813
    22   6 C        2.968    -0.007    28.193     8.709
    23   6 C        3.679     0.081    19.447     6.317
    24   8 O        1.654    -0.466    22.181     6.358
    25   6 C        2.976     0.002    27.967     8.675
    26   6 C        2.920    -0.039    28.966     8.826
    27   6 C        2.913    -0.030    28.746     8.792
    28   6 C        2.913    -0.031    28.763     8.794
    29   6 C        2.920    -0.038    28.951     8.824
    30   6 C        2.976     0.007    27.869     8.659
    31   1 H        0.805     0.297     0.731     1.343
    32   1 H        0.924     0.047     2.356     2.400
    33   1 H        0.923     0.027     2.636     2.539
    34   1 H        0.926     0.037     2.483     2.464
    35   1 H        0.926     0.038     2.475     2.460
    36   1 H        0.926     0.038     2.470     2.458
    37   1 H        0.926     0.036     2.501     2.473
    38   1 H        0.926     0.035     2.521     2.483
    39   1 H        0.926     0.034     2.535     2.490
    40   1 H        0.926     0.033     2.540     2.492
    41   1 H        0.926     0.033     2.550     2.497
    42   1 H        0.926     0.036     2.501     2.473
    43   1 H        0.926     0.038     2.470     2.458
    44   1 H        0.926     0.038     2.475     2.460
    45   1 H        0.926     0.037     2.483     2.464
    46   1 H        0.923     0.027     2.637     2.539
    47   1 H        0.924     0.047     2.356     2.400
    48   1 H        0.805     0.297     0.731     1.343
    49   1 H        0.926     0.035     2.522     2.483
    50   1 H        0.926     0.034     2.535     2.490
    51   1 H        0.926     0.033     2.540     2.492
    52   1 H        0.926     0.033     2.550     2.497

molecular dipole:
                 x           y           z       tot (Debye)
 q only:        0.000      -0.002      -1.345
   full:        0.000      -0.002      -1.684       4.280

 projected vibrational frequencies (cm⁻¹)
eigval :       -0.00    -0.00    -0.00     0.00     0.00     0.00
eigval :       21.06    21.41    23.19    48.93    54.25    58.24
eigval :       68.98    73.73    79.05   117.77   123.24   131.94
eigval :      167.54   172.98   189.19   206.66   224.43   235.46
eigval :      238.51   276.98   302.21   325.92   337.86   345.19
eigval :      360.55   388.97   390.57   392.37   403.43   411.05
eigval :      433.59   449.22   467.75   477.92   485.42   506.02
eigval :      557.24   558.92   577.01   582.14   585.91   587.76
eigval :      609.24   613.20   658.78   666.36   700.17   711.96
eigval :      714.45   717.38   740.47   753.62   773.65   775.44
eigval :      806.79   809.16   831.86   833.02   880.47   881.00
eigval :      882.73   882.87   891.94   902.68   903.39   903.64
eigval :      908.39   916.27   917.75   929.40   929.57   939.88
eigval :      949.67   950.60  1040.74  1042.95  1085.90  1094.24
eigval :     1095.66  1096.30  1097.38  1105.30  1107.07  1130.07
eigval :     1142.72  1148.64  1176.47  1176.69  1177.66  1179.16
eigval :     1183.71  1187.43  1216.96  1218.14  1224.45  1251.97
eigval :     1254.98  1255.01  1269.78  1285.77  1285.87  1289.04
eigval :     1299.70  1305.15  1306.13  1335.53  1339.31  1342.36
eigval :     1366.86  1372.09  1384.99  1403.24  1423.09  1426.07
eigval :     1427.40  1459.05  1461.70  1466.89  1467.76  1473.38
eigval :     1481.38  1512.37  1526.16  1559.20  1562.47  1562.86
eigval :     1587.46  1587.58  2855.99  2856.33  2981.16  2981.33
eigval :     3071.15  3071.17  3073.35  3073.39  3077.47  3077.61
eigval :     3080.53  3080.55  3084.06  3084.19  3090.90  3091.10
eigval :     3091.77  3091.79  3096.37  3098.12  3482.25  3482.67

   temp. (K)  partition function   enthalpy   heat capacity  entropy
                                   cal/mol     cal/K/mol   cal/K/mol   J/K/mol
 298.15  VIB  0.566E+11            14508.076     92.275     89.734
         ROT  0.714E+07              888.752      2.981     34.344
         INT  0.404E+18            15396.828     95.256    124.078
         TR   0.747E+28             1481.254      4.968     43.759
         TOT                       16878.0821   100.2242   167.8366   702.2282

       T/K    H(0)-H(T)+PV         H(T)/Eh          T*S/Eh         G(T)/Eh
   ------------------------------------------------------------------------
    298.15    0.268969E-01    0.430087E+00    0.797446E-01    0.350342E+00
   ------------------------------------------------------------------------

         :::::::::::::::::::::::::::::::::::::::::::::::::::::
         ::                  THERMODYNAMIC                  ::
         :::::::::::::::::::::::::::::::::::::::::::::::::::::
         :: total free energy         -78.901578427101 Eh   ::
         ::.................................................::
         :: total energy              -79.251920498711 Eh   ::
         :: zero point energy           0.403189706359 Eh   ::
         :: G(RRHO) w/o ZPVE           -0.052847634749 Eh   ::
         :: G(RRHO) contrib.            0.350342071610 Eh   ::
         :::::::::::::::::::::::::::::::::::::::::::::::::::::

           -------------------------------------------------
          | TOTAL ENERGY              -79.251920498711 Eh   |
          | TOTAL ENTHALPY            -78.821833856456 Eh   |
          | TOTAL FREE ENERGY         -78.901578427101 Eh   |
          | GRADIENT NORM               0.000066877319 Eh/α |
          | HOMO-LUMO GAP               1.645493214451 eV   |
           -------------------------------------------------

 * finished run on 2025/07/18 at 18:10:38.847
