   * xtb version 6.7.1 (edcfbbe) compiled by 'albert@albert-system' on 2024-07-22

   ID    Z sym.   atoms
    1    8 O      1, 24
    2    6 C      2-23, 25-30
    3    1 H      31-52

          program call               : xtb data2507/toluene/Z-o-DHMPA/Z-o-DHMPA_toluene_S0_crest.xyz --gfn 2 --gbsa toluene --ohess vtight --parallel 40 --molden --ceasefiles --namespace data2507/toluene/Z-o-DHMPA/Z-o-DHMPA_toluene_S0_finalOpt
      * Solvation model:               GBSA
        Solvent                        toluene
        Solvent mass                       9.2140E+01 g/mol
          :  Hamiltonian                  GFN2-xTB          :
 * total energy  :   -79.3222706 Eh     change       -0.6293746E-08 Eh
 * total energy  :   -79.3229011 Eh     change       -0.6305238E-03 Eh
 * total energy  :   -79.3231886 Eh     change       -0.2874537E-03 Eh
 * total energy  :   -79.3232742 Eh     change       -0.8561868E-04 Eh
 * total energy  :   -79.3233860 Eh     change       -0.1117590E-03 Eh
 * total energy  :   -79.3234725 Eh     change       -0.8651760E-04 Eh
 * total energy  :   -79.3235521 Eh     change       -0.7962381E-04 Eh
 * total energy  :   -79.3236144 Eh     change       -0.6231066E-04 Eh
 * total energy  :   -79.3236616 Eh     change       -0.4719852E-04 Eh
 * total energy  :   -79.3237174 Eh     change       -0.5573759E-04 Eh
 * total energy  :   -79.3243055 Eh     change       -0.1232338E-05 Eh
 * total energy  :   -79.3243063 Eh     change       -0.8895840E-06 Eh
 * total energy  :   -79.3243069 Eh     change       -0.5727101E-06 Eh
 * total energy  :   -79.3243074 Eh     change       -0.5063183E-06 Eh
 * total energy  :   -79.3243080 Eh     change       -0.5571060E-06 Eh
 * total energy  :   -79.3243084 Eh     change       -0.4343345E-06 Eh
 * total energy  :   -79.3243087 Eh     change       -0.2599812E-06 Eh
 * total energy  :   -79.3243088 Eh     change       -0.1481229E-06 Eh
 * total energy  :   -79.3243089 Eh     change       -0.9647131E-07 Eh
   *** GEOMETRY OPTIMIZATION CONVERGED AFTER 109 ITERATIONS ***

 final structure:
================
52
 xtb: 6.7.1 (edcfbbe)
O           -2.46989293857643       -1.33353934973008        2.46574584597749
C           -2.83697748264722       -0.00993191863631        2.11560796106959
C           -3.58819141695071        0.05443725993532        0.80733700684656
C           -4.97638069738508        0.07309867215536        0.79360712360676
C           -5.67429201460358        0.10095639360004       -0.40128231492708
C           -4.98530758971070        0.10820956616103       -1.60252521509160
C           -3.60232861406750        0.08476537085557       -1.60286003747248
C           -2.89466254251261        0.05491542435889       -0.40612491956717
C           -1.41099701805509        0.02864003674018       -0.43255729075934
C           -0.69382569114717        1.23203429851611       -0.43205600567225
C           -1.34974396755009        2.49143349163984       -0.41551725617644
C           -0.64226463875605        3.65419060453617       -0.41506610845656
C            0.76772116245618        3.63044548103316       -0.43437063125770
C            1.43553915017068        2.44412384874780       -0.44502386540459
C            0.73577171285069        1.20627946028320       -0.43884425698076
C            1.41120865194698       -0.02152512535554       -0.43204111348547
C            2.89485283381065       -0.04817895049047       -0.40596992579422
C            3.60229073953884       -0.05346755843457       -1.60319747889216
C            4.98526632749360       -0.07686469586073       -1.60363377234408
C            5.67448924912625       -0.09446665062121       -0.40263093804091
C            4.97680728849379       -0.09097223238641        0.79270130670430
C            3.58861898067701       -0.07224406541328        0.80708531966677
C            2.83782081963774       -0.03315108069208        2.11657681519049
O            2.47474982266626        1.28409673705371        2.49408199394945
C            0.69406672287292       -1.22476993871168       -0.45255722686043
C            1.35001692010716       -2.48425877770353       -0.45697178178379
C            0.64260916266459       -3.64688961814445       -0.47666239052557
C           -0.76735155744694       -3.62285996148353       -0.49685395700673
C           -1.43520653150460       -2.43653232003329       -0.48808152159733
C           -0.73552395825190       -1.19889420675622       -0.45997087658228
H           -1.93457295041723       -1.69924675907605        1.74838400094563
H           -1.94120884475060        0.62698077947212        2.07046206267729
H           -3.47089861542729        0.33756046913978        2.93496966666973
H           -5.51142229013067        0.06564341665336        1.73225454847030
H           -6.75417239817532        0.11712964204731       -0.39436568155690
H           -5.52383469476220        0.13115793205376       -2.53854678518625
H           -3.05624553201218        0.08914383290823       -2.53550509600864
H           -2.42973022027875        2.50572883678450       -0.40458341294731
H           -1.15463391448381        4.60488761492267       -0.40331016959238
H            1.31320200804652        4.56260385506574       -0.44062247522798
H            2.51600846120967        2.42563220684537       -0.46895121887123
H            3.05600524475214       -0.03870734246897       -2.53561842832894
H            5.52358963638943       -0.08053128442730       -2.54004583075066
H            6.75436937057516       -0.11095963373558       -0.39626476652796
H            5.51197871276734       -0.10262861190245        1.73122861590352
H            3.47087360259442       -0.39939837562618        2.92841605874999
H            1.94015603980837       -0.66624762810488        2.05847656437576
H            1.93947737109902        1.66582292025803        1.78514223167880
H            2.43000259862099       -2.49866196607396       -0.44579350978397
H            1.15502667995465       -4.59761862844901       -0.48054114244223
H           -1.31282605747190       -4.55476161853763       -0.51952760577548
H           -2.51562985095663       -2.41775969761197       -0.51306934079812

          :  Hamiltonian                  GFN2-xTB          :
         :: gradient norm              0.000026704583 Eh/a0 ::
         :: HOMO-LUMO gap              2.176885181685 eV    ::
         :: SCC energy               -80.705722111558 Eh    ::
         :: -> dispersion             -0.071628735517 Eh    ::
         :: -> Gsolv                  -0.031495649378 Eh    ::
         :: repulsion energy           1.381413193265 Eh    ::

    * Orbital Energies and Occupations

         #    Occupation            Energy/Eh            Energy/eV
      -------------------------------------------------------------
         1        2.0000           -0.6919803             -18.8297
       ...           ...                  ...                  ...
        61        2.0000           -0.4321144             -11.7584
        62        2.0000           -0.4262630             -11.5992
        63        2.0000           -0.4258442             -11.5878
        64        2.0000           -0.4144040             -11.2765
        65        2.0000           -0.4129221             -11.2362
        66        2.0000           -0.4101111             -11.1597
        67        2.0000           -0.4086448             -11.1198
        68        2.0000           -0.4083151             -11.1108
        69        2.0000           -0.4060475             -11.0491
        70        2.0000           -0.4052150             -11.0265
        71        2.0000           -0.4041899             -10.9986
        72        2.0000           -0.4000476             -10.8858
        73        2.0000           -0.3662479              -9.9661 (HOMO)
        74                         -0.2862488              -7.7892 (LUMO)
        75                         -0.2387356              -6.4963
        76                         -0.2319399              -6.3114
        77                         -0.2316481              -6.3035
        78                         -0.2292335              -6.2378
        79                         -0.2287726              -6.2252
        80                         -0.2275216              -6.1912
        81                         -0.1854372              -5.0460
        82                         -0.1798367              -4.8936
        83                         -0.1063445              -2.8938
        84                         -0.1041453              -2.8339
       ...                                ...                  ...
       142                          0.7054906              19.1974
      -------------------------------------------------------------
                  HL-Gap            0.0799991 Eh            2.1769 eV

     #   Z          covCN         q      C6AA      α(0)
     1   8 O        1.654    -0.467    22.186     6.359
     2   6 C        3.679     0.082    19.426     6.313
     3   6 C        2.969    -0.009    28.231     8.715
     4   6 C        2.923    -0.034    28.837     8.806
     5   6 C        2.918    -0.031    28.783     8.798
     6   6 C        2.918    -0.031    28.770     8.796
     7   6 C        2.923    -0.033    28.820     8.804
     8   6 C        2.980     0.009    27.814     8.651
     9   6 C        2.977    -0.006    28.164     8.705
    10   6 C        2.984     0.005    27.907     8.665
    11   6 C        2.917    -0.034    28.856     8.809
    12   6 C        2.914    -0.029    28.735     8.790
    13   6 C        2.914    -0.030    28.739     8.791
    14   6 C        2.916    -0.041    29.027     8.835
    15   6 C        2.983     0.002    27.974     8.676
    16   6 C        2.977    -0.006    28.164     8.705
    17   6 C        2.980     0.009    27.814     8.651
    18   6 C        2.923    -0.033    28.820     8.804
    19   6 C        2.918    -0.031    28.770     8.796
    20   6 C        2.918    -0.031    28.783     8.798
    21   6 C        2.923    -0.034    28.837     8.806
    22   6 C        2.969    -0.009    28.230     8.715
    23   6 C        3.679     0.082    19.427     6.313
    24   8 O        1.654    -0.466    22.183     6.358
    25   6 C        2.984     0.005    27.907     8.666
    26   6 C        2.917    -0.034    28.856     8.809
    27   6 C        2.914    -0.029    28.735     8.790
    28   6 C        2.914    -0.030    28.739     8.791
    29   6 C        2.916    -0.041    29.028     8.835
    30   6 C        2.983     0.002    27.975     8.676
    31   1 H        0.805     0.297     0.731     1.343
    32   1 H        0.923     0.021     2.719     2.579
    33   1 H        0.924     0.046     2.375     2.410
    34   1 H        0.926     0.038     2.479     2.462
    35   1 H        0.926     0.037     2.487     2.466
    36   1 H        0.926     0.037     2.484     2.465
    37   1 H        0.926     0.035     2.519     2.482
    38   1 H        0.926     0.034     2.535     2.490
    39   1 H        0.926     0.034     2.527     2.486
    40   1 H        0.926     0.034     2.524     2.484
    41   1 H        0.926     0.034     2.525     2.485
    42   1 H        0.926     0.035     2.520     2.482
    43   1 H        0.926     0.037     2.484     2.465
    44   1 H        0.926     0.037     2.487     2.466
    45   1 H        0.926     0.038     2.478     2.462
    46   1 H        0.924     0.046     2.374     2.410
    47   1 H        0.923     0.021     2.718     2.578
    48   1 H        0.805     0.297     0.731     1.343
    49   1 H        0.926     0.034     2.535     2.490
    50   1 H        0.926     0.034     2.527     2.486
    51   1 H        0.926     0.034     2.524     2.484
    52   1 H        0.926     0.034     2.524     2.484

molecular dipole:
                 x           y           z       tot (Debye)
 q only:       -0.000       0.013      -1.283
   full:       -0.001       0.017      -1.594       4.052

 projected vibrational frequencies (cm⁻¹)
eigval :       -0.00     0.00     0.00     0.00     0.00     0.00
eigval :       20.82    23.92    26.93    46.96    59.57    65.56
eigval :       68.92    77.46    86.39   107.85   128.10   131.25
eigval :      166.42   177.87   190.39   205.38   213.67   225.22
eigval :      230.77   308.94   315.84   321.01   341.34   367.96
eigval :      386.53   394.63   395.39   399.02   412.26   447.02
eigval :      452.40   456.02   457.74   478.82   488.26   507.69
eigval :      569.66   571.17   585.58   591.10   598.29   598.91
eigval :      614.11   632.49   667.50   691.63   706.92   720.38
eigval :      724.49   739.62   773.79   776.97   777.18   780.22
eigval :      813.73   815.10   877.24   879.04   885.40   885.92
eigval :      897.33   905.83   910.99   917.71   919.64   920.11
eigval :      920.64   929.38   930.19   930.79   930.97   932.85
eigval :      946.45   947.73  1033.46  1035.07  1076.24  1077.05
eigval :     1089.68  1095.07  1095.12  1107.34  1132.66  1140.52
eigval :     1149.32  1159.48  1177.20  1179.43  1179.87  1180.61
eigval :     1196.75  1199.45  1224.01  1227.50  1236.42  1255.35
eigval :     1257.11  1257.35  1261.89  1289.82  1290.87  1312.67
eigval :     1312.85  1323.42  1337.29  1338.30  1346.73  1366.68
eigval :     1382.97  1415.96  1426.80  1431.09  1432.34  1443.85
eigval :     1462.92  1468.75  1470.78  1482.56  1491.49  1523.66
eigval :     1530.63  1541.57  1574.70  1575.21  1596.58  1596.61
eigval :     1605.60  1620.19  2870.78  2871.55  2978.47  2978.75
eigval :     3070.93  3070.97  3072.72  3072.98  3074.44  3074.49
eigval :     3077.61  3077.75  3080.70  3080.76  3085.02  3085.26
eigval :     3090.85  3090.90  3092.62  3093.99  3484.25  3485.08

   temp. (K)  partition function   enthalpy   heat capacity  entropy
                                   cal/mol     cal/K/mol   cal/K/mol   J/K/mol
 298.15  VIB  0.298E+11            14274.308     91.129     88.271
         ROT  0.721E+07              888.752      2.981     34.361
         INT  0.215E+18            15163.061     94.110    122.632
         TR   0.747E+28             1481.254      4.968     43.759
         TOT                       16644.3148    99.0785   166.3905   696.1780

       T/K    H(0)-H(T)+PV         H(T)/Eh          T*S/Eh         G(T)/Eh
   ------------------------------------------------------------------------
    298.15    0.265244E-01    0.432902E+00    0.790575E-01    0.353844E+00
   ------------------------------------------------------------------------

         :::::::::::::::::::::::::::::::::::::::::::::::::::::
         ::                  THERMODYNAMIC                  ::
         :::::::::::::::::::::::::::::::::::::::::::::::::::::
         :: total free energy         -78.970464459241 Eh   ::
         ::.................................................::
         :: total energy              -79.324308917324 Eh   ::
         :: zero point energy           0.406377571988 Eh   ::
         :: G(RRHO) w/o ZPVE           -0.052533113906 Eh   ::
         :: G(RRHO) contrib.            0.353844458083 Eh   ::
         :::::::::::::::::::::::::::::::::::::::::::::::::::::

           -------------------------------------------------
          | TOTAL ENERGY              -79.324308917324 Eh   |
          | TOTAL ENTHALPY            -78.891406941405 Eh   |
          | TOTAL FREE ENERGY         -78.970464459241 Eh   |
          | GRADIENT NORM               0.000026737924 Eh/α |
          | HOMO-LUMO GAP               2.176885194760 eV   |
           -------------------------------------------------

 * finished run on 2025/07/18 at 18:08:41.482
