   * xtb version 6.7.1 (edcfbbe) compiled by 'albert@albert-system' on 2024-07-22

   ID    Z sym.   atoms
    1    8 O      1, 24
    2    6 C      2-23, 25-30
    3    1 H      31-52

          program call               : xtb data2507/toluene/Z-o-DHMPA/Z-o-DHMPA_toluene_S0_finalOpt.xtbopt.xyz --gfn 2 --uhf 2 --gbsa toluene --ohess vtight --parallel 40 --molden --ceasefiles --namespace data2507/toluene/Z-o-DHMPA/Z-o-DHMPA_toluene_T1_preOpt
      * Solvation model:               GBSA
        Solvent                        toluene
        Solvent mass                       9.2140E+01 g/mol
          :  Hamiltonian                  GFN2-xTB          :
 * total energy  :   -79.2441031 Eh     change       -0.6693028E-08 Eh
 * total energy  :   -79.2503734 Eh     change       -0.6270322E-02 Eh
 * total energy  :   -79.2517014 Eh     change       -0.1328002E-02 Eh
 * total energy  :   -79.2517763 Eh     change       -0.7489080E-04 Eh
 * total energy  :   -79.2518027 Eh     change       -0.2637583E-04 Eh
 * total energy  :   -79.2518064 Eh     change       -0.3781521E-05 Eh
 * total energy  :   -79.2518088 Eh     change       -0.2340407E-05 Eh
 * total energy  :   -79.2518140 Eh     change       -0.5229704E-05 Eh
 * total energy  :   -79.2518205 Eh     change       -0.6469214E-05 Eh
 * total energy  :   -79.2518247 Eh     change       -0.4250732E-05 Eh
 * total energy  :   -79.2524636 Eh     change       -0.1062535E-05 Eh
 * total energy  :   -79.2524649 Eh     change       -0.1266578E-05 Eh
 * total energy  :   -79.2524664 Eh     change       -0.1528843E-05 Eh
 * total energy  :   -79.2524676 Eh     change       -0.1253563E-05 Eh
 * total energy  :   -79.2524686 Eh     change       -0.9711948E-06 Eh
 * total energy  :   -79.2524696 Eh     change       -0.1013183E-05 Eh
 * total energy  :   -79.2524707 Eh     change       -0.1073579E-05 Eh
 * total energy  :   -79.2524716 Eh     change       -0.8524335E-06 Eh
 * total energy  :   -79.2524716 Eh     change       -0.6818595E-08 Eh
   *** GEOMETRY OPTIMIZATION CONVERGED AFTER 94 ITERATIONS ***

 final structure:
================
52
 xtb: 6.7.1 (edcfbbe)
O           -2.78545025242590       -1.97098668524145        2.27848503680930
C           -2.84859780734115       -0.57159800622057        2.07763907907724
C           -3.58595683984891       -0.18984582894345        0.81478715530840
C           -4.97365350898981       -0.15722628503272        0.80924811757793
C           -5.67218439451730        0.19588328605956       -0.33182508591064
C           -4.98028256058902        0.53601317757429       -1.48297800516671
C           -3.59855272208670        0.50771738622587       -1.49112616219567
C           -2.88620092429235        0.13173832542391       -0.35345155949855
C           -1.41400345433964        0.07246800561560       -0.40140293156773
C           -0.65456376531538        1.27670372158468       -0.41021835103293
C           -1.26366910188205        2.53308222610868       -0.37202060299653
C           -0.50722764910953        3.70737376919200       -0.42350870483632
C            0.86414405011133        3.63918709658019       -0.51981660411753
C            1.50191448109213        2.39380896460117       -0.53037435844975
C            0.77103625048716        1.20463296754141       -0.44575371420316
C            1.41439468585469       -0.06577182861396       -0.40245537611326
C            2.88641317359048       -0.12661669561435       -0.35515892242460
C            3.59878146051323       -0.48547556253085       -1.49844579542389
C            4.98042616529176       -0.51611975311350       -1.49010499679780
C            5.67235980955366       -0.19533285905362       -0.33340465458186
C            4.97385904309059        0.14087203655640        0.81277556430331
C            3.58619891900551        0.17537715317631        0.81829856890900
C            2.84916101297202        0.53675095779207        2.08735537752486
O            2.79179242195443        1.93232251834256        2.31461251069511
C            0.65487609523534       -1.26962367318838       -0.43523421397849
C            1.26381279931296       -2.52655742740119       -0.42088838308276
C            0.50722173122435       -3.69960682972012       -0.49471164127982
C           -0.86409917494060       -3.62948958149967       -0.59010397550737
C           -1.50175641452912       -2.38408258801792       -0.57702036142077
C           -0.77070727976501       -1.19680014295946       -0.46966478902270
H           -2.30635127436205       -2.36140283512406        1.53263180413104
H           -1.83524859439757       -0.14482311571934        2.06185848399788
H           -3.37775566108983       -0.18217885481481        2.95199388547357
H           -5.50543233398455       -0.41214591642145        1.71461155977770
H           -6.75181486597291        0.21365235023237       -0.32070511975024
H           -5.51721446025866        0.82066503009958       -2.37597648933867
H           -3.05319232890041        0.76222623046588       -2.38871966886618
H           -2.33913582486112        2.59614357102130       -0.30546994798480
H           -1.00863976492143        4.66317211509596       -0.39646340012489
H            1.45769396080369        4.53918900970023       -0.58070188981638
H            2.57685232885417        2.34930041972161       -0.63414565410220
H            3.05347606857424       -0.72499419334772       -2.40019519353022
H            5.51732318931209       -0.78779295862553       -2.38714447970814
H            6.75195261435715       -0.21515904321447       -0.32204720757474
H            5.50557061096687        0.38077550019050        1.72226745297300
H            3.37589154733981        0.12860844229264        2.95461793326708
H            1.83407498731130        0.11462345753245        2.06275025574646
H            2.31351128415528        2.33865034654231        1.57678124767562
H            2.33922682646711       -2.59111123266378       -0.35503849182899
H            1.00856936431000       -4.65577196611318       -0.48575897905073
H           -1.45774163412196       -4.52807901227187       -0.66826787141504
H           -2.57670362307592       -2.33749430611384       -0.67987766544701

          :  Hamiltonian                  GFN2-xTB          :
         :: gradient norm              0.000053277829 Eh/a0 ::
         :: HOMO-LUMO gap              1.627962808580 eV    ::
         :: SCC energy               -80.615779915287 Eh    ::
         :: -> dispersion             -0.071383084743 Eh    ::
         :: -> Gsolv                  -0.031202093247 Eh    ::
         :: repulsion energy           1.363308351055 Eh    ::

    * Orbital Energies and Occupations

         #    Occupation            Energy/Eh            Energy/eV
      -------------------------------------------------------------
         1        2.0000           -0.6921881             -18.8354
       ...           ...                  ...                  ...
        62        2.0000           -0.4259549             -11.5908
        63        2.0000           -0.4250857             -11.5672
        64        2.0000           -0.4152800             -11.3003
        65        2.0000           -0.4108842             -11.1807
        66        2.0000           -0.4103164             -11.1653
        67        2.0000           -0.4089548             -11.1282
        68        2.0000           -0.4085168             -11.1163
        69        2.0000           -0.4077171             -11.0945
        70        2.0000           -0.4049997             -11.0206
        71        2.0000           -0.4042257             -10.9995
        72        2.0000           -0.4000602             -10.8862
        73        1.0000           -0.3580763              -9.7438
        74        1.0000           -0.2939887              -7.9998 (HOMO)
        75                         -0.2341622              -6.3719 (LUMO)
        76                         -0.2332652              -6.3475
        77                         -0.2323121              -6.3215
        78                         -0.2310902              -6.2883
        79                         -0.2293822              -6.2418
        80                         -0.2291416              -6.2353
        81                         -0.1876421              -5.1060
        82                         -0.1816170              -4.9421
        83                         -0.1063433              -2.8937
        84                         -0.1052727              -2.8646
        85                         -0.1042125              -2.8358
       ...                                ...                  ...
       142                          0.7000709              19.0499
      -------------------------------------------------------------
                  HL-Gap            0.0598265 Eh            1.6280 eV

     #   Z          covCN         q      C6AA      α(0)
     1   8 O        1.654    -0.465    22.145     6.353
     2   6 C        3.679     0.082    19.415     6.312
     3   6 C        2.970    -0.009    28.237     8.716
     4   6 C        2.923    -0.032    28.801     8.801
     5   6 C        2.918    -0.031    28.781     8.797
     6   6 C        2.918    -0.031    28.766     8.795
     7   6 C        2.924    -0.032    28.799     8.801
     8   6 C        2.977     0.009    27.808     8.650
     9   6 C        2.974    -0.010    28.254     8.719
    10   6 C        2.976     0.008    27.839     8.655
    11   6 C        2.920    -0.038    28.944     8.822
    12   6 C        2.913    -0.030    28.752     8.793
    13   6 C        2.912    -0.034    28.840     8.806
    14   6 C        2.919    -0.047    29.163     8.856
    15   6 C        2.977     0.008    27.831     8.654
    16   6 C        2.974    -0.010    28.254     8.719
    17   6 C        2.977     0.009    27.808     8.650
    18   6 C        2.924    -0.032    28.799     8.801
    19   6 C        2.918    -0.031    28.766     8.795
    20   6 C        2.918    -0.031    28.781     8.797
    21   6 C        2.923    -0.032    28.801     8.801
    22   6 C        2.970    -0.009    28.237     8.716
    23   6 C        3.679     0.082    19.416     6.312
    24   8 O        1.654    -0.465    22.144     6.352
    25   6 C        2.976     0.008    27.839     8.655
    26   6 C        2.920    -0.038    28.944     8.822
    27   6 C        2.913    -0.030    28.752     8.793
    28   6 C        2.912    -0.034    28.839     8.806
    29   6 C        2.919    -0.047    29.163     8.856
    30   6 C        2.977     0.008    27.832     8.654
    31   1 H        0.804     0.298     0.728     1.340
    32   1 H        0.923     0.019     2.745     2.591
    33   1 H        0.924     0.047     2.358     2.402
    34   1 H        0.926     0.040     2.445     2.445
    35   1 H        0.926     0.038     2.479     2.462
    36   1 H        0.926     0.039     2.466     2.456
    37   1 H        0.926     0.036     2.500     2.472
    38   1 H        0.926     0.034     2.536     2.490
    39   1 H        0.926     0.034     2.534     2.490
    40   1 H        0.926     0.033     2.542     2.493
    41   1 H        0.926     0.033     2.545     2.495
    42   1 H        0.926     0.036     2.499     2.472
    43   1 H        0.926     0.039     2.466     2.456
    44   1 H        0.926     0.038     2.479     2.462
    45   1 H        0.926     0.040     2.445     2.445
    46   1 H        0.924     0.047     2.358     2.401
    47   1 H        0.923     0.019     2.745     2.591
    48   1 H        0.804     0.298     0.728     1.340
    49   1 H        0.926     0.034     2.535     2.490
    50   1 H        0.926     0.034     2.534     2.489
    51   1 H        0.926     0.033     2.542     2.493
    52   1 H        0.926     0.033     2.545     2.495

molecular dipole:
                 x           y           z       tot (Debye)
 q only:       -0.001       0.011      -1.158
   full:       -0.001       0.014      -1.460       3.710

 projected vibrational frequencies (cm⁻¹)
eigval :       -0.00    -0.00    -0.00     0.00     0.00     0.00
eigval :       12.21    20.44    22.63    46.53    55.17    64.10
eigval :       66.57    76.72    84.34   113.00   126.04   136.24
eigval :      161.34   175.71   188.07   209.15   220.03   222.25
eigval :      227.36   302.85   316.97   323.51   325.11   376.22
eigval :      376.53   391.61   393.56   394.90   413.12   416.41
eigval :      443.03   448.44   470.24   472.18   480.04   501.01
eigval :      568.39   569.87   578.83   582.70   583.00   596.79
eigval :      603.02   613.83   659.85   667.40   698.98   714.58
eigval :      717.23   723.27   742.88   755.63   775.06   778.94
eigval :      813.91   814.29   834.44   836.62   880.78   882.76
eigval :      883.45   888.20   893.40   901.78   902.66   903.17
eigval :      907.63   916.54   922.13   927.95   930.11   937.85
eigval :      940.03   942.57  1035.95  1038.47  1084.57  1089.14
eigval :     1090.38  1093.25  1093.35  1102.32  1104.73  1131.40
eigval :     1147.34  1147.90  1175.68  1175.86  1178.58  1178.73
eigval :     1182.09  1186.61  1216.81  1220.02  1222.72  1247.27
eigval :     1252.37  1253.61  1270.02  1287.83  1290.52  1290.90
eigval :     1304.39  1313.55  1314.84  1332.28  1333.18  1341.64
eigval :     1365.33  1373.08  1386.39  1402.40  1422.76  1427.58
eigval :     1428.74  1460.27  1461.52  1463.67  1467.06  1470.14
eigval :     1482.22  1509.68  1525.38  1559.18  1565.46  1565.95
eigval :     1589.01  1589.11  2872.07  2874.66  2964.88  2965.81
eigval :     3071.76  3071.81  3072.21  3072.26  3075.60  3076.00
eigval :     3078.81  3078.92  3081.58  3081.85  3088.06  3088.20
eigval :     3091.44  3091.62  3096.34  3097.72  3437.28  3438.06

   temp. (K)  partition function   enthalpy   heat capacity  entropy
                                   cal/mol     cal/K/mol   cal/K/mol   J/K/mol
 298.15  VIB  0.874E+11            14456.129     92.074     89.811
         ROT  0.744E+07              888.752      2.981     34.424
         INT  0.650E+18            15344.882     95.055    124.236
         TR   0.747E+28             1481.254      4.968     43.759
         TOT                       16826.1356   100.0230   167.9941   702.8873

       T/K    H(0)-H(T)+PV         H(T)/Eh          T*S/Eh         G(T)/Eh
   ------------------------------------------------------------------------
    298.15    0.268142E-01    0.429991E+00    0.798194E-01    0.350172E+00
   ------------------------------------------------------------------------

         :::::::::::::::::::::::::::::::::::::::::::::::::::::
         ::                  THERMODYNAMIC                  ::
         :::::::::::::::::::::::::::::::::::::::::::::::::::::
         :: total free energy         -78.902299592612 Eh   ::
         ::.................................................::
         :: total energy              -79.252471563915 Eh   ::
         :: zero point energy           0.403177233608 Eh   ::
         :: G(RRHO) w/o ZPVE           -0.053005262305 Eh   ::
         :: G(RRHO) contrib.            0.350171971303 Eh   ::
         :::::::::::::::::::::::::::::::::::::::::::::::::::::

           -------------------------------------------------
          | TOTAL ENERGY              -79.252471563915 Eh   |
          | TOTAL ENTHALPY            -78.822480176379 Eh   |
          | TOTAL FREE ENERGY         -78.902299592612 Eh   |
          | GRADIENT NORM               0.000053291802 Eh/α |
          | HOMO-LUMO GAP               1.627961556850 eV   |
           -------------------------------------------------

 * finished run on 2025/07/18 at 18:08:46.014
