   * xtb version 6.7.1 (edcfbbe) compiled by 'albert@albert-system' on 2024-07-22

   ID    Z sym.   atoms
    1    8 O      1, 21, 67
    2   15 P      2, 66
    3    6 C      3-20, 22-34, 36-65, 68-79
    4    7 N      35
    5    1 H      80-130

          program call               : xtb data2507/gas/9CzFDPEPO/9CzFDPEPO_gas_S0_finalOpt.xtbopt.xyz --gfn 2 --spinpol --tblite --uhf 2 --ohess vtight --parallel 40 --molden --ceasefiles --namespace data2507/gas/9CzFDPEPO/9CzFDPEPO_gas_T1_preOpt
 * total energy  :  -202.5109647 Eh     change       -0.6344294E-09 Eh
 * total energy  :  -202.5129097 Eh     change       -0.1944966E-02 Eh
 * total energy  :  -202.5134962 Eh     change       -0.5865586E-03 Eh
 * total energy  :  -202.5136449 Eh     change       -0.1487123E-03 Eh
 * total energy  :  -202.5141975 Eh     change       -0.5525305E-03 Eh
 * total energy  :  -202.5160647 Eh     change       -0.1867248E-02 Eh
 * total energy  :  -202.4804463 Eh     change        0.3561839E-01 Eh
 * total energy  :  -202.5160049 Eh     change       -0.3555855E-01 Eh
 * total energy  :  -202.5180419 Eh     change       -0.2037076E-02 Eh
 * total energy  :  -202.5188500 Eh     change       -0.8080507E-03 Eh
 * total energy  :  -202.5197003 Eh     change       -0.7999315E-06 Eh
 * total energy  :  -202.5197011 Eh     change       -0.8305273E-06 Eh
 * total energy  :  -202.5197014 Eh     change       -0.3026771E-06 Eh
 * total energy  :  -202.5197020 Eh     change       -0.6151458E-06 Eh
 * total energy  :  -202.5197023 Eh     change       -0.3234607E-06 Eh
 * total energy  :  -202.5197031 Eh     change       -0.7391726E-06 Eh
 * total energy  :  -202.5197042 Eh     change       -0.1175608E-05 Eh
 * total energy  :  -202.5197052 Eh     change       -0.9853803E-06 Eh
 * total energy  :  -202.5197053 Eh     change       -0.4605786E-07 Eh
   *** GEOMETRY OPTIMIZATION CONVERGED AFTER 44 ITERATIONS ***

 final structure:
================
130
 xtb: 6.7.1 (edcfbbe)
O           -8.01480278244825        2.48977130882679       -2.12111703077835
P           -7.22849610338034        1.38546272228438       -1.55583373844891
C           -5.46801858889232        1.47514183741861       -2.01754270896593
C           -4.72464675329414        0.39365040493507       -2.46266177092655
C           -3.38341250042447        0.56572739956812       -2.75776339546542
C           -2.79026305811135        1.81005616876801       -2.62370875832573
C           -3.54237660880675        2.89639498533460       -2.20617134463727
C           -4.88024072757777        2.72829610882778       -1.90124767892181
C           -7.86101130182228       -0.25392283879704       -2.01574382938349
C           -8.75939395797370       -0.28866952937425       -3.07368093770078
C           -9.29414217371797       -1.49492357392933       -3.48770734892117
C           -8.93193404656380       -2.66500556565955       -2.84032628772626
C           -8.04066210951089       -2.62744541488505       -1.77966666520176
C           -7.50268856851512       -1.42437593093642       -1.36046967924373
C           -7.25048948181700        1.44785844519630        0.27483156237207
C           -8.28880703242895        2.16944369201826        0.84779433306849
C           -8.36397840762268        2.33804391279730        2.21770375459801
C           -7.38217805559881        1.79319343108204        3.02953275888412
C           -6.33817669336527        1.07658433861961        2.47345495342486
C           -6.27578601029645        0.89208561343669        1.09803513170192
O           -5.27929525711815        0.11306672124796        0.54652008638637
C           -3.98807943402809        0.53147472084269        0.64317674319441
C           -3.59758850717649        1.84109982585683        0.88276872631175
C           -2.25463624851849        2.16546542981117        0.85098596364843
C           -1.28348913897479        1.20416635251107        0.58111051994011
C            0.14057113677332        1.55528838971682        0.51769778230553
C            1.10454964398289        0.71327113758131        1.06915624494952
C            2.44460670803467        1.03235101083616        0.99713634918467
C            2.86572831798109        2.19286101477947        0.35586457441966
C            4.33358137164222        2.56515179029448        0.33192423349913
C            5.23719224570832        1.36258735124796        0.16153063331945
C            4.88148691092354        0.33429755084166       -0.70657768900390
C            5.71686838492309       -0.74560371283872       -0.90478151659262
C            6.93370756929739       -0.81990523915624       -0.23168699749221
N            7.76846165887801       -1.93212809133454       -0.40690860496693
C            7.38110992625928       -3.25150949656998       -0.29057491082731
C            6.14407393658349       -3.78323931357180        0.04672371306906
C            6.03207385619657       -5.15855576957455        0.12081559477537
C            7.12122965285634       -5.99147034935265       -0.12425912512928
C            8.36059549384102       -5.46732976378672       -0.43730793588742
C            8.49811845003294       -4.08875650282978       -0.51823303134264
C            9.60969146579310       -3.21955522573489       -0.79032160497389
C           10.94393976910871       -3.44317644230337       -1.09968329790811
C           11.76107827231334       -2.35314843395818       -1.32958312202882
C           11.25906920695396       -1.05511700129968       -1.26922048659118
C            9.93448543613568       -0.80696697105188       -0.96354602139368
C            9.11457234095288       -1.89723700037190       -0.70745205619901
C            7.30663094552314        0.21572842490702        0.61935686513475
C            6.46835723255364        1.29810347235600        0.80313198213573
C            4.69417941806495        3.56372723386202       -0.75171418747563
C            4.66159017515161        3.41735941849740       -2.10206783667630
C            5.05727333803116        4.49232252043497       -2.92136704641433
C            5.49762960400842        5.70805308979404       -2.34940039572334
C            5.55130359406755        5.88316549108958       -1.00140735484402
C            5.14672036809614        4.80676388777545       -0.14401053541186
C            5.08541357379339        4.69645993184159        1.22917610474721
C            5.39317589184255        5.62329263944435        2.27979208736283
C            5.23662886090528        5.22988814354641        3.57263054933799
C            4.77516830800484        3.93472008880326        3.90201704589911
C            4.45996547123071        3.00795513041031        2.88946590087631
C            4.61588629612623        3.36661336730746        1.58833909886364
C            1.90593874312352        3.04303489889442       -0.17949954464589
C            0.56324884488591        2.72891332937221       -0.10111710703106
C           -1.68887982893080       -0.11289738997752        0.37745990024609
C           -3.02546100938807       -0.45301447515289        0.42262067814326
P           -3.65745167910436       -2.14847937257578        0.19803336913333
O           -4.32839437510643       -2.41975731915024       -1.07767209433975
C           -4.69849219434418       -2.44320182833172        1.66311036282235
C           -5.81262437814796       -3.24907873076179        1.48440094484789
C           -6.65973255852768       -3.51117515039004        2.54576967533348
C           -6.38715428950964       -2.97196778679137        3.79205436932810
C           -5.27001375115265       -2.17238231816996        3.97480176870212
C           -4.42487889965243       -1.90510531296443        2.91301528558735
C           -2.19293756710411       -3.20517885707180        0.44745520875340
C           -1.41182172482383       -3.16593992540275        1.59587783085167
C           -0.31132699194509       -3.99524396217666        1.70707798690274
C            0.01047470569671       -4.86775547539812        0.67846283394659
C           -0.77141650868911       -4.91418242143224       -0.46349441535939
C           -1.87221415517007       -4.08332485456114       -0.57706170198908
H           -5.18043143893685       -0.57964616473380       -2.55460142272579
H           -2.79962812455473       -0.28072843997564       -3.08790530821813
H           -1.74066905558070        1.93496942982749       -2.84861305486463
H           -3.08449408386240        3.87092592719030       -2.11392524650653
H           -5.48914058730805        3.56226563397071       -1.57788995675311
H           -9.02917678240204        0.64067081568294       -3.55471346441732
H           -9.99133206751385       -1.52432384003063       -4.31251483724469
H           -9.34680560719191       -3.60949796035580       -3.16206817170405
H           -7.76213081510431       -3.54349054963836       -1.27984786675505
H           -6.80092410741560       -1.39480140894289       -0.54227561565727
H           -9.02169220566594        2.60949593424976        0.18703074243683
H           -9.17713562465241        2.89954975066819        2.65213013915519
H           -7.42478236685404        1.92740387688979        4.10007743568642
H           -5.56596445762147        0.64893138872819        3.09599471665500
H           -4.34103428212715        2.60009415384907        1.07850943001626
H           -1.95431594947651        3.18398636469681        1.04621757540933
H            0.79759018328622       -0.19133506522594        1.57423992110146
H            3.17547382910834        0.36712005658365        1.43433567925388
H            3.93568302589455        0.37633969179760       -1.22649640950376
H            5.43807949303598       -1.53214642689864       -1.59018622306903
H            5.29845669664648       -3.14538216138611        0.25525614379209
H            5.07923748530407       -5.59715430141222        0.37813118457800
H            6.99268476088203       -7.06153442744333       -0.05854822133041
H            9.20806817625474       -6.11279893916057       -0.61151446903123
H           11.32987367928692       -4.44934263470320       -1.16265760534625
H           12.80282139347170       -2.50524532906159       -1.56928137975185
H           11.91877550031570       -0.22394851736299       -1.46959386464631
H            9.54941044524022        0.20117149247177       -0.93728017368930
H            8.24538106959818        0.15864035536151        1.14979705608585
H            6.76650933547583        2.09564596555456        1.46749334929514
H            4.32942447511602        2.49541172682974       -2.55700715532053
H            5.02348862179810        4.38893004673910       -3.99402257495860
H            5.79763039003765        6.50774052528790       -3.01156664067380
H            5.89424982882659        6.80795735712147       -0.56395145586497
H            5.73807710204473        6.61405257516584        2.02753802629582
H            5.46376264579107        5.91395647960464        4.37791534738229
H            4.66318183719301        3.65585627680429        4.93750867204830
H            4.10477629325042        2.02373249618616        3.15891654004694
H            2.21584361955461        3.95535241148469       -0.66837708534877
H           -0.16813503269804        3.38878524874857       -0.54423052565785
H           -0.95546254801215       -0.87771869811164        0.16529086874093
H           -6.00115376474588       -3.65434949715932        0.50074817593821
H           -7.53191173604693       -4.13232797332139        2.40352067035328
H           -7.04678909287059       -3.17160316326964        4.62366480404464
H           -5.06127044122125       -1.75225197910437        4.94864587935930
H           -3.56405464759008       -1.26393945257799        3.04934318506390
H           -1.66229063911220       -2.48595417575993        2.39690257505163
H            0.29929119672203       -3.96333671910084        2.59809658453357
H            0.87180138641296       -5.51311841965166        0.77074872828453
H           -0.52235226589329       -5.59598592337867       -1.26343878034755
H           -2.49801265622320       -4.09782144166643       -1.45766386472106

 projected vibrational frequencies (cm⁻¹)
eigval :       -0.00    -0.00    -0.00     0.00     0.00     0.00
eigval :        5.06     5.46     7.67    12.79    13.44    15.29
eigval :       17.86    20.28    24.24    26.84    28.05    33.08
eigval :       34.20    38.37    41.23    44.85    45.32    53.31
eigval :       56.41    60.25    63.91    68.31    73.12    77.97
eigval :       79.00    82.03    90.22    93.94    97.15   104.78
eigval :      107.77   111.96   127.89   142.21   144.90   152.52
eigval :      156.76   161.25   165.24   171.74   177.28   184.03
eigval :      193.16   197.69   202.02   218.94   221.69   227.12
eigval :      233.01   238.37   239.81   250.51   254.81   262.40
eigval :      271.26   277.28   282.14   286.57   288.69   306.39
eigval :      312.86   323.71   350.25   353.40   359.84   362.65
eigval :      363.18   365.47   369.79   371.38   377.61   380.00
eigval :      383.09   386.87   390.45   392.25   407.36   411.27
eigval :      411.74   413.82   420.99   424.50   431.01   434.08
eigval :      439.04   442.39   450.51   454.38   466.40   470.28
eigval :      477.59   488.38   496.53   503.33   513.01   517.59
eigval :      518.65   526.43   530.56   536.90   539.83   551.92
eigval :      564.66   570.68   580.77   585.28   585.64   586.54
eigval :      587.06   591.70   594.47   601.02   608.69   613.19
eigval :      620.06   632.14   652.21   653.45   656.39   656.86
eigval :      660.12   662.03   663.73   672.61   674.17   674.41
eigval :      682.96   686.32   692.15   698.60   699.82   702.09
eigval :      708.09   708.87   713.24   723.26   723.52   733.46
eigval :      738.26   740.30   742.57   747.09   756.59   758.01
eigval :      769.46   779.94   786.62   793.65   794.87   805.63
eigval :      817.35   828.56   835.05   865.83   866.96   871.26
eigval :      872.87   874.20   874.63   875.08   876.81   878.20
eigval :      879.93   881.18   883.86   885.03   887.85   897.18
eigval :      898.41   899.91   901.44   901.62   902.25   903.21
eigval :      903.53   904.87   907.31   912.50   915.31   915.85
eigval :      919.62   920.84   921.74   924.40   926.81   926.91
eigval :      927.17   927.34   930.38   931.82   932.40   932.89
eigval :      933.94   935.15   936.45   940.56   949.12   972.06
eigval :      973.69   975.31   976.77  1006.80  1012.00  1014.00
eigval :     1022.57  1028.87  1045.60  1063.59  1069.77  1073.17
eigval :     1076.68  1077.86  1079.77  1080.88  1082.46  1087.17
eigval :     1088.52  1088.96  1109.95  1115.37  1117.01  1117.60
eigval :     1117.92  1123.22  1126.28  1127.85  1129.35  1129.80
eigval :     1136.60  1142.10  1147.51  1150.10  1153.94  1160.39
eigval :     1161.17  1163.18  1174.31  1175.91  1180.05  1180.48
eigval :     1180.75  1181.45  1181.51  1182.81  1188.97  1190.58
eigval :     1194.37  1195.60  1197.87  1200.13  1208.89  1212.02
eigval :     1224.69  1231.15  1234.42  1235.15  1238.08  1246.13
eigval :     1247.72  1254.59  1255.21  1262.28  1266.87  1268.08
eigval :     1269.78  1273.80  1274.92  1276.13  1280.26  1291.63
eigval :     1297.80  1298.79  1309.73  1316.21  1317.10  1322.34
eigval :     1322.56  1323.52  1323.78  1323.85  1324.39  1326.94
eigval :     1348.56  1348.99  1355.89  1356.76  1366.11  1370.44
eigval :     1393.92  1407.75  1414.28  1417.90  1422.21  1424.01
eigval :     1424.48  1426.35  1426.55  1429.04  1444.99  1452.70
eigval :     1454.11  1454.24  1454.93  1457.08  1470.85  1486.34
eigval :     1487.66  1493.79  1496.20  1498.18  1524.87  1557.16
eigval :     1559.84  1561.84  1567.97  1572.08  1573.35  1581.81
eigval :     1583.26  1583.55  1584.97  1585.11  1585.57  1586.22
eigval :     1586.81  1587.49  1587.83  1589.13  1589.98  1591.45
eigval :     1599.55  1607.70  1620.78  3053.89  3059.30  3069.30
eigval :     3069.81  3070.80  3071.12  3071.73  3072.47  3072.55
eigval :     3075.14  3075.67  3076.01  3076.58  3076.59  3076.81
eigval :     3076.90  3077.37  3078.89  3079.30  3080.51  3081.07
eigval :     3081.19  3081.71  3082.61  3082.82  3083.20  3083.26
eigval :     3083.71  3084.29  3084.86  3086.39  3087.74  3088.47
eigval :     3089.27  3089.32  3089.79  3091.40  3091.71  3091.84
eigval :     3092.60  3093.04  3093.27  3094.18  3095.00  3096.30
eigval :     3097.99  3098.38  3102.12  3103.14  3106.59  3115.71

   temp. (K)  partition function   enthalpy   heat capacity  entropy
                                   cal/mol     cal/K/mol   cal/K/mol   J/K/mol
 298.15  VIB  0.456E+35            40351.211    244.283    257.410
         ROT  0.380E+09              888.752      2.981     42.241
         INT  0.173E+44            41239.964    247.264    299.651
         TR   0.330E+29             1481.254      4.968     46.712
         TOT                       42721.2177   252.2318   346.3624  1449.1804

       T/K    H(0)-H(T)+PV         H(T)/Eh          T*S/Eh         G(T)/Eh
   ------------------------------------------------------------------------
    298.15    0.680806E-01    0.105723E+01    0.164568E+00    0.892660E+00
   ------------------------------------------------------------------------

         :::::::::::::::::::::::::::::::::::::::::::::::::::::
         ::                  THERMODYNAMIC                  ::
         :::::::::::::::::::::::::::::::::::::::::::::::::::::
         :: total free energy        -201.627044822334 Eh   ::
         ::.................................................::
         :: total energy             -202.519705306984 Eh   ::
         :: zero point energy           0.989147854921 Eh   ::
         :: G(RRHO) w/o ZPVE           -0.096487370271 Eh   ::
         :: G(RRHO) contrib.            0.892660484651 Eh   ::
         :::::::::::::::::::::::::::::::::::::::::::::::::::::

           -------------------------------------------------
          | TOTAL ENERGY             -202.519705306984 Eh   |
          | TOTAL ENTHALPY           -201.462476858093 Eh   |
          | TOTAL FREE ENERGY        -201.627044822334 Eh   |
          | GRADIENT NORM               0.000096168314 Eh/α |
           -------------------------------------------------

 * finished run on 2025/09/06 at 21:34:44.898
