   * xtb version 6.7.1 (edcfbbe) compiled by 'albert@albert-system' on 2024-07-22

   ID    Z sym.   atoms
    1    8 O      1, 21, 67
    2   15 P      2, 66
    3    6 C      3-20, 22-34, 36-65, 68-79
    4    7 N      35
    5    1 H      80-130

          program call               : xtb data2507/gas/9CzFDPEPO/9CzFDPEPO.xyz --gfn 2 --ohess vtight --parallel 40 --molden --ceasefiles --namespace data2507/gas/9CzFDPEPO/9CzFDPEPO_gas_S0_preOpt
          :  Hamiltonian                  GFN2-xTB          :
 * total energy  :  -202.5828865 Eh     change       -0.2603286E-08 Eh
 * total energy  :  -202.6059652 Eh     change       -0.2307864E-01 Eh
 * total energy  :  -202.6136292 Eh     change       -0.7664083E-02 Eh
 * total energy  :  -202.6160159 Eh     change       -0.2386612E-02 Eh
 * total energy  :  -202.6182815 Eh     change       -0.2265599E-02 Eh
 * total energy  :  -202.6196305 Eh     change       -0.1349035E-02 Eh
 * total energy  :  -202.6204884 Eh     change       -0.8578602E-03 Eh
 * total energy  :  -202.6210920 Eh     change       -0.6036157E-03 Eh
 * total energy  :  -202.6215370 Eh     change       -0.4449999E-03 Eh
 * total energy  :  -202.6218813 Eh     change       -0.3443155E-03 Eh
 * total energy  :  -202.6248404 Eh     change       -0.5562916E-06 Eh
 * total energy  :  -202.6248409 Eh     change       -0.5462576E-06 Eh
 * total energy  :  -202.6248414 Eh     change       -0.4928992E-06 Eh
 * total energy  :  -202.6248419 Eh     change       -0.4773420E-06 Eh
 * total energy  :  -202.6248423 Eh     change       -0.4369025E-06 Eh
 * total energy  :  -202.6248427 Eh     change       -0.3605878E-06 Eh
 * total energy  :  -202.6248430 Eh     change       -0.2808671E-06 Eh
 * total energy  :  -202.6248431 Eh     change       -0.1846620E-06 Eh
 * total energy  :  -202.6248432 Eh     change       -0.1078132E-07 Eh
   *** GEOMETRY OPTIMIZATION CONVERGED AFTER 113 ITERATIONS ***

 final structure:
================
130
 xtb: 6.7.1 (edcfbbe)
O           -7.74083834834134       -0.10830881076545       -0.93411878743165
P           -7.55476746813112       -0.18128674540828        0.51875275323299
C           -9.14039831373861       -0.26503390768667        1.41295588627531
C          -10.29125853580868       -0.32296013017832        0.64079852350703
C          -11.53419989272515       -0.37499774829336        1.24646241743791
C          -11.62695394828429       -0.36547684751160        2.62818254659484
C          -10.47829725435047       -0.30238155015519        3.40227041356443
C           -9.23553591025697       -0.25055743216923        2.79882022539515
C           -6.70116932368279        1.25931044981828        1.23657454463696
C           -6.69673197413052        2.42251642216565        0.48183191610512
C           -6.05950948338029        3.55594598356557        0.95319325698614
C           -5.43205804615437        3.52861621695109        2.18762599092383
C           -5.44289270512762        2.36988493029992        2.94782289669723
C           -6.07494078409534        1.23396753288379        2.47508306991740
C           -6.60541691243284       -1.61611483301029        1.12423459329127
C           -7.14273869810157       -2.69133496623386        1.80837835273622
C           -6.31723288358651       -3.71265849866309        2.24800398586524
C           -4.95470276696325       -3.65025702972695        2.01046821705256
C           -4.40580068030531       -2.59022018105852        1.31029725024117
C           -5.23833944160193       -1.58028306224699        0.85009682711685
O           -4.82916129224877       -0.53484095796415        0.08205245606895
C           -3.49372586209918       -0.18651897884560        0.09182555118429
C           -2.89491424914270        0.27065799247387        1.25925028843040
C           -1.57664048399252        0.68083801917279        1.25206902109279
C           -0.81927514173153        0.63359331084278        0.08247759252639
C            0.59056003747702        1.04674167753270        0.07766787281051
C            1.01594874556310        2.15587848980048        0.80350422360915
C            2.34477290588874        2.53445264906967        0.80495885403560
C            3.28966658928414        1.80529005367485        0.09502176371516
C            4.74009668377055        2.23805334237041        0.04884027358057
C            5.69688308000607        1.06362299288828        0.05824275779447
C            5.43135231380561       -0.04806435590848        0.85079276558635
C            6.32521378400838       -1.09773895828921        0.92057594967929
C            7.50960639115264       -1.05702340553859        0.19102715312697
N            8.41386488116316       -2.12583534760566        0.25160898739642
C            9.76639186477643       -2.02742265156922        0.50963448658782
C           10.52989755602280       -0.90836007231861        0.80987407619261
C           11.87671190290192       -1.09396459532223        1.05587253038842
C           12.45676839078867       -2.36003720701791        1.01463764947748
C           11.69767551065359       -3.47979048658012        0.74000626886445
C           10.34131706980713       -3.31909310503978        0.48944217215429
C            9.27506728683475       -4.23574987235799        0.19821093243339
C            9.21753323359584       -5.61347486204287        0.03382600934943
C            8.00230680004169       -6.19317288730976       -0.27055669134483
C            6.85664972562131       -5.41570373769517       -0.42545580153607
C            6.88846755483509       -4.04363339617152       -0.26652721559628
C            8.10242841712367       -3.45757668360987        0.06243673063619
C            7.78475556893419        0.05605140120074       -0.59657377735413
C            6.88983917094419        1.10729835187116       -0.65179406642184
C            4.91421924387050        3.15107677615066       -1.15074248926094
C            4.68352024481089        2.87693331962092       -2.48169352934140
C            4.89937342972616        3.88190613255427       -3.41507797653547
C            5.33351098024651        5.13797473706630       -3.01985989606275
C            5.56035891291914        5.42120900404488       -1.68278575604190
C            5.34706841963270        4.42210341371311       -0.74752274574502
C            5.49681233485995        4.42393940159802        0.69860745684202
C            5.90956339026913        5.42079130193557        1.56716916480768
C            5.96112452959225        5.14061120518383        2.92302581394693
C            5.60986844794572        3.88790403379610        3.40241177116900
C            5.19657684919251        2.88476649452722        2.53599613919063
C            5.13658310609428        3.16013788441933        1.18674868509042
C            2.86506747055446        0.70487360501582       -0.64242949311777
C            1.53668805682990        0.33089949071136       -0.65264007384732
C           -1.42875707605705        0.16145661034573       -1.07514337155746
C           -2.75276749053160       -0.24595933268843       -1.08461023794905
P           -3.36068997504324       -0.93197142006537       -2.66977672534520
O           -2.23851432758356       -1.39186719955791       -3.49891692461548
C           -4.34311138040677        0.37990477951917       -3.45074458661135
C           -5.24783972441042        1.16966140223391       -2.75400165687876
C           -5.95856971103024        2.14360878883737       -3.43120166526521
C           -5.76656184660552        2.33310659759854       -4.79072014524512
C           -4.85681574663324        1.54963443761168       -5.48202965910916
C           -4.14366834429681        0.57312273389832       -4.81086134099725
C           -4.48509441637961       -2.28621674105636       -2.20022311009420
C           -5.86599199608605       -2.21736925613884       -2.29129994067314
C           -6.62892540780378       -3.29764812878249       -1.88350069728160
C           -6.01871095241420       -4.44360594908853       -1.40146998611873
C           -4.63682026939347       -4.52039226572282       -1.33491006893693
C           -3.87058214601701       -3.44073062785783       -1.73244612031511
H          -10.19020794989116       -0.32653491705436       -0.43486675957822
H          -12.42923345876550       -0.42227008077544        0.64361950920030
H          -12.59513894364040       -0.40573397530293        3.10542012820317
H          -10.55399987159099       -0.29289514881605        4.48002614341937
H           -8.34099382285782       -0.20084823518263        3.40190800548463
H           -7.19318588642732        2.41466999848560       -0.47774773205112
H           -6.04902929481790        4.45883231009472        0.36031795601699
H           -4.93093685584452        4.41035550952104        2.55919096542889
H           -4.95192596565784        2.35204216791221        3.91069004264135
H           -6.06671248310226        0.32246891306268        3.05828813291202
H           -8.20548013890808       -2.72065676895507        2.00264660877918
H           -6.73557672783326       -4.55156904431461        2.78295929405014
H           -4.30853397703535       -4.43935130002601        2.36451868662891
H           -3.34506676559314       -2.55037358816051        1.11040918944895
H           -3.47468585160010        0.29873462012060        2.17026771638713
H           -1.12215743883962        1.01844180547626        2.17162044536037
H            0.29505541555892        2.74295301485336        1.35364123038527
H            2.65002202548862        3.40561618892245        1.36598194615467
H            4.51294406506400       -0.09579054101608        1.41757836101240
H            6.11689634018293       -1.94893083738663        1.55155501280249
H           10.08620017983720        0.07464715603661        0.86167400545320
H           12.49316509728935       -0.23816098298032        1.28901225291944
H           13.51391522731649       -2.46260158673326        1.20993264634725
H           12.14361193821310       -4.46288772921880        0.72342337148148
H           10.10875152042588       -6.21378996487177        0.13846841778492
H            7.93530684373144       -7.26312934689959       -0.40056697795004
H            5.92300895068474       -5.89584300677222       -0.67930056535889
H            5.99859225742306       -3.44832609350370       -0.40567904272333
H            8.69621202066394        0.08817318028700       -1.17441704586352
H            7.11862095432368        1.96686513170930       -1.26425200157050
H            4.34401326641426        1.90185353826713       -2.79722867290676
H            4.72599177953443        3.68187648464013       -4.46210406818484
H            5.49484681559745        5.90444945260469       -3.76376696974523
H            5.89582703066359        6.40098503697250       -1.37688047910691
H            6.18659090499663        6.39623098897780        1.19597257232578
H            6.28034985094414        5.90574347304353        3.61561019379430
H            5.65901310688568        3.68907997849707        4.46295769139604
H            4.92576820496117        1.91072140716077        2.91571179800458
H            3.58450998494906        0.12692514905691       -1.20418972181499
H            1.22986840928524       -0.53728173060729       -1.21640668841931
H           -0.87873366342377        0.09657569917330       -2.00304589056020
H           -5.40329243876224        1.01180591247303       -1.69858428678029
H           -6.67047920866388        2.75734668620342       -2.89911397169315
H           -6.32748185711208        3.09508412746671       -5.31268421028775
H           -4.70592122661850        1.69980144411795       -6.54124440019275
H           -3.42354314226078       -0.04941207881265       -5.32245271932352
H           -6.34406709142606       -1.32130199289581       -2.65432608656318
H           -7.70569585951196       -3.23839142715094       -1.93897341647514
H           -6.62022884128291       -5.28202086395075       -1.08110565274319
H           -4.16022947374853       -5.41848264115630       -0.96896925498459
H           -2.78973162596885       -3.47840023458377       -1.69552923794388

          :  Hamiltonian                  GFN2-xTB          :
         :: gradient norm              0.000109611072 Eh/a0 ::
         :: HOMO-LUMO gap              2.648594479640 eV    ::
         :: SCC energy              -206.337648790782 Eh    ::
         :: -> dispersion             -0.210221660867 Eh    ::
         :: repulsion energy           3.712805637821 Eh    ::

    * Orbital Energies and Occupations

         #    Occupation            Energy/Eh            Energy/eV
      -------------------------------------------------------------
         1        2.0000           -0.7353173             -20.0090
       ...           ...                  ...                  ...
       176        2.0000           -0.4027740             -10.9600
       177        2.0000           -0.4025877             -10.9550
       178        2.0000           -0.4012709             -10.9191
       179        2.0000           -0.4011470             -10.9158
       180        2.0000           -0.4001501             -10.8886
       181        2.0000           -0.3997262             -10.8771
       182        2.0000           -0.3975925             -10.8190
       183        2.0000           -0.3917326             -10.6596
       184        2.0000           -0.3906686             -10.6306
       185        2.0000           -0.3860551             -10.5051
       186        2.0000           -0.3815614             -10.3828
       187        2.0000           -0.3743547             -10.1867
       188        2.0000           -0.3581763              -9.7465 (HOMO)
       189                         -0.2608421              -7.0979 (LUMO)
       190                         -0.2563990              -6.9770
       191                         -0.2547954              -6.9333
       192                         -0.2489832              -6.7752
       193                         -0.2472311              -6.7275
       194                         -0.2424140              -6.5964
       195                         -0.2403195              -6.5394
       196                         -0.2376683              -6.4673
       197                         -0.2368432              -6.4448
       198                         -0.2353475              -6.4041
       199                         -0.2347674              -6.3883
       ...                                ...                  ...
       377                          1.2382345              33.6941
      -------------------------------------------------------------
                  HL-Gap            0.0973341 Eh            2.6486 eV

     #   Z          covCN         q      C6AA      α(0)
     1   8 O        0.808    -0.355    20.831     6.118
     2  15 P        4.093     0.084   156.548    22.476
     3   6 C        2.920     0.007    27.856     8.655
     4   6 C        3.029    -0.021    28.495     8.756
     5   6 C        2.919    -0.027    28.681     8.782
     6   6 C        2.921    -0.025    28.634     8.775
     7   6 C        2.920    -0.028    28.710     8.787
     8   6 C        2.972    -0.026    28.659     8.781
     9   6 C        2.921     0.016    27.647     8.623
    10   6 C        3.030    -0.020    28.464     8.751
    11   6 C        2.919    -0.026    28.663     8.779
    12   6 C        2.921    -0.026    28.648     8.777
    13   6 C        2.920    -0.028    28.698     8.785
    14   6 C        2.973    -0.023    28.586     8.770
    15   6 C        2.920    -0.012    28.306     8.725
    16   6 C        2.965    -0.025    28.620     8.775
    17   6 C        2.919    -0.039    28.970     8.826
    18   6 C        2.922    -0.026    28.652     8.778
    19   6 C        2.916    -0.058    29.448     8.899
    20   6 C        2.999     0.152    24.700     8.153
    21   8 O        1.720    -0.234    17.867     5.707
    22   6 C        2.915     0.136    25.035     8.205
    23   6 C        2.916    -0.052    29.293     8.875
    24   6 C        2.926    -0.034    28.839     8.807
    25   6 C        2.974     0.009    27.819     8.652
    26   6 C        2.977     0.008    27.836     8.654
    27   6 C        2.924    -0.034    28.853     8.809
    28   6 C        2.922    -0.036    28.889     8.814
    29   6 C        2.980     0.017    27.627     8.622
    30   6 C        3.947     0.008    20.382     6.415
    31   6 C        2.980     0.014    27.688     8.631
    32   6 C        2.924    -0.033    28.833     8.806
    33   6 C        2.922    -0.044    29.090     8.845
    34   6 C        2.913     0.062    26.610     8.459
    35   7 N        2.803    -0.044    22.092     6.981
    36   6 C        3.076     0.047    26.875     8.500
    37   6 C        2.910    -0.051    29.267     8.871
    38   6 C        2.924    -0.034    28.838     8.807
    39   6 C        2.920    -0.041    29.025     8.835
    40   6 C        2.912    -0.033    28.823     8.804
    41   6 C        3.068    -0.017    28.369     8.734
    42   6 C        3.068    -0.017    28.370     8.734
    43   6 C        2.913    -0.033    28.821     8.803
    44   6 C        2.920    -0.041    29.022     8.834
    45   6 C        2.924    -0.034    28.835     8.806
    46   6 C        2.910    -0.051    29.263     8.870
    47   6 C        3.076     0.047    26.875     8.500
    48   6 C        2.922    -0.043    29.080     8.843
    49   6 C        2.923    -0.035    28.866     8.811
    50   6 C        3.057     0.004    27.889     8.660
    51   6 C        2.914    -0.033    28.829     8.805
    52   6 C        2.923    -0.031    28.784     8.798
    53   6 C        2.921    -0.032    28.801     8.801
    54   6 C        2.915    -0.034    28.841     8.806
    55   6 C        3.035     0.001    27.975     8.675
    56   6 C        3.035     0.001    27.962     8.673
    57   6 C        2.915    -0.034    28.842     8.807
    58   6 C        2.921    -0.032    28.809     8.802
    59   6 C        2.922    -0.032    28.807     8.802
    60   6 C        2.914    -0.034    28.841     8.806
    61   6 C        3.058     0.003    27.891     8.661
    62   6 C        2.923    -0.033    28.824     8.804
    63   6 C        2.924    -0.034    28.841     8.807
    64   6 C        3.044    -0.028    28.647     8.779
    65   6 C        2.915    -0.009    28.245     8.715
    66  15 P        4.092     0.081   156.669    22.484
    67   8 O        0.808    -0.368    21.069     6.153
    68   6 C        2.922     0.016    27.664     8.625
    69   6 C        2.974    -0.021    28.529     8.761
    70   6 C        2.921    -0.024    28.592     8.769
    71   6 C        2.920    -0.025    28.630     8.775
    72   6 C        2.919    -0.028    28.707     8.786
    73   6 C        3.037    -0.021    28.485     8.754
    74   6 C        2.922     0.017    27.622     8.619
    75   6 C        2.968    -0.018    28.450     8.749
    76   6 C        2.921    -0.024    28.592     8.769
    77   6 C        2.920    -0.028    28.711     8.787
    78   6 C        2.919    -0.030    28.756     8.794
    79   6 C        3.042    -0.022    28.510     8.758
    80   1 H        0.926     0.063     2.166     2.301
    81   1 H        0.926     0.039     2.462     2.454
    82   1 H        0.926     0.037     2.488     2.466
    83   1 H        0.926     0.035     2.515     2.480
    84   1 H        0.926     0.037     2.485     2.465
    85   1 H        0.926     0.059     2.208     2.323
    86   1 H        0.926     0.038     2.473     2.459
    87   1 H        0.926     0.036     2.496     2.471
    88   1 H        0.926     0.033     2.543     2.494
    89   1 H        0.925     0.030     2.592     2.518
    90   1 H        0.926     0.045     2.386     2.416
    91   1 H        0.926     0.043     2.414     2.430
    92   1 H        0.926     0.044     2.391     2.418
    93   1 H        0.926     0.038     2.479     2.462
    94   1 H        0.926     0.040     2.446     2.446
    95   1 H        0.926     0.045     2.384     2.415
    96   1 H        0.926     0.032     2.563     2.504
    97   1 H        0.926     0.033     2.545     2.495
    98   1 H        0.926     0.035     2.510     2.477
    99   1 H        0.926     0.041     2.438     2.442
   100   1 H        0.926     0.026     2.639     2.540
   101   1 H        0.926     0.028     2.616     2.529
   102   1 H        0.926     0.027     2.628     2.535
   103   1 H        0.926     0.030     2.583     2.513
   104   1 H        0.926     0.030     2.584     2.514
   105   1 H        0.926     0.027     2.625     2.534
   106   1 H        0.926     0.029     2.603     2.523
   107   1 H        0.926     0.027     2.633     2.538
   108   1 H        0.926     0.041     2.429     2.437
   109   1 H        0.926     0.037     2.491     2.468
   110   1 H        0.926     0.032     2.560     2.502
   111   1 H        0.926     0.033     2.546     2.495
   112   1 H        0.926     0.031     2.565     2.505
   113   1 H        0.926     0.032     2.562     2.503
   114   1 H        0.926     0.032     2.558     2.501
   115   1 H        0.926     0.031     2.574     2.509
   116   1 H        0.926     0.031     2.577     2.511
   117   1 H        0.926     0.029     2.601     2.522
   118   1 H        0.926     0.035     2.519     2.482
   119   1 H        0.926     0.042     2.424     2.434
   120   1 H        0.926     0.075     2.034     2.230
   121   1 H        0.926     0.061     2.184     2.311
   122   1 H        0.926     0.036     2.503     2.474
   123   1 H        0.926     0.035     2.520     2.483
   124   1 H        0.926     0.036     2.500     2.473
   125   1 H        0.926     0.061     2.188     2.313
   126   1 H        0.926     0.064     2.150     2.293
   127   1 H        0.926     0.041     2.435     2.440
   128   1 H        0.926     0.031     2.566     2.505
   129   1 H        0.926     0.033     2.550     2.497
   130   1 H        0.925     0.047     2.362     2.403

molecular dipole:
                 x           y           z       tot (Debye)
 q only:       -0.805       0.990       1.976
   full:       -1.064       1.093       2.531       7.511

 projected vibrational frequencies (cm⁻¹)
eigval :       -0.00    -0.00     0.00     0.00     0.00     0.00
eigval :        4.69     6.31     9.73    11.85    13.19    14.36
eigval :       19.22    23.08    25.80    27.09    30.35    31.02
eigval :       33.95    39.80    41.84    46.44    51.97    54.37
eigval :       55.14    59.88    65.13    69.49    71.60    77.01
eigval :       79.87    83.52    87.56    89.92    95.98   104.07
eigval :      118.44   129.16   135.18   141.85   145.58   151.26
eigval :      157.55   162.05   163.74   174.22   182.20   186.75
eigval :      193.49   199.57   203.22   218.13   226.72   228.64
eigval :      233.16   239.88   244.56   254.89   267.25   271.88
eigval :      274.55   278.36   283.19   289.20   291.01   312.09
eigval :      316.66   348.48   353.28   361.30   362.59   363.26
eigval :      366.58   370.91   372.21   376.92   382.81   385.71
eigval :      387.93   391.81   394.90   405.72   411.83   413.37
eigval :      414.49   416.79   424.63   432.06   434.55   439.71
eigval :      445.94   455.51   456.16   471.02   483.04   494.57
eigval :      498.41   503.26   508.03   514.26   517.14   519.34
eigval :      523.00   528.34   534.65   539.36   541.30   560.83
eigval :      578.87   581.09   585.55   585.85   586.64   587.14
eigval :      588.71   595.12   601.03   606.41   615.23   622.96
eigval :      625.45   654.90   656.32   656.72   659.15   660.50
eigval :      663.15   667.00   670.86   673.95   676.11   686.60
eigval :      691.46   695.43   705.76   708.40   712.68   717.04
eigval :      724.07   727.88   729.82   739.15   740.06   740.97
eigval :      748.62   754.33   756.98   761.95   769.53   769.79
eigval :      780.93   781.04   785.04   806.38   820.04   824.99
eigval :      842.83   867.55   870.38   873.73   874.02   875.55
eigval :      876.60   877.08   877.63   878.57   878.92   882.86
eigval :      884.09   889.23   896.98   899.27   901.63   902.12
eigval :      902.40   903.51   904.88   905.11   907.54   909.37
eigval :      909.97   911.85   914.72   919.92   921.69   922.39
eigval :      923.38   924.80   926.95   926.98   927.26   927.46
eigval :      927.94   930.49   931.51   932.63   933.15   934.45
eigval :      935.09   935.39   936.89   956.19   972.33   973.56
eigval :      975.31   976.93  1007.67  1010.77  1012.24  1025.96
eigval :     1045.96  1063.80  1070.21  1073.83  1076.27  1076.74
eigval :     1078.14  1079.52  1080.69  1081.64  1088.07  1088.70
eigval :     1108.42  1110.00  1115.04  1116.54  1117.64  1118.45
eigval :     1123.83  1126.55  1127.73  1130.38  1140.70  1144.12
eigval :     1146.05  1152.85  1159.54  1159.89  1175.45  1176.46
eigval :     1177.29  1177.47  1180.55  1180.85  1181.10  1181.46
eigval :     1181.73  1184.24  1185.38  1189.28  1191.00  1194.48
eigval :     1195.72  1203.29  1205.32  1206.82  1210.87  1228.72
eigval :     1229.71  1237.17  1238.10  1239.98  1243.20  1249.51
eigval :     1250.97  1254.04  1262.69  1263.71  1267.19  1269.86
eigval :     1271.75  1273.78  1276.15  1277.03  1285.84  1301.11
eigval :     1304.98  1306.35  1314.58  1316.00  1321.76  1322.61
eigval :     1323.11  1323.72  1323.78  1327.29  1329.60  1357.59
eigval :     1362.58  1366.27  1369.85  1381.22  1405.44  1409.54
eigval :     1424.22  1424.76  1426.49  1426.79  1428.61  1429.07
eigval :     1431.95  1433.52  1434.03  1443.95  1452.63  1454.40
eigval :     1455.02  1455.77  1457.44  1462.56  1472.70  1476.92
eigval :     1488.86  1494.09  1498.68  1553.19  1566.59  1571.20
eigval :     1576.16  1580.54  1583.51  1583.82  1584.14  1585.64
eigval :     1585.79  1586.33  1587.06  1587.96  1588.33  1589.44
eigval :     1589.55  1589.99  1594.63  1599.45  1599.65  1600.54
eigval :     1604.39  1604.91  1615.61  3052.83  3058.22  3071.00
eigval :     3071.61  3072.37  3073.13  3074.12  3074.12  3075.17
eigval :     3075.51  3075.86  3076.18  3076.60  3077.04  3077.38
eigval :     3077.68  3079.35  3080.25  3080.65  3081.13  3081.60
eigval :     3081.74  3082.15  3082.40  3082.86  3082.99  3083.43
eigval :     3084.52  3085.34  3087.03  3087.56  3087.75  3088.86
eigval :     3089.22  3089.39  3089.51  3089.97  3090.74  3092.05
eigval :     3092.88  3092.99  3093.40  3093.84  3094.24  3094.57
eigval :     3095.85  3096.16  3096.94  3099.37  3107.40  3114.94

   temp. (K)  partition function   enthalpy   heat capacity  entropy
                                   cal/mol     cal/K/mol   cal/K/mol   J/K/mol
 298.15  VIB  0.131E+35            39876.606    241.866    254.256
         ROT  0.434E+09              888.752      2.981     42.503
         INT  0.569E+43            40765.358    244.847    296.759
         TR   0.330E+29             1481.254      4.968     46.712
         TOT                       42246.6122   249.8153   343.4713  1437.0838

       T/K    H(0)-H(T)+PV         H(T)/Eh          T*S/Eh         G(T)/Eh
   ------------------------------------------------------------------------
    298.15    0.673243E-01    0.106168E+01    0.163194E+00    0.898481E+00
   ------------------------------------------------------------------------

         :::::::::::::::::::::::::::::::::::::::::::::::::::::
         ::                  THERMODYNAMIC                  ::
         :::::::::::::::::::::::::::::::::::::::::::::::::::::
         :: total free energy        -201.726361908877 Eh   ::
         ::.................................................::
         :: total energy             -202.624843152957 Eh   ::
         :: zero point energy           0.994351267543 Eh   ::
         :: G(RRHO) w/o ZPVE           -0.095870023463 Eh   ::
         :: G(RRHO) contrib.            0.898481244080 Eh   ::
         :::::::::::::::::::::::::::::::::::::::::::::::::::::

           -------------------------------------------------
          | TOTAL ENERGY             -202.624843152957 Eh   |
          | TOTAL ENTHALPY           -201.563167623502 Eh   |
          | TOTAL FREE ENERGY        -201.726361908877 Eh   |
          | GRADIENT NORM               0.000109515349 Eh/α |
          | HOMO-LUMO GAP               2.648596535330 eV   |
           -------------------------------------------------

 * finished run on 2025/09/06 at 20:59:16.826
