   * xtb version 6.7.1 (edcfbbe) compiled by 'albert@albert-system' on 2024-07-22

   ID    Z sym.   atoms
    1    8 O      1, 21, 67
    2   15 P      2, 66
    3    6 C      3-20, 22-34, 36-65, 68-79
    4    7 N      35
    5    1 H      80-130

          program call               : xtb data2507/gas/9CzFDPEPO/9CzFDPEPO_gas_S0_crest.xyz --gfn 2 --ohess vtight --parallel 40 --molden --ceasefiles --namespace data2507/gas/9CzFDPEPO/9CzFDPEPO_gas_S0_finalOpt
          :  Hamiltonian                  GFN2-xTB          :
 * total energy  :  -202.6260302 Eh     change       -0.3472366E-08 Eh
 * total energy  :  -202.6260319 Eh     change       -0.1707517E-05 Eh
 * total energy  :  -202.6260338 Eh     change       -0.1940302E-05 Eh
 * total energy  :  -202.6260367 Eh     change       -0.2921775E-05 Eh
 * total energy  :  -202.6260388 Eh     change       -0.2092755E-05 Eh
 * total energy  :  -202.6260422 Eh     change       -0.3410838E-05 Eh
 * total energy  :  -202.6260460 Eh     change       -0.3701168E-05 Eh
 * total energy  :  -202.6260483 Eh     change       -0.2355753E-05 Eh
 * total energy  :  -202.6260501 Eh     change       -0.1752503E-05 Eh
 * total energy  :  -202.6260516 Eh     change       -0.1513105E-05 Eh
 * total energy  :  -202.6260884 Eh     change       -0.1037946E-05 Eh
 * total energy  :  -202.6260896 Eh     change       -0.1149699E-05 Eh
 * total energy  :  -202.6260908 Eh     change       -0.1260714E-05 Eh
 * total energy  :  -202.6260922 Eh     change       -0.1347432E-05 Eh
 * total energy  :  -202.6260935 Eh     change       -0.1333393E-05 Eh
 * total energy  :  -202.6260947 Eh     change       -0.1196897E-05 Eh
 * total energy  :  -202.6260958 Eh     change       -0.1049214E-05 Eh
 * total energy  :  -202.6260968 Eh     change       -0.1017075E-05 Eh
 * total energy  :  -202.6260968 Eh     change       -0.9360093E-08 Eh
   *** GEOMETRY OPTIMIZATION CONVERGED AFTER 44 ITERATIONS ***

 final structure:
================
130
 xtb: 6.7.1 (edcfbbe)
O           -7.98728480928795        2.52547549526004       -2.08463796670774
P           -7.20373348588138        1.41134920367614       -1.53517562986144
C           -5.44247430467522        1.50651523896298       -1.99296403926289
C           -4.69716474903926        0.42962405814543       -2.44597916831521
C           -3.35616703960784        0.60612084523129       -2.73954537480572
C           -2.76507774006787        1.85036076343572       -2.59599458744971
C           -3.51901208103302        2.93223336187259       -2.17023499758251
C           -4.85666739672908        2.75968967644869       -1.86698565403704
C           -7.83855762211377       -0.21993998437627       -2.01976973761121
C           -8.74238884213319       -0.23675527414054       -3.07347549885260
C           -9.28158067060331       -1.43554126677023       -3.50314448737757
C           -8.91826340815839       -2.61610868653637       -2.87571777206955
C           -8.02105907015017       -2.59657840363995       -1.81957286838031
C           -7.47879188789885       -1.40106952683034       -1.38462281098771
C           -7.23163589680134        1.44403728556451        0.29640777067892
C           -8.27163307122864        2.15771185052177        0.87632761392017
C           -8.35532213022478        2.30063689163297        2.24866197510394
C           -7.38074394436374        1.73730196968274        3.05652170409993
C           -6.33504255176991        1.02849717131207        2.49363151377453
C           -6.26403471396747        0.87027462660685        1.11543015908580
O           -5.26433420195381        0.09905938632404        0.55750002066459
C           -3.97561855791699        0.52307965613684        0.65623107663604
C           -3.59206635629046        1.83243932163794        0.90816904215289
C           -2.25094098819797        2.16452244804935        0.87640847944874
C           -1.27595633142126        1.21094895923789        0.59568744966570
C            0.14658854604108        1.57103253467535        0.53185293723145
C            1.11534299562622        0.73759462142946        1.08566015028043
C            2.45363950594871        1.06618038590617        1.01367393761110
C            2.86698825120009        2.22705438937060        0.36901115694974
C            4.33512696753331        2.59783572989587        0.33728544587547
C            5.22985301978282        1.38682308370076        0.17040820622367
C            4.86510114509079        0.36670685658824       -0.70231466622540
C            5.68629743476916       -0.72514998356763       -0.89843239472229
C            6.89570328939833       -0.82172838048415       -0.21644711825281
N            7.71687048415269       -1.94346865873205       -0.39184933355318
C            7.31179286060147       -3.25954369873997       -0.29121096135315
C            6.06624940916589       -3.77964709080028        0.03092766474240
C            5.93679173432523       -5.15389405334533        0.09065991738079
C            7.01722873848274       -5.99842311676104       -0.15447583269541
C            8.26409766371097       -5.48664285473818       -0.45266975145714
C            8.41958740366242       -4.10831865496473       -0.51845687799184
C            9.54378265924103       -3.25205614589810       -0.77335433304929
C           10.87805010235765       -3.49163126645001       -1.07452736088979
C           11.71204097070521       -2.41244276300305       -1.28711454859131
C           11.22738643189569       -1.10805590950845       -1.21765588160078
C            9.90424971643174       -0.84414878349932       -0.92015735743259
C            9.06656446982529       -1.92428892482284       -0.68162546276403
C            7.27426581640275        0.20364316754824        0.64382048509327
C            6.45186574021323        1.29947835110323        0.82439337979509
C            4.68887984017670        3.59245810343037       -0.75262852897711
C            4.63421919989308        3.42731938441610       -2.11994749270983
C            5.03056946117762        4.47995664900047       -2.93400135722671
C            5.47761878861238        5.67271493947753       -2.38647204768984
C            5.53907308602479        5.84284004340787       -1.01288086039978
C            5.14332756231172        4.79643148301081       -0.19630964301530
C            5.09606018398070        4.68482378320508        1.25252599107334
C            5.41697205152138        5.59697931332136        2.24420459069867
C            5.26763675604370        5.21778485310726        3.56836616977818
C            4.80385601133079        3.95290728155703        3.89620690969297
C            4.48020902397330        3.03496969994573        2.90608993426294
C            4.63401091799820        3.40438329362942        1.58710209207890
C            1.90239264305104        3.06777352190641       -0.17109174778188
C            0.56130071951547        2.74491882878019       -0.09046405273194
C           -1.67362716749052       -0.10636638249836        0.38108590046197
C           -3.00832040379081       -0.45432939364554        0.42540346928902
P           -3.63305060233582       -2.15050375698571        0.18346717218906
O           -4.30540768679474       -2.40865595762848       -1.09419661134338
C           -4.67045205931585       -2.46619969575577        1.64669347578009
C           -5.78477874232837       -3.26996485625564        1.45975649305395
C           -6.62736259927062       -3.54935184429410        2.52034775759066
C           -6.35024413560741       -3.02951360888202        3.77384136542377
C           -5.23347096207029       -2.23123637379248        3.96444564448730
C           -4.39286675455411       -1.94663630819418        2.90356447901939
C           -2.16183051092057       -3.20122346183862        0.41706046292543
C           -1.37278472876100       -3.16385373034535        1.56017842573565
C           -0.26433154225099       -3.98426724771776        1.65724048576066
C            0.05743455706357       -4.84644392432774        0.61993307289707
C           -0.73296261059521       -4.89196978354789       -0.51618623727627
C           -1.84153886650437       -4.06966965998507       -0.61584152910660
H           -5.15127502055557       -0.54366757276793       -2.54586349969612
H           -2.77104090867800       -0.23676638127993       -3.07633767904829
H           -1.71574785125509        1.97864287447457       -2.82032626804707
H           -3.06289061336551        3.90690172719836       -2.07064008163106
H           -5.46699595153631        3.59030107302005       -1.53790378337918
H           -9.01285094908135        0.70033524733534       -3.53883681423262
H           -9.98324577182482       -1.45092574638627       -4.32450708827197
H           -9.33702981805079       -3.55467364975883       -3.20945734188088
H           -7.74127078817300       -3.52058819069734       -1.33537778170511
H           -6.77281916500810       -1.38571317151977       -0.56969068379498
H           -8.99929306507674        2.61185422225289        0.21933741864144
H           -9.16989602224011        2.85603206847873        2.68823287379836
H           -7.43033917539443        1.85078992384430        4.12914676415027
H           -5.56834554486877        0.58611692736254        3.11270597802015
H           -4.33938201454406        2.58531617354459        1.11249118882591
H           -1.95551317534026        3.18293078856748        1.07973632403834
H            0.81473726192158       -0.16742735509846        1.59363676179144
H            3.18781527013186        0.40675665522054        1.45378440608733
H            3.92383328772393        0.42239939376437       -1.22934193351979
H            5.39993419093095       -1.50419533536912       -1.58911734369024
H            5.22615960241369       -3.13398684247614        0.23891714943187
H            4.97640380351403       -5.58311834907936        0.33635315144595
H            6.87441521607676       -7.06748360929085       -0.10052436809831
H            9.10536614092927       -6.14019425083468       -0.62757235055912
H           11.24943202039725       -4.50296368158789       -1.14412532976559
H           12.75365388846344       -2.57645374109609       -1.52001759553546
H           11.90050875765526       -0.28417293290835       -1.40412607206901
H            9.53421414837275        0.16960981448535       -0.88669502086955
H            8.20726571780366        0.13116579591104        1.18226583904600
H            6.76000338381368        2.08837594875079        1.49441700281771
H            4.28786143738739        2.50136791804170       -2.55420623445246
H            4.99036704359191        4.36718163240143       -4.00738917695016
H            5.78206092801458        6.47758887228010       -3.03938227849844
H            5.88894840423640        6.77203539809483       -0.58846273340540
H            5.77490797786871        6.58383421365437        1.99140604328599
H            5.51300687371257        5.91572110453476        4.35548375155804
H            4.69215636394656        3.67796201604470        4.93475195694725
H            4.11800344621431        2.05180911275535        3.16778758197331
H            2.20296187063970        3.98064557905073       -0.66425407820187
H           -0.17435169805983        3.39897877859001       -0.53502025988171
H           -0.93582931343589       -0.86478229438846        0.16125368167704
H           -5.97724621363394       -3.65997072183131        0.47069252234676
H           -7.49946609076750       -4.16915340775967        2.37201075047721
H           -7.00604431536947       -3.24322277781086        4.60497863241886
H           -5.02134275485312       -1.82588556587662        4.94381777843025
H           -3.53248282476152       -1.30632867813861        3.04637651319929
H           -1.62311416870523       -2.49189378991686        2.36801388261800
H            0.35288950117440       -3.95313315217933        2.54370648926912
H            0.92553198446140       -5.48411740651289        0.70076137575253
H           -0.48410710593836       -5.56601898827228       -1.32268825534920
H           -2.47350835180021       -4.08316471338231       -1.49204220751056

          :  Hamiltonian                  GFN2-xTB          :
         :: gradient norm              0.000063638751 Eh/a0 ::
         :: HOMO-LUMO gap              2.783008527797 eV    ::
         :: SCC energy              -206.339105666250 Eh    ::
         :: -> dispersion             -0.212556871121 Eh    ::
         :: repulsion energy           3.713008867970 Eh    ::

    * Orbital Energies and Occupations

         #    Occupation            Energy/Eh            Energy/eV
      -------------------------------------------------------------
         1        2.0000           -0.7358842             -20.0244
       ...           ...                  ...                  ...
       176        2.0000           -0.4043525             -11.0030
       177        2.0000           -0.4034712             -10.9790
       178        2.0000           -0.4031769             -10.9710
       179        2.0000           -0.4026909             -10.9578
       180        2.0000           -0.4017310             -10.9317
       181        2.0000           -0.4012311             -10.9181
       182        2.0000           -0.3989125             -10.8550
       183        2.0000           -0.3952568             -10.7555
       184        2.0000           -0.3905624             -10.6277
       185        2.0000           -0.3859822             -10.5031
       186        2.0000           -0.3829233             -10.4199
       187        2.0000           -0.3776209             -10.2756
       188        2.0000           -0.3613561              -9.8330 (HOMO)
       189                         -0.2590824              -7.0500 (LUMO)
       190                         -0.2573534              -7.0029
       191                         -0.2564143              -6.9774
       192                         -0.2516982              -6.8491
       193                         -0.2468744              -6.7178
       194                         -0.2455457              -6.6816
       195                         -0.2416503              -6.5756
       196                         -0.2399182              -6.5285
       197                         -0.2377964              -6.4708
       198                         -0.2375265              -6.4634
       199                         -0.2372313              -6.4554
       ...                                ...                  ...
       377                          1.2379319              33.6858
      -------------------------------------------------------------
                  HL-Gap            0.1022737 Eh            2.7830 eV

     #   Z          covCN         q      C6AA      α(0)
     1   8 O        0.808    -0.367    21.047     6.150
     2  15 P        4.085     0.080   156.717    22.488
     3   6 C        2.922     0.017    27.629     8.620
     4   6 C        2.967    -0.019    28.477     8.753
     5   6 C        2.921    -0.024    28.603     8.770
     6   6 C        2.920    -0.028    28.695     8.784
     7   6 C        2.919    -0.030    28.741     8.791
     8   6 C        3.041    -0.022    28.516     8.759
     9   6 C        2.922     0.016    27.660     8.625
    10   6 C        3.039    -0.021    28.482     8.754
    11   6 C        2.919    -0.028    28.704     8.786
    12   6 C        2.920    -0.025    28.627     8.774
    13   6 C        2.921    -0.023    28.588     8.768
    14   6 C        2.972    -0.021    28.529     8.761
    15   6 C        2.916    -0.008    28.207     8.709
    16   6 C        3.033    -0.021    28.496     8.756
    17   6 C        2.918    -0.033    28.822     8.804
    18   6 C        2.921    -0.027    28.678     8.782
    19   6 C        2.918    -0.050    29.248     8.869
    20   6 C        2.915     0.139    24.967     8.194
    21   8 O        1.718    -0.235    17.896     5.712
    22   6 C        2.990     0.149    24.754     8.161
    23   6 C        2.914    -0.060    29.481     8.903
    24   6 C        2.927    -0.032    28.790     8.799
    25   6 C        2.976     0.003    27.959     8.673
    26   6 C        2.977     0.008    27.830     8.653
    27   6 C        2.924    -0.035    28.869     8.811
    28   6 C        2.922    -0.034    28.853     8.809
    29   6 C        2.980     0.016    27.642     8.624
    30   6 C        3.947     0.008    20.382     6.415
    31   6 C        2.979     0.014    27.693     8.632
    32   6 C        2.924    -0.033    28.829     8.805
    33   6 C        2.922    -0.044    29.095     8.845
    34   6 C        2.913     0.062    26.614     8.460
    35   7 N        2.803    -0.044    22.091     6.981
    36   6 C        3.076     0.047    26.875     8.500
    37   6 C        2.910    -0.051    29.269     8.871
    38   6 C        2.924    -0.034    28.839     8.807
    39   6 C        2.920    -0.041    29.025     8.835
    40   6 C        2.913    -0.033    28.817     8.803
    41   6 C        3.068    -0.017    28.362     8.733
    42   6 C        3.068    -0.017    28.369     8.734
    43   6 C        2.912    -0.033    28.818     8.803
    44   6 C        2.920    -0.041    29.017     8.834
    45   6 C        2.924    -0.033    28.830     8.805
    46   6 C        2.910    -0.051    29.262     8.870
    47   6 C        3.076     0.047    26.873     8.499
    48   6 C        2.922    -0.044    29.090     8.845
    49   6 C        2.923    -0.035    28.872     8.812
    50   6 C        3.057     0.003    27.894     8.661
    51   6 C        2.914    -0.033    28.834     8.805
    52   6 C        2.922    -0.032    28.790     8.799
    53   6 C        2.921    -0.032    28.798     8.800
    54   6 C        2.915    -0.034    28.836     8.806
    55   6 C        3.035     0.001    27.969     8.675
    56   6 C        3.035     0.001    27.963     8.674
    57   6 C        2.915    -0.034    28.838     8.806
    58   6 C        2.921    -0.032    28.803     8.801
    59   6 C        2.922    -0.032    28.802     8.801
    60   6 C        2.914    -0.034    28.838     8.806
    61   6 C        3.058     0.003    27.892     8.661
    62   6 C        2.922    -0.035    28.873     8.812
    63   6 C        2.924    -0.034    28.845     8.808
    64   6 C        2.976    -0.031    28.766     8.798
    65   6 C        2.918    -0.013    28.346     8.731
    66  15 P        4.087     0.088   156.393    22.465
    67   8 O        0.808    -0.357    20.852     6.121
    68   6 C        2.921     0.016    27.654     8.624
    69   6 C        3.031    -0.019    28.462     8.751
    70   6 C        2.919    -0.026    28.662     8.779
    71   6 C        2.921    -0.026    28.645     8.777
    72   6 C        2.920    -0.028    28.699     8.785
    73   6 C        2.973    -0.023    28.584     8.770
    74   6 C        2.920     0.007    27.866     8.657
    75   6 C        2.972    -0.026    28.650     8.780
    76   6 C        2.920    -0.028    28.712     8.787
    77   6 C        2.921    -0.025    28.628     8.774
    78   6 C        2.919    -0.027    28.677     8.782
    79   6 C        3.028    -0.021    28.494     8.756
    80   1 H        0.926     0.066     2.134     2.284
    81   1 H        0.926     0.040     2.444     2.445
    82   1 H        0.926     0.031     2.572     2.508
    83   1 H        0.926     0.032     2.562     2.503
    84   1 H        0.925     0.049     2.338     2.391
    85   1 H        0.926     0.061     2.184     2.311
    86   1 H        0.926     0.036     2.497     2.471
    87   1 H        0.926     0.035     2.517     2.481
    88   1 H        0.926     0.036     2.497     2.471
    89   1 H        0.926     0.061     2.188     2.313
    90   1 H        0.926     0.075     2.031     2.228
    91   1 H        0.926     0.048     2.347     2.396
    92   1 H        0.926     0.045     2.384     2.415
    93   1 H        0.926     0.042     2.429     2.437
    94   1 H        0.926     0.037     2.489     2.467
    95   1 H        0.926     0.045     2.382     2.413
    96   1 H        0.926     0.031     2.579     2.511
    97   1 H        0.926     0.031     2.566     2.505
    98   1 H        0.926     0.036     2.503     2.474
    99   1 H        0.926     0.041     2.434     2.440
   100   1 H        0.926     0.025     2.655     2.548
   101   1 H        0.926     0.026     2.637     2.539
   102   1 H        0.926     0.027     2.625     2.534
   103   1 H        0.926     0.031     2.576     2.510
   104   1 H        0.926     0.031     2.577     2.510
   105   1 H        0.926     0.028     2.618     2.530
   106   1 H        0.926     0.029     2.606     2.524
   107   1 H        0.926     0.027     2.632     2.537
   108   1 H        0.926     0.041     2.432     2.439
   109   1 H        0.926     0.037     2.491     2.468
   110   1 H        0.926     0.030     2.591     2.517
   111   1 H        0.926     0.032     2.557     2.501
   112   1 H        0.926     0.032     2.559     2.501
   113   1 H        0.926     0.032     2.553     2.499
   114   1 H        0.926     0.032     2.551     2.498
   115   1 H        0.926     0.031     2.565     2.505
   116   1 H        0.926     0.031     2.572     2.508
   117   1 H        0.926     0.029     2.601     2.522
   118   1 H        0.926     0.034     2.533     2.489
   119   1 H        0.926     0.034     2.533     2.489
   120   1 H        0.926     0.046     2.369     2.407
   121   1 H        0.926     0.060     2.203     2.321
   122   1 H        0.926     0.038     2.470     2.458
   123   1 H        0.926     0.037     2.492     2.468
   124   1 H        0.926     0.033     2.541     2.493
   125   1 H        0.925     0.030     2.591     2.517
   126   1 H        0.926     0.036     2.498     2.471
   127   1 H        0.926     0.034     2.523     2.484
   128   1 H        0.926     0.037     2.488     2.467
   129   1 H        0.926     0.039     2.458     2.452
   130   1 H        0.926     0.063     2.167     2.302

molecular dipole:
                 x           y           z       tot (Debye)
 q only:        0.907      -0.273       1.826
   full:        1.175      -0.320       2.282       6.575

 projected vibrational frequencies (cm⁻¹)
eigval :       -0.00     0.00     0.00     0.00     0.00     0.00
eigval :        4.96     5.40     7.91    12.92    14.01    15.39
eigval :       18.41    21.39    25.12    27.68    30.38    34.19
eigval :       34.20    38.34    41.43    45.19    46.26    54.58
eigval :       56.19    60.41    67.50    71.07    73.30    78.76
eigval :       81.80    84.52    90.36    93.80    97.55   104.91
eigval :      108.41   127.99   135.42   143.95   146.56   152.82
eigval :      157.58   161.76   166.34   173.84   179.22   185.43
eigval :      194.52   198.42   203.06   221.70   224.18   227.49
eigval :      233.37   241.84   248.10   251.14   263.91   271.94
eigval :      277.70   279.40   283.31   286.85   288.84   310.28
eigval :      314.52   350.49   357.58   360.55   362.75   363.31
eigval :      366.42   370.44   371.63   377.73   383.00   385.33
eigval :      389.59   391.70   393.51   405.98   411.65   414.12
eigval :      415.12   422.41   425.53   431.81   434.74   440.25
eigval :      442.47   452.36   458.28   469.81   474.82   484.02
eigval :      498.01   503.41   506.90   514.47   517.86   519.73
eigval :      526.81   531.61   534.77   539.80   541.33   571.24
eigval :      574.86   582.55   585.32   585.71   586.58   587.17
eigval :      589.03   595.68   602.17   607.14   611.36   622.23
eigval :      625.17   652.10   653.75   656.33   656.80   660.09
eigval :      661.97   672.75   673.79   674.33   679.12   684.44
eigval :      691.51   698.52   703.76   708.02   708.63   713.26
eigval :      723.39   728.16   729.80   738.18   740.44   742.90
eigval :      747.16   754.18   756.52   758.90   768.74   769.55
eigval :      780.80   785.09   794.54   808.24   819.31   829.26
eigval :      835.85   867.42   870.56   873.77   874.92   875.35
eigval :      877.02   877.43   878.45   878.74   880.20   883.33
eigval :      883.93   888.56   896.88   900.11   901.76   901.95
eigval :      902.52   903.34   905.24   905.38   907.38   909.42
eigval :      911.87   913.86   915.83   920.05   921.22   922.17
eigval :      924.54   926.95   927.12   927.42   927.50   927.55
eigval :      928.17   930.47   932.11   932.86   933.02   934.19
eigval :      934.73   935.30   937.44   956.38   972.00   973.65
eigval :      975.23   976.64  1007.80  1011.23  1012.25  1025.91
eigval :     1045.39  1063.73  1070.37  1074.02  1076.29  1076.60
eigval :     1077.93  1079.64  1080.69  1081.65  1088.70  1089.93
eigval :     1108.51  1109.78  1115.28  1116.87  1117.78  1118.43
eigval :     1123.10  1126.30  1127.87  1129.76  1140.77  1144.50
eigval :     1146.31  1152.95  1153.87  1161.59  1174.40  1175.38
eigval :     1176.44  1177.27  1180.36  1180.84  1181.46  1181.58
eigval :     1181.67  1184.24  1185.32  1189.17  1190.94  1194.58
eigval :     1195.87  1203.76  1205.59  1207.37  1209.49  1225.06
eigval :     1229.33  1237.19  1237.50  1238.76  1243.35  1248.29
eigval :     1251.12  1255.22  1262.51  1262.53  1266.99  1269.89
eigval :     1271.83  1273.90  1276.14  1277.19  1285.80  1301.12
eigval :     1304.87  1310.74  1314.97  1316.45  1322.15  1322.35
eigval :     1322.55  1323.53  1323.80  1326.87  1327.34  1357.57
eigval :     1362.73  1366.31  1369.91  1393.52  1407.48  1414.02
eigval :     1417.64  1424.26  1424.81  1426.49  1426.63  1428.62
eigval :     1429.13  1432.09  1433.63  1445.40  1452.39  1454.24
eigval :     1454.38  1455.32  1457.30  1462.58  1472.71  1476.91
eigval :     1488.86  1494.17  1499.93  1560.84  1567.14  1571.92
eigval :     1574.18  1576.29  1582.57  1583.61  1583.85  1585.14
eigval :     1585.80  1586.40  1586.99  1587.79  1587.97  1589.43
eigval :     1589.50  1591.88  1594.73  1599.41  1599.65  1601.60
eigval :     1604.55  1605.56  1615.60  3054.30  3059.99  3069.74
eigval :     3071.27  3071.42  3071.66  3072.69  3074.20  3074.77
eigval :     3075.69  3076.03  3076.41  3076.91  3077.14  3077.24
eigval :     3078.84  3079.34  3079.58  3080.28  3080.66  3080.93
eigval :     3081.69  3081.70  3081.99  3082.00  3083.28  3083.53
eigval :     3084.48  3084.52  3085.58  3086.79  3087.16  3087.51
eigval :     3088.72  3089.19  3089.24  3089.45  3090.55  3091.77
eigval :     3092.32  3092.83  3093.58  3093.92  3094.36  3094.59
eigval :     3095.34  3096.29  3097.06  3098.65  3107.02  3116.44

   temp. (K)  partition function   enthalpy   heat capacity  entropy
                                   cal/mol     cal/K/mol   cal/K/mol   J/K/mol
 298.15  VIB  0.148E+35            39871.748    241.850    254.242
         ROT  0.378E+09              888.752      2.981     42.228
         INT  0.559E+43            40760.500    244.831    296.470
         TR   0.330E+29             1481.254      4.968     46.712
         TOT                       42241.7541   249.7993   343.1817  1435.8722

       T/K    H(0)-H(T)+PV         H(T)/Eh          T*S/Eh         G(T)/Eh
   ------------------------------------------------------------------------
    298.15    0.673165E-01    0.106167E+01    0.163057E+00    0.898614E+00
   ------------------------------------------------------------------------

         :::::::::::::::::::::::::::::::::::::::::::::::::::::
         ::                  THERMODYNAMIC                  ::
         :::::::::::::::::::::::::::::::::::::::::::::::::::::
         :: total free energy        -201.727482567624 Eh   ::
         ::.................................................::
         :: total energy             -202.626096798280 Eh   ::
         :: zero point energy           0.994354406948 Eh   ::
         :: G(RRHO) w/o ZPVE           -0.095740176292 Eh   ::
         :: G(RRHO) contrib.            0.898614230656 Eh   ::
         :::::::::::::::::::::::::::::::::::::::::::::::::::::

           -------------------------------------------------
          | TOTAL ENERGY             -202.626096798280 Eh   |
          | TOTAL ENTHALPY           -201.564425871314 Eh   |
          | TOTAL FREE ENERGY        -201.727482567624 Eh   |
          | GRADIENT NORM               0.000063645109 Eh/α |
          | HOMO-LUMO GAP               2.783008958723 eV   |
           -------------------------------------------------

 * finished run on 2025/09/06 at 21:34:09.873
