   * xtb version 6.7.1 (edcfbbe) compiled by 'albert@albert-system' on 2024-07-22

   ID    Z sym.   atoms
    1    8 O      1, 21, 67
    2   15 P      2, 66
    3    6 C      3-20, 22-34, 36-65, 68-79
    4    7 N      35
    5    1 H      80-130

          program call               : xtb data2507/gas/9CzFDPEPO/9CzFDPEPO_gas_T1_crest.xyz --gfn 2 --spinpol --tblite --uhf 2 --ohess vtight --parallel 40 --molden --ceasefiles --namespace data2507/gas/9CzFDPEPO/9CzFDPEPO_gas_T1_finalOpt
 * total energy  :  -202.5234334 Eh     change       -0.8345225E-07 Eh
 * total energy  :  -202.5234639 Eh     change       -0.3050726E-04 Eh
 * total energy  :  -202.5234738 Eh     change       -0.9903503E-05 Eh
 * total energy  :  -202.5234762 Eh     change       -0.2400753E-05 Eh
 * total energy  :  -202.5234790 Eh     change       -0.2826022E-05 Eh
 * total energy  :  -202.5234838 Eh     change       -0.4779510E-05 Eh
 * total energy  :  -202.5234874 Eh     change       -0.3651277E-05 Eh
 * total energy  :  -202.5234903 Eh     change       -0.2911194E-05 Eh
 * total energy  :  -202.5234928 Eh     change       -0.2434834E-05 Eh
 * total energy  :  -202.5234954 Eh     change       -0.2612578E-05 Eh
 * total energy  :  -202.5235575 Eh     change       -0.1988209E-06 Eh
 * total energy  :  -202.5235577 Eh     change       -0.2708830E-06 Eh
 * total energy  :  -202.5235581 Eh     change       -0.3860224E-06 Eh
 * total energy  :  -202.5235584 Eh     change       -0.2778717E-06 Eh
 * total energy  :  -202.5235588 Eh     change       -0.3778835E-06 Eh
 * total energy  :  -202.5235588 Eh     change        0.1267634E-07 Eh
 * total energy  :  -202.5235591 Eh     change       -0.3831118E-06 Eh
 * total energy  :  -202.5235594 Eh     change       -0.3109629E-06 Eh
 * total energy  :  -202.5235595 Eh     change       -0.8433886E-07 Eh
   *** GEOMETRY OPTIMIZATION CONVERGED AFTER 54 ITERATIONS ***

 final structure:
================
130
 xtb: 6.7.1 (edcfbbe)
O           -6.23660067929629       -4.90196865818747        0.41654998393362
P           -5.85438428460163       -3.48616951624647        0.30598191898772
C           -4.06475966086999       -3.21597451721817        0.54149897064297
C           -3.23830623029827       -4.08053644697747       -0.16543522583324
C           -1.86467133952809       -3.93822568404260       -0.09857230568745
C           -1.31452001330143       -2.93241602979802        0.68043010469658
C           -2.13798162586002       -2.07976675979304        1.39607486269026
C           -3.51425922167778       -2.21285091326555        1.32628887160729
C           -6.76045305337519       -2.42709758406852        1.47129952531787
C           -7.81629528514079       -1.62772453893628        1.06675939259125
C           -8.55710154831527       -0.94448147324060        2.01539496916080
C           -8.23492960741091       -1.04881602018789        3.35746589851818
C           -7.18273569209130       -1.85489881394262        3.76062554253066
C           -6.45422988744923       -2.55571870358441        2.81887715679174
C           -6.16951620772597       -2.83885042906306       -1.36840878851486
C           -6.81468293795564       -3.63655248004157       -2.29851294094854
C           -6.96522690047271       -3.20271480086457       -3.60448102453807
C           -6.44949635416337       -1.97236155153605       -3.98495295575871
C           -5.79522758122245       -1.16874244150673       -3.06836764712504
C           -5.66880225006200       -1.59539293672099       -1.75206775778057
O           -5.10283246124069       -0.81617903189648       -0.78043535305325
C           -3.83783697562078       -0.35669034173528       -0.94670592111317
C           -2.86166627375855       -0.93141111743691       -1.78226305242448
C           -1.57707870343288       -0.49075121578238       -1.73013306791284
C           -1.15323959176829        0.57908895333690       -0.84490929331807
C            0.18186001077523        0.97253622304225       -0.72937411558474
C            0.58864760754854        2.14501121218694        0.00991776326319
C            1.89150563808535        2.52022338187346        0.11142081303272
C            2.92679488136200        1.76191134078017       -0.47338631079101
C            4.36357673385705        2.20537551055578       -0.41475396826737
C            5.32814213239699        1.04814053971952       -0.28367444090826
C            5.00688364664824       -0.03469144825843        0.52857667715944
C            5.89835569635176       -1.07246788476397        0.70919251221385
C            7.13555118555386       -1.04876706107108        0.07126128016661
N            8.03827072727927       -2.10641814852764        0.24173662290255
C            9.36853136509462       -1.98608415926199        0.59009495379878
C           10.10276131256780       -0.84866748676403        0.89545919769635
C           11.43020212306278       -1.01269515485096        1.24288069817433
C           12.01781257304979       -2.27448347624235        1.29641139630739
C           11.28539483723520       -3.41203354638910        1.01761187530554
C            9.95003367178310       -3.27292573267867        0.66589291336152
C            8.91052412333151       -4.21014714277685        0.34049455037281
C            8.87090125870845       -5.59331991872195        0.23290526607478
C            7.68142516385155       -6.19481265453977       -0.12979473385437
C            6.54618300893921       -5.43374856035560       -0.39831600332999
C            6.56111716625373       -4.05554835737875       -0.29839876335771
C            7.74673392788661       -3.44715846634842        0.08931487307421
C            7.46522599666123        0.03489614416160       -0.73709506922058
C            6.57111775970297        1.07480130421009       -0.90298582306492
C            4.59948553045783        3.06927101459488       -1.64219132508492
C            4.49020070465032        2.72499778077673       -2.97340006834182
C            4.73107441020463        3.69729444792870       -3.93354627184594
C            5.06408475311863        4.99341526588638       -3.56647666323002
C            5.16747446307061        5.34685581131228       -2.23130735743592
C            4.93380234719620        4.37971706300383       -1.26736922108115
C            4.97897350900878        4.45080391004917        0.18276590402308
C            5.28313544958734        5.50286385173827        1.03151064769026
C            5.25276095168055        5.28272173393268        2.39887946309232
C            4.92757328563372        4.03544557551113        2.91008042658757
C            4.62249042501256        2.97707274339575        2.06430116428184
C            4.64547118475538        3.19221793205547        0.70340171345156
C            2.55908322826747        0.61614388212697       -1.21424678630528
C            1.26133838475627        0.23636431596370       -1.34346107681665
C           -2.20775194407628        1.19962165613781       -0.07820190384927
C           -3.48509324617932        0.74455887830394       -0.12464695927142
P           -4.87210513964107        1.41606334481733        0.84793261206970
O           -5.32482186485859        0.56942801677983        1.95831646638761
C           -6.15610803753549        1.78479954845893       -0.38840445583884
C           -5.86957227048460        2.14631071041995       -1.69756516325079
C           -6.90380114439361        2.39657590389759       -2.58122511568515
C           -8.21996070818844        2.28916111362693       -2.16082833918664
C           -8.50524272486432        1.93516470740891       -0.85228885346020
C           -7.47270744849363        1.68618924903853        0.03355147507968
C           -4.29346826295073        3.04920411437251        1.41001283384164
C           -4.30978675970851        3.28880692712309        2.77596143407783
C           -3.88576200393248        4.50878436456938        3.27280198067050
C           -3.44563444624436        5.49103108853846        2.40133773667637
C           -3.43364242559364        5.25548415296665        1.03473715543288
C           -3.85905102758532        4.03822926193355        0.53623424927326
H           -3.69087156466673       -4.86426122274676       -0.75867777915510
H           -1.22295616260788       -4.60740650919789       -0.65366365211021
H           -0.24181618554534       -2.81301026747607        0.73051640319033
H           -1.70781480561744       -1.29615671204580        2.00280062824034
H           -4.15621016566818       -1.53089689321347        1.86273670186181
H           -8.05516621718725       -1.53835006405017        0.01524067678664
H           -9.39126091725978       -0.33018435048181        1.70604535390001
H           -8.80840286013125       -0.50321665633508        4.09312737600812
H           -6.93526265087263       -1.93821932792095        4.80894976993318
H           -5.64395513110884       -3.20932955504144        3.11493255179302
H           -7.17850130725317       -4.60111584171094       -1.97488501232948
H           -7.47164741134839       -3.82312303527528       -4.32814732969525
H           -6.55624486061186       -1.63382329381283       -5.00480965125695
H           -5.39456303298116       -0.20765817598355       -3.35597660032459
H           -3.13801109485593       -1.74639074445435       -2.43645709062500
H           -0.85292019077248       -0.94897090494052       -2.38175132838256
H           -0.16178718160828        2.76615664239593        0.47105689813407
H            2.14717111701791        3.41717344879555        0.65747255471210
H            4.04633662428878       -0.06428874163695        1.02232384563427
H            5.64863726555200       -1.89897849696118        1.35762569043258
H            9.65118301081038        0.13171616413333        0.87513312158846
H           12.02405050169992       -0.14292867766962        1.48200986367738
H           13.05885410891938       -2.36052255646312        1.56972334475644
H           11.73667840605959       -4.39094887022231        1.07536334646524
H            9.75469321464155       -6.18239904579676        0.42560935759655
H            7.62850520666149       -7.26975468675810       -0.21634429714683
H            5.63460389998822       -5.93143792399219       -0.69431581278435
H            5.68090317803320       -3.47329174545038       -0.52550048644012
H            8.41734369391481        0.05032446690866       -1.24600690175989
H            6.83892412401748        1.91160812485806       -1.53112849446403
H            4.22854719608385        1.71959340654449       -3.26737118173093
H            4.65810368270471        3.44137096518111       -4.98033235071032
H            5.24377111561707        5.73410664286605       -4.33191913783639
H            5.42548510065568        6.35626886470331       -1.94735742605865
H            5.53903408752057        6.47441295870738        0.63576058557727
H            5.48642599322852        6.09133710671294        3.07600682811831
H            4.91129538304297        3.88425371127935        3.97935268988543
H            4.37025945732530        2.00819748635429        2.46899539596406
H            3.33689219336700        0.02241749997898       -1.67432692361942
H            1.03877454843667       -0.66260747208430       -1.89426839190484
H           -1.98228133859337        2.03129484953219        0.56997195698405
H           -4.84106243716983        2.21508728627723       -2.02712516623117
H           -6.68506773565341        2.67308421379890       -3.60305951628946
H           -9.02349117159299        2.48036074006907       -2.85699893143419
H           -9.53209653739877        1.85303986484409       -0.52668632086484
H           -7.66210198920869        1.39696008856298        1.05689212381433
H           -4.65723933326566        2.50385823826096        3.43218911126952
H           -3.89730899019932        4.69419685025261        4.33690604818570
H           -3.11186670541206        6.44404670890394        2.78510465984762
H           -3.09067238134653        6.02451598030633        0.35766523929096
H           -3.85083131840252        3.85235037879724       -0.52785027791718

 projected vibrational frequencies (cm⁻¹)
eigval :       -0.00    -0.00    -0.00    -0.00     0.00     0.00
eigval :        3.83     3.93     9.85    11.15    15.86    17.89
eigval :       18.35    20.86    24.17    27.65    29.26    31.76
eigval :       34.03    36.32    44.21    48.48    49.44    53.59
eigval :       55.37    60.48    64.26    67.92    71.58    76.70
eigval :       81.42    83.75    88.72    95.71    99.02   103.31
eigval :      105.90   115.13   134.02   139.22   144.80   145.60
eigval :      147.22   157.38   160.93   166.17   178.39   184.06
eigval :      192.46   197.13   200.36   218.70   223.07   226.63
eigval :      230.93   236.66   241.18   250.12   252.51   266.34
eigval :      271.47   274.18   277.21   278.20   283.50   288.42
eigval :      306.52   318.87   333.95   349.54   356.48   361.39
eigval :      362.87   364.62   366.57   370.33   372.73   378.99
eigval :      384.70   387.84   390.27   392.81   404.79   406.53
eigval :      413.37   415.25   418.15   423.81   435.14   438.80
eigval :      444.54   451.18   454.52   455.27   472.16   475.76
eigval :      486.51   489.77   497.37   505.71   508.70   516.09
eigval :      518.26   524.31   526.48   536.01   537.00   540.12
eigval :      562.38   578.77   585.17   585.39   585.67   586.14
eigval :      586.73   587.24   594.63   597.73   600.78   614.46
eigval :      619.48   623.18   643.05   650.71   653.34   656.94
eigval :      660.04   661.64   662.23   672.00   674.16   677.88
eigval :      680.30   690.89   695.21   708.76   711.47   714.34
eigval :      723.02   723.91   728.31   737.19   742.02   745.11
eigval :      746.07   750.87   753.03   754.25   757.10   766.20
eigval :      769.56   771.20   773.67   780.24   783.85   785.26
eigval :      798.12   809.00   819.27   850.75   867.25   873.18
eigval :      875.34   876.79   877.11   877.62   878.08   881.25
eigval :      882.58   882.62   884.16   890.84   894.49   898.82
eigval :      900.53   901.86   902.35   903.27   903.61   905.83
eigval :      907.77   908.86   910.09   912.52   914.35   914.80
eigval :      919.98   921.52   923.67   925.00   926.38   927.06
eigval :      927.10   927.50   928.93   929.94   933.91   934.44
eigval :      936.19   937.30   941.81   953.06   954.65   972.04
eigval :      973.43   975.68   976.47   977.07  1003.47  1012.19
eigval :     1015.04  1023.50  1052.42  1070.07  1073.58  1075.79
eigval :     1076.99  1078.47  1078.83  1079.53  1080.17  1081.27
eigval :     1104.09  1110.94  1113.84  1116.64  1117.75  1117.89
eigval :     1121.92  1126.10  1127.44  1129.46  1132.32  1138.80
eigval :     1140.95  1143.42  1150.63  1152.64  1170.34  1171.69
eigval :     1173.14  1176.16  1180.29  1180.37  1180.55  1181.07
eigval :     1181.48  1181.66  1183.36  1188.81  1190.81  1193.15
eigval :     1194.48  1195.20  1201.39  1202.47  1208.10  1211.68
eigval :     1222.83  1232.69  1233.98  1235.32  1239.33  1240.49
eigval :     1248.29  1249.75  1254.30  1260.88  1267.80  1268.72
eigval :     1269.58  1272.67  1274.30  1275.64  1282.33  1285.83
eigval :     1298.44  1299.41  1316.68  1318.82  1320.86  1322.62
eigval :     1323.91  1324.15  1325.63  1326.54  1331.12  1353.91
eigval :     1356.00  1357.21  1364.25  1366.73  1369.50  1396.00
eigval :     1407.78  1420.44  1422.84  1423.01  1423.25  1424.40
eigval :     1426.95  1427.96  1428.32  1429.54  1435.04  1453.42
eigval :     1453.91  1456.97  1458.47  1459.99  1466.59  1471.90
eigval :     1473.17  1486.62  1486.99  1490.27  1498.18  1517.44
eigval :     1556.85  1565.13  1569.77  1573.31  1578.58  1581.56
eigval :     1583.43  1585.29  1586.18  1586.88  1587.27  1587.51
eigval :     1588.99  1589.20  1591.00  1593.17  1593.91  1595.69
eigval :     1599.98  1605.84  1614.92  3051.67  3053.96  3054.14
eigval :     3059.16  3065.12  3067.41  3070.36  3071.24  3071.83
eigval :     3072.08  3074.30  3074.94  3075.23  3075.50  3075.91
eigval :     3076.65  3077.62  3077.71  3077.90  3078.53  3079.98
eigval :     3080.16  3080.71  3081.49  3082.15  3082.66  3083.65
eigval :     3084.44  3085.53  3086.12  3086.58  3086.93  3087.15
eigval :     3088.89  3089.40  3089.82  3090.94  3091.26  3091.86
eigval :     3092.91  3093.46  3093.64  3094.86  3095.59  3096.14
eigval :     3097.39  3097.98  3103.90  3104.36  3107.95  3121.49

   temp. (K)  partition function   enthalpy   heat capacity  entropy
                                   cal/mol     cal/K/mol   cal/K/mol   J/K/mol
 298.15  VIB  0.519E+35            40389.875    244.366    258.070
         ROT  0.390E+09              888.752      2.981     42.291
         INT  0.202E+44            41278.627    247.346    300.361
         TR   0.330E+29             1481.254      4.968     46.712
         TOT                       42759.8810   252.3146   347.0730  1452.1535

       T/K    H(0)-H(T)+PV         H(T)/Eh          T*S/Eh         G(T)/Eh
   ------------------------------------------------------------------------
    298.15    0.681422E-01    0.105759E+01    0.164906E+00    0.892681E+00
   ------------------------------------------------------------------------

         :::::::::::::::::::::::::::::::::::::::::::::::::::::
         ::                  THERMODYNAMIC                  ::
         :::::::::::::::::::::::::::::::::::::::::::::::::::::
         :: total free energy        -201.630878110706 Eh   ::
         ::.................................................::
         :: total energy             -202.523559535422 Eh   ::
         :: zero point energy           0.989444803508 Eh   ::
         :: G(RRHO) w/o ZPVE           -0.096763378792 Eh   ::
         :: G(RRHO) contrib.            0.892681424716 Eh   ::
         :::::::::::::::::::::::::::::::::::::::::::::::::::::

           -------------------------------------------------
          | TOTAL ENERGY             -202.523559535422 Eh   |
          | TOTAL ENTHALPY           -201.465972524180 Eh   |
          | TOTAL FREE ENERGY        -201.630878110706 Eh   |
          | GRADIENT NORM               0.000073268658 Eh/α |
           -------------------------------------------------

 * finished run on 2025/09/06 at 22:22:34.939
