   * xtb version 6.7.1 (edcfbbe) compiled by 'albert@albert-system' on 2024-07-22

   ID    Z sym.   atoms
    1    6 C      1, 3-5, 8-19, 21-26
    2    8 O      2, 6, 7
    3    7 N      20
    4    1 H      27-41

          program call               : xtb data2507/toluene/2CzMC/2CzMC_toluene_T1_crest.xyz --gfn 2 --uhf 2 --gbsa toluene --ohess vtight --parallel 40 --molden --ceasefiles --namespace data2507/toluene/2CzMC/2CzMC_toluene_T1_finalOpt
      * Solvation model:               GBSA
        Solvent                        toluene
        Solvent mass                       9.2140E+01 g/mol
          :  Hamiltonian                  GFN2-xTB          :
 * total energy  :   -69.8690121 Eh     change       -0.2348060E-09 Eh
 * total energy  :   -69.8691524 Eh     change       -0.1403456E-03 Eh
 * total energy  :   -69.8691920 Eh     change       -0.3959812E-04 Eh
 * total energy  :   -69.8691946 Eh     change       -0.2567434E-05 Eh
 * total energy  :   -69.8691957 Eh     change       -0.1052829E-05 Eh
 * total energy  :   -69.8691966 Eh     change       -0.9175109E-06 Eh
 * total energy  :   -69.8691976 Eh     change       -0.1055855E-05 Eh
 * total energy  :   -69.8691987 Eh     change       -0.1123419E-05 Eh
 * total energy  :   -69.8691995 Eh     change       -0.7229143E-06 Eh
 * total energy  :   -69.8691998 Eh     change       -0.2859242E-06 Eh
 * total energy  :   -69.8691999 Eh     change       -0.1669598E-06 Eh
 * total energy  :   -69.8692000 Eh     change       -0.3304238E-07 Eh
 * total energy  :   -69.8692001 Eh     change       -0.1048102E-06 Eh
 * total energy  :   -69.8692002 Eh     change       -0.1399440E-06 Eh
 * total energy  :   -69.8692002 Eh     change       -0.1885945E-07 Eh
   *** GEOMETRY OPTIMIZATION CONVERGED AFTER 15 ITERATIONS ***

 final structure:
================
41
 xtb: 6.7.1 (edcfbbe)
C           -5.61793711810833        1.88262945184537       -0.08058988549124
O           -4.21704779537499        1.72393431494110       -0.05570548160270
C           -3.69965974745815        0.46000892953402       -0.00399690577091
C           -4.48388849010417       -0.71740602293599        0.03944868463699
C           -3.90099438115880       -1.99376904728700        0.10194196039357
O           -4.50880899649029       -3.06557565656210        0.14900192664584
O           -2.51247523305903       -2.07912515742329        0.11189436861752
C           -1.73413833102261       -0.96078590481290        0.05845150567138
C           -0.37335299307692       -1.16428910191738        0.06151235956812
C            0.46738030872739       -0.02889639165948       -0.00461435025854
C           -0.06627679377455        1.27984551056520       -0.01278871894211
C           -1.42671720090513        1.48633110811042       -0.01068268777958
C           -2.30344725953849        0.34479851516246        0.00793504544381
C            1.07104923304350        2.17128516030243       -0.01262180846081
C            1.20371240828402        3.54745640961656       -0.03749322745410
C            2.48125143012378        4.09160947794497       -0.05910395716643
C            3.61307893367884        3.27750088436274       -0.07877494867011
C            3.50634362450661        1.89880168965825       -0.05778705548815
C            2.22985103826730        1.34816808077781        0.00072708410408
N            1.83973154229149        0.02681360225811        0.00498006830996
C            2.69971557168818       -1.07328343851810       -0.01255811920403
C            3.77548078928774       -1.13794249400615        0.87526822020686
C            4.62322008590988       -2.22827832302851        0.84912112029786
C            4.41266935649838       -3.25862680956640       -0.05550807390227
C            3.34346013014839       -3.19635044950978       -0.93718900338259
C            2.48746324336397       -2.11241350111384       -0.92084127553024
H           -6.05920502577831        1.40607868752231       -0.96114228304462
H           -6.08307611559035        1.47933031447884        0.82391131076334
H           -5.78473534903226        2.95764808147195       -0.12691826548663
H           -5.55945349088602       -0.69040354391318        0.03214862055617
H            0.01267446254583       -2.16740202094526        0.13006405075760
H           -1.86656331388501        2.46736397082897       -0.01514159556078
H            0.33128066822910        4.18182677560965       -0.04547436191474
H            2.60249955950049        5.16406898800969       -0.07515000111944
H            4.59105085025670        3.73203094203512       -0.11706303454814
H            4.38527930696608        1.27504176679366       -0.09936840565909
H            3.91480286426638       -0.35233659096233        1.60199183717828
H            5.44709545163468       -2.27936718735543        1.54470495988345
H            5.07775403785616       -4.10832518412982       -0.07234813955692
H            3.17965072727009       -3.99308044401929       -1.64694809619299
H            1.67220338279859       -2.04463778046348       -1.62500227534767

          :  Hamiltonian                  GFN2-xTB          :
         :: gradient norm              0.000196067962 Eh/a0 ::
         :: HOMO-LUMO gap              0.594408199948 eV    ::
         :: SCC energy               -70.960314358314 Eh    ::
         :: -> dispersion             -0.050391184366 Eh    ::
         :: -> Gsolv                  -0.043256058801 Eh    ::
         :: repulsion energy           1.091114138016 Eh    ::

    * Orbital Energies and Occupations

         #    Occupation            Energy/Eh            Energy/eV
      -------------------------------------------------------------
         1        2.0000           -0.7354265             -20.0120
       ...           ...                  ...                  ...
        52        2.0000           -0.4467761             -12.1574
        53        2.0000           -0.4424022             -12.0384
        54        2.0000           -0.4358404             -11.8598
        55        2.0000           -0.4336141             -11.7992
        56        2.0000           -0.4297928             -11.6953
        57        2.0000           -0.4258607             -11.5883
        58        2.0000           -0.4253589             -11.5746
        59        2.0000           -0.4225962             -11.4994
        60        2.0000           -0.4030221             -10.9668
        61        2.0000           -0.3998999             -10.8818
        62        1.9975           -0.3897095             -10.6045
        63        1.0025           -0.3782966             -10.2940
        64        1.0000           -0.2805178              -7.6333 (HOMO)
        65        0.0000           -0.2586739              -7.0389 (LUMO)
        66                         -0.2482818              -6.7561
        67                         -0.2434953              -6.6258
        68                         -0.2278131              -6.1991
        69                         -0.2087271              -5.6798
        70                         -0.2039570              -5.5500
        71                         -0.1461315              -3.9764
        72                         -0.1149503              -3.1280
        73                         -0.0988405              -2.6896
        74                         -0.0712378              -1.9385
        75                         -0.0097297              -0.2648
       ...                                ...                  ...
       119                          0.7290831              19.8394
      -------------------------------------------------------------
                  HL-Gap            0.0218439 Eh            0.5944 eV

     #   Z          covCN         q      C6AA      α(0)
     1   6 C        3.642     0.034    20.357     6.487
     2   8 O        1.704    -0.275    18.564     5.817
     3   6 C        2.855     0.119    25.369     8.255
     4   6 C        2.900    -0.116    30.946     9.121
     5   6 C        2.710     0.315    21.641     7.615
     6   8 O        0.857    -0.511    24.020     6.571
     7   8 O        1.708    -0.287    18.767     5.849
     8   6 C        2.866     0.139    24.958     8.189
     9   6 C        2.904    -0.064    29.604     8.921
    10   6 C        3.076     0.031    27.237     8.557
    11   6 C        3.047    -0.011    28.237     8.715
    12   6 C        2.909    -0.058    29.440     8.897
    13   6 C        2.973    -0.021    28.519     8.760
    14   6 C        3.068    -0.004    28.060     8.686
    15   6 C        2.911    -0.024    28.609     8.771
    16   6 C        2.920    -0.025    28.619     8.773
    17   6 C        2.921    -0.031    28.763     8.795
    18   6 C        2.908    -0.034    28.857     8.809
    19   6 C        3.070     0.042    26.993     8.519
    20   7 N        2.803     0.028    20.749     6.765
    21   6 C        2.915     0.060    26.647     8.465
    22   6 C        2.920    -0.035    28.876     8.812
    23   6 C        2.919    -0.022    28.558     8.763
    24   6 C        2.919    -0.023    28.569     8.765
    25   6 C        2.919    -0.022    28.547     8.762
    26   6 C        2.921    -0.034    28.852     8.808
    27   1 H        0.924     0.048     2.345     2.395
    28   1 H        0.924     0.048     2.346     2.395
    29   1 H        0.925     0.073     2.050     2.239
    30   1 H        0.926     0.055     2.263     2.352
    31   1 H        0.926     0.063     2.162     2.299
    32   1 H        0.926     0.056     2.241     2.341
    33   1 H        0.926     0.051     2.303     2.373
    34   1 H        0.926     0.051     2.307     2.375
    35   1 H        0.926     0.052     2.300     2.372
    36   1 H        0.926     0.056     2.249     2.345
    37   1 H        0.926     0.059     2.215     2.327
    38   1 H        0.926     0.056     2.246     2.344
    39   1 H        0.926     0.053     2.280     2.361
    40   1 H        0.926     0.053     2.283     2.363
    41   1 H        0.926     0.054     2.274     2.358

molecular dipole:
                 x           y           z       tot (Debye)
 q only:        4.802       2.649      -0.145
   full:        4.493       2.566      -0.154      13.156

 projected vibrational frequencies (cm⁻¹)
eigval :       -0.00    -0.00    -0.00     0.00     0.00     0.00
eigval :       26.78    47.22    54.41    62.72    74.84    97.60
eigval :      108.13   116.48   159.62   163.30   176.33   206.35
eigval :      219.40   244.60   245.30   256.40   291.56   342.64
eigval :      345.84   358.39   379.43   387.14   395.35   420.92
eigval :      455.92   476.24   486.30   499.84   525.03   542.72
eigval :      555.98   581.43   591.76   593.38   599.99   620.12
eigval :      640.02   653.78   662.85   687.83   691.88   715.67
eigval :      724.52   737.32   760.14   765.34   790.91   804.39
eigval :      847.44   863.10   878.39   892.87   900.75   907.52
eigval :      913.42   917.37   931.35   936.44   978.18   989.24
eigval :     1001.53  1060.97  1075.33  1087.64  1110.31  1114.71
eigval :     1116.21  1117.97  1143.08  1158.62  1164.49  1174.87
eigval :     1179.47  1186.61  1192.49  1216.06  1220.89  1232.70
eigval :     1258.66  1269.32  1277.06  1316.72  1331.42  1356.55
eigval :     1374.61  1379.70  1387.07  1397.26  1427.15  1445.12
eigval :     1451.87  1460.78  1461.43  1469.61  1477.19  1491.43
eigval :     1502.04  1548.61  1556.99  1562.78  1572.91  1603.89
eigval :     2936.29  2949.37  3024.55  3086.14  3088.20  3088.48
eigval :     3094.17  3095.58  3099.43  3101.61  3104.46  3106.01
eigval :     3119.67  3135.29  3138.91

   temp. (K)  partition function   enthalpy   heat capacity  entropy
                                   cal/mol     cal/K/mol   cal/K/mol   J/K/mol
 298.15  VIB  0.324E+08            11477.049     76.253     69.352
         ROT  0.132E+08              888.752      2.981     35.563
         INT  0.428E+15            12365.801     79.233    104.915
         TR   0.610E+28             1481.254      4.968     43.358
         TOT                       13847.0549    84.2016   148.2732   620.3750

       T/K    H(0)-H(T)+PV         H(T)/Eh          T*S/Eh         G(T)/Eh
   ------------------------------------------------------------------------
    298.15    0.220667E-01    0.323702E+00    0.704494E-01    0.253252E+00
   ------------------------------------------------------------------------

         :::::::::::::::::::::::::::::::::::::::::::::::::::::
         ::                  THERMODYNAMIC                  ::
         :::::::::::::::::::::::::::::::::::::::::::::::::::::
         :: total free energy         -69.615947863409 Eh   ::
         ::.................................................::
         :: total energy              -69.869200225028 Eh   ::
         :: zero point energy           0.301635043753 Eh   ::
         :: G(RRHO) w/o ZPVE           -0.048382682134 Eh   ::
         :: G(RRHO) contrib.            0.253252361619 Eh   ::
         :::::::::::::::::::::::::::::::::::::::::::::::::::::

           -------------------------------------------------
          | TOTAL ENERGY              -69.869200225028 Eh   |
          | TOTAL ENTHALPY            -69.545498494689 Eh   |
          | TOTAL FREE ENERGY         -69.615947863409 Eh   |
          | GRADIENT NORM               0.000196426303 Eh/α |
          | HOMO-LUMO GAP               0.594402248353 eV   |
           -------------------------------------------------

 * finished run on 2025/08/26 at 02:43:21.136
