   * xtb version 6.7.1 (edcfbbe) compiled by 'albert@albert-system' on 2024-07-22

   ID    Z sym.   atoms
    1    6 C      1, 3-5, 8-19, 21-26
    2    8 O      2, 6, 7
    3    7 N      20
    4    1 H      27-41

          program call               : xtb data2507/toluene/2CzMC/2CzMC_toluene_S0_finalOpt.xtbopt.xyz --gfn 2 --uhf 2 --gbsa toluene --ohess vtight --parallel 40 --molden --ceasefiles --namespace data2507/toluene/2CzMC/2CzMC_toluene_T1_preOpt
      * Solvation model:               GBSA
        Solvent                        toluene
        Solvent mass                       9.2140E+01 g/mol
          :  Hamiltonian                  GFN2-xTB          :
 * total energy  :   -69.8623517 Eh     change       -0.1813817E-08 Eh
 * total energy  :   -69.8674567 Eh     change       -0.5104963E-02 Eh
 * total energy  :   -69.8688700 Eh     change       -0.1413319E-02 Eh
 * total energy  :   -69.8689866 Eh     change       -0.1165855E-03 Eh
 * total energy  :   -69.8690721 Eh     change       -0.8544303E-04 Eh
 * total energy  :   -69.8690946 Eh     change       -0.2259789E-04 Eh
 * total energy  :   -69.8691221 Eh     change       -0.2740968E-04 Eh
 * total energy  :   -69.8691389 Eh     change       -0.1683907E-04 Eh
 * total energy  :   -69.8691566 Eh     change       -0.1771918E-04 Eh
 * total energy  :   -69.8691679 Eh     change       -0.1126168E-04 Eh
 * total energy  :   -69.8691878 Eh     change       -0.1451126E-05 Eh
 * total energy  :   -69.8691890 Eh     change       -0.1230698E-05 Eh
 * total energy  :   -69.8691902 Eh     change       -0.1188007E-05 Eh
 * total energy  :   -69.8691913 Eh     change       -0.1118760E-05 Eh
 * total energy  :   -69.8691922 Eh     change       -0.8717558E-06 Eh
 * total energy  :   -69.8691928 Eh     change       -0.6133438E-06 Eh
 * total energy  :   -69.8691933 Eh     change       -0.4727733E-06 Eh
 * total energy  :   -69.8691937 Eh     change       -0.3987231E-06 Eh
 * total energy  :   -69.8691937 Eh     change       -0.2351219E-07 Eh
   *** GEOMETRY OPTIMIZATION CONVERGED AFTER 22 ITERATIONS ***

 final structure:
================
41
 xtb: 6.7.1 (edcfbbe)
C           -5.63839842621328        1.82217414586556       -0.01413941005027
O           -4.23564326843721        1.67906296539873       -0.02502363400253
C           -3.70348597643441        0.42045304099752        0.00206590075159
C           -4.47409050765468       -0.76639512787980        0.03115337296743
C           -3.87643049315316       -2.03673631114783        0.07277261728156
O           -4.47193046137666       -3.11601805076225        0.10264951594859
O           -2.48718214623236       -2.10629561309710        0.08239539320190
C           -1.72183867108259       -0.97854253689573        0.03989618026770
C           -0.35889109394251       -1.16652086901174        0.04457978566643
C            0.46911147269443       -0.02134052461054       -0.01245025699190
C           -0.07940663820633        1.28132881175439       -0.01844785973687
C           -1.44218328714071        1.47226352181611       -0.01429427659974
C           -2.30596969879452        0.32094309749348        0.00191314165602
C            1.04772052665399        2.18570307878573       -0.01595642777356
C            1.16518734326928        3.56326520835992       -0.04164616341767
C            2.43665444338548        4.12157366410027       -0.06141503895362
C            3.57752622816813        3.32016586088946       -0.07805514076754
C            3.48608077877301        1.94035881941309       -0.05619842492071
C            2.21565642379213        1.37575245937900       -0.00009320023990
N            1.84065039668933        0.05003388286265        0.00265003306773
C            2.71432549946561       -1.03942269783097       -0.00119714848125
C            2.52461452648629       -2.08658848744125       -0.90505895559917
C            3.39337196441768       -3.16053824248367       -0.90455881964486
C            4.45325407873175       -3.20455368049861       -0.01065326595846
C            4.64204281747718       -2.16562819115888        0.88893719151151
C            3.78136377552672       -1.08527394329431        0.89834623730170
H           -6.09449050641555        1.36412824564744       -0.89694700944455
H           -6.07823886519827        1.38967783523174        0.88949476581397
H           -5.81802799122220        2.89601003649665       -0.02800669903736
H           -5.54992271040287       -0.75186019035857        0.02514167573523
H            0.03829499174694       -2.16563254184149        0.10699358909646
H           -1.89323753690577        2.44822606405683       -0.01436238084195
H            0.28581503472029        4.18790917825893       -0.05168433425519
H            2.54597828829962        5.19531243652966       -0.07831248253670
H            4.55043335511265        3.78555318659257       -0.11503443524609
H            4.37190553198004        1.32624734494201       -0.09585672355599
H            1.71668347418135       -2.03323688004827       -1.61877121885327
H            3.24704436031799       -3.96361609288624       -1.61095328372888
H            5.12832296791466       -4.04648125967140       -0.01421501950438
H            5.45875415624641       -2.20243098271589        1.59379998081150
H            3.90364679696580       -0.29300094679362        1.62092552012772

          :  Hamiltonian                  GFN2-xTB          :
         :: gradient norm              0.000088986823 Eh/a0 ::
         :: HOMO-LUMO gap              0.594117910471 eV    ::
         :: SCC energy               -70.960337013463 Eh    ::
         :: -> dispersion             -0.050389557843 Eh    ::
         :: -> Gsolv                  -0.043245482224 Eh    ::
         :: repulsion energy           1.091143308642 Eh    ::

    * Orbital Energies and Occupations

         #    Occupation            Energy/Eh            Energy/eV
      -------------------------------------------------------------
         1        2.0000           -0.7354531             -20.0127
       ...           ...                  ...                  ...
        52        2.0000           -0.4467725             -12.1573
        53        2.0000           -0.4423995             -12.0383
        54        2.0000           -0.4358428             -11.8599
        55        2.0000           -0.4336286             -11.7996
        56        2.0000           -0.4297915             -11.6952
        57        2.0000           -0.4258616             -11.5883
        58        2.0000           -0.4253695             -11.5749
        59        2.0000           -0.4226062             -11.4997
        60        2.0000           -0.4030182             -10.9667
        61        2.0000           -0.3998955             -10.8817
        62        1.9976           -0.3897190             -10.6048
        63        1.0024           -0.3783008             -10.2941
        64        1.0000           -0.2804973              -7.6327 (HOMO)
        65        0.0000           -0.2586640              -7.0386 (LUMO)
        66                         -0.2483086              -6.7568
        67                         -0.2434989              -6.6259
        68                         -0.2277972              -6.1987
        69                         -0.2087259              -5.6797
        70                         -0.2039484              -5.5497
        71                         -0.1461210              -3.9762
        72                         -0.1149583              -3.1282
        73                         -0.0988392              -2.6896
        74                         -0.0712382              -1.9385
        75                         -0.0097113              -0.2643
       ...                                ...                  ...
       119                          0.7290170              19.8376
      -------------------------------------------------------------
                  HL-Gap            0.0218334 Eh            0.5941 eV

     #   Z          covCN         q      C6AA      α(0)
     1   6 C        3.642     0.034    20.357     6.487
     2   8 O        1.704    -0.275    18.565     5.817
     3   6 C        2.855     0.119    25.370     8.255
     4   6 C        2.900    -0.116    30.946     9.121
     5   6 C        2.710     0.315    21.641     7.615
     6   8 O        0.857    -0.511    24.020     6.571
     7   8 O        1.708    -0.287    18.766     5.849
     8   6 C        2.866     0.139    24.958     8.189
     9   6 C        2.904    -0.065    29.605     8.922
    10   6 C        3.076     0.031    27.236     8.556
    11   6 C        3.047    -0.011    28.237     8.715
    12   6 C        2.909    -0.058    29.441     8.897
    13   6 C        2.973    -0.021    28.518     8.760
    14   6 C        3.068    -0.004    28.061     8.686
    15   6 C        2.911    -0.024    28.609     8.771
    16   6 C        2.920    -0.025    28.619     8.773
    17   6 C        2.921    -0.031    28.763     8.795
    18   6 C        2.908    -0.034    28.857     8.808
    19   6 C        3.070     0.042    26.993     8.519
    20   7 N        2.803     0.028    20.749     6.765
    21   6 C        2.915     0.060    26.647     8.465
    22   6 C        2.920    -0.034    28.853     8.809
    23   6 C        2.919    -0.022    28.547     8.762
    24   6 C        2.919    -0.023    28.569     8.765
    25   6 C        2.919    -0.022    28.558     8.763
    26   6 C        2.920    -0.035    28.876     8.812
    27   1 H        0.924     0.048     2.344     2.394
    28   1 H        0.924     0.048     2.346     2.395
    29   1 H        0.925     0.073     2.050     2.239
    30   1 H        0.926     0.055     2.263     2.352
    31   1 H        0.926     0.063     2.161     2.299
    32   1 H        0.926     0.056     2.241     2.341
    33   1 H        0.926     0.051     2.303     2.373
    34   1 H        0.926     0.051     2.307     2.375
    35   1 H        0.926     0.052     2.300     2.372
    36   1 H        0.926     0.056     2.249     2.345
    37   1 H        0.926     0.054     2.273     2.358
    38   1 H        0.926     0.053     2.283     2.363
    39   1 H        0.926     0.053     2.280     2.361
    40   1 H        0.926     0.056     2.246     2.344
    41   1 H        0.926     0.059     2.215     2.328

molecular dipole:
                 x           y           z       tot (Debye)
 q only:        4.772       2.705      -0.080
   full:        4.464       2.618      -0.087      13.155

 projected vibrational frequencies (cm⁻¹)
eigval :       -0.00    -0.00    -0.00    -0.00     0.00     0.00
eigval :       24.22    45.07    53.74    62.53    72.09    96.88
eigval :      108.09   116.59   158.28   163.61   176.41   205.98
eigval :      218.32   243.29   245.38   255.39   291.58   341.63
eigval :      346.12   357.91   377.62   387.43   395.08   420.72
eigval :      456.01   475.82   486.09   499.68   525.03   542.66
eigval :      556.03   581.13   591.33   592.87   599.94   620.00
eigval :      640.04   653.78   661.78   687.82   691.65   715.55
eigval :      724.50   737.42   759.56   765.68   790.95   804.18
eigval :      847.28   862.81   876.68   893.22   900.59   906.56
eigval :      913.73   917.28   931.31   934.33   978.21   989.09
eigval :     1001.54  1061.06  1074.33  1087.54  1110.42  1113.81
eigval :     1116.20  1116.65  1142.47  1158.61  1163.81  1174.92
eigval :     1179.38  1186.51  1191.54  1216.03  1220.90  1232.73
eigval :     1258.38  1268.44  1276.62  1316.65  1331.42  1356.59
eigval :     1374.55  1379.59  1387.10  1396.33  1426.97  1445.11
eigval :     1451.21  1460.18  1461.37  1469.61  1477.16  1491.44
eigval :     1501.87  1548.71  1556.93  1562.74  1572.86  1603.88
eigval :     2935.78  2948.78  3024.82  3086.20  3088.02  3088.29
eigval :     3094.21  3095.66  3099.35  3101.86  3104.41  3106.10
eigval :     3119.88  3134.93  3138.71

   temp. (K)  partition function   enthalpy   heat capacity  entropy
                                   cal/mol     cal/K/mol   cal/K/mol   J/K/mol
 298.15  VIB  0.397E+08            11497.583     76.183     69.546
         ROT  0.132E+08              888.752      2.981     35.564
         INT  0.524E+15            12386.336     79.164    105.110
         TR   0.610E+28             1481.254      4.968     43.358
         TOT                       13867.5895    84.1324   148.4681   621.1905

       T/K    H(0)-H(T)+PV         H(T)/Eh          T*S/Eh         G(T)/Eh
   ------------------------------------------------------------------------
    298.15    0.220994E-01    0.323651E+00    0.705420E-01    0.253109E+00
   ------------------------------------------------------------------------

         :::::::::::::::::::::::::::::::::::::::::::::::::::::
         ::                  THERMODYNAMIC                  ::
         :::::::::::::::::::::::::::::::::::::::::::::::::::::
         :: total free energy         -69.616085055679 Eh   ::
         ::.................................................::
         :: total energy              -69.869193709520 Eh   ::
         :: zero point energy           0.301551228281 Eh   ::
         :: G(RRHO) w/o ZPVE           -0.048442574441 Eh   ::
         :: G(RRHO) contrib.            0.253108653840 Eh   ::
         :::::::::::::::::::::::::::::::::::::::::::::::::::::

           -------------------------------------------------
          | TOTAL ENERGY              -69.869193709520 Eh   |
          | TOTAL ENTHALPY            -69.545543070652 Eh   |
          | TOTAL FREE ENERGY         -69.616085055679 Eh   |
          | GRADIENT NORM               0.000088385156 Eh/α |
          | HOMO-LUMO GAP               0.594116337932 eV   |
           -------------------------------------------------

 * finished run on 2025/08/26 at 02:42:03.342
