   * xtb version 6.7.1 (edcfbbe) compiled by 'albert@albert-system' on 2024-07-22

   ID    Z sym.   atoms
    1    6 C      1, 3-5, 8-19, 21-26
    2    8 O      2, 6, 7
    3    7 N      20
    4    1 H      27-41

          program call               : xtb data2507/toluene/2CzMC/2CzMC.xyz --gfn 2 --gbsa toluene --ohess vtight --parallel 40 --molden --ceasefiles --namespace data2507/toluene/2CzMC/2CzMC_toluene_S0_preOpt
      * Solvation model:               GBSA
        Solvent                        toluene
        Solvent mass                       9.2140E+01 g/mol
          :  Hamiltonian                  GFN2-xTB          :
 * total energy  :   -69.9523856 Eh     change       -0.8274554E-09 Eh
 * total energy  :   -69.9628502 Eh     change       -0.1046464E-01 Eh
 * total energy  :   -69.9659372 Eh     change       -0.3086979E-02 Eh
 * total energy  :   -69.9663304 Eh     change       -0.3931745E-03 Eh
 * total energy  :   -69.9665686 Eh     change       -0.2382062E-03 Eh
 * total energy  :   -69.9666809 Eh     change       -0.1123373E-03 Eh
 * total energy  :   -69.9667726 Eh     change       -0.9175102E-04 Eh
 * total energy  :   -69.9668403 Eh     change       -0.6761947E-04 Eh
 * total energy  :   -69.9668843 Eh     change       -0.4407962E-04 Eh
 * total energy  :   -69.9669140 Eh     change       -0.2962605E-04 Eh
 * total energy  :   -69.9669481 Eh     change       -0.5957001E-05 Eh
 * total energy  :   -69.9669511 Eh     change       -0.2962132E-05 Eh
 * total energy  :   -69.9669525 Eh     change       -0.1370351E-05 Eh
 * total energy  :   -69.9669533 Eh     change       -0.8178659E-06 Eh
 * total energy  :   -69.9669539 Eh     change       -0.6293082E-06 Eh
 * total energy  :   -69.9669543 Eh     change       -0.3831102E-06 Eh
 * total energy  :   -69.9669542 Eh     change        0.6053570E-07 Eh
 * total energy  :   -69.9669545 Eh     change       -0.2347019E-06 Eh
 * total energy  :   -69.9669545 Eh     change       -0.6211120E-07 Eh
   *** GEOMETRY OPTIMIZATION CONVERGED AFTER 21 ITERATIONS ***

 final structure:
================
41
 xtb: 6.7.1 (edcfbbe)
C           -6.02813967106296        0.66627822208215       -0.03070065133709
O           -4.61285109440315        0.71209375591293       -0.02622516391959
C           -3.92437909639019       -0.43409025835807       -0.09010308884776
C           -4.46542910886614       -1.68263759572420       -0.16675492712650
C           -3.64968664157670       -2.85915237151511       -0.23445203785070
O           -4.07566810995775       -3.99901067324234       -0.30985336943722
O           -2.29335160813602       -2.70007506030710       -0.21207905773220
C           -1.71503144101265       -1.47102336973335       -0.12912424677371
C           -0.32786076336290       -1.43542724184724       -0.10432724334875
C            0.28591387457959       -0.19651558763971       -0.01107163133337
C           -0.47851024633711        1.00565528959186        0.02648758628202
C           -1.85479287021369        0.95349041997357       -0.00093156380170
C           -2.48680983017584       -0.29067866405105       -0.07012887323343
C            0.47045823907324        2.08429412231208        0.08705435293849
C            0.34325515534994        3.46560882462038        0.15814624674691
C            1.49161980666820        4.23025896179191        0.22750316358304
C            2.75064597875419        3.63383766854581        0.23991413541257
C            2.90100560230759        2.26090119762070        0.17023590852322
C            1.75192589944945        1.48955952358391        0.07951675692683
N            1.61864393611116        0.11187721589918        0.01858733241405
C            2.68190757062970       -0.81214635007671        0.00178286494115
C            3.70440199168676       -0.67787761172100       -0.93176375916865
C            4.75346824909989       -1.57975766848009       -0.93795139338111
C            4.78408587535647       -2.62144952836311       -0.02519447684568
C            3.76210252061863       -2.75861408712145        0.89995919158695
C            2.71401076945555       -1.85586886878693        0.92071109651478
H           -6.40461814838009        0.21778253058809       -0.95329703679259
H           -6.40594345086960        0.10737128343203        0.82891885831299
H           -6.35110314123262        1.70350343385467        0.03341051834862
H           -5.52641612720785       -1.86440619087446       -0.18467098457334
H            0.22653066691700       -2.35751094050744       -0.16450644056876
H           -2.45549878550145        1.84748947424392        0.02946226398328
H           -0.63283454435142        3.92565341868849        0.16201167229748
H            1.41693212345224        5.30613112858880        0.28075587019956
H            3.62977683998916        4.25737504517901        0.30822303062408
H            3.87960026074536        1.80712988319894        0.19546924665418
H            3.66619690828782        0.12435048014029       -1.65343983209368
H            5.54605223827908       -1.47205990374264       -1.66341239758425
H            5.60226760191754       -3.32573793460476       -0.03498773900000
H            3.78302849500480       -3.56789131524990        1.61473749404906
H            1.92509707530464       -1.94870765790193        1.65208732441086

          :  Hamiltonian                  GFN2-xTB          :
         :: gradient norm              0.000094198331 Eh/a0 ::
         :: HOMO-LUMO gap              2.520030808287 eV    ::
         :: SCC energy               -71.079411670541 Eh    ::
         :: -> dispersion             -0.050543632726 Eh    ::
         :: -> Gsolv                  -0.036065801782 Eh    ::
         :: repulsion energy           1.112457148736 Eh    ::

    * Orbital Energies and Occupations

         #    Occupation            Energy/Eh            Energy/eV
      -------------------------------------------------------------
         1        2.0000           -0.7517717             -20.4567
       ...           ...                  ...                  ...
        51        2.0000           -0.4525554             -12.3147
        52        2.0000           -0.4407874             -11.9944
        53        2.0000           -0.4368918             -11.8884
        54        2.0000           -0.4335528             -11.7976
        55        2.0000           -0.4300263             -11.7016
        56        2.0000           -0.4268332             -11.6147
        57        2.0000           -0.4248711             -11.5613
        58        2.0000           -0.4159738             -11.3192
        59        2.0000           -0.4150873             -11.2951
        60        2.0000           -0.4138787             -11.2622
        61        2.0000           -0.4065897             -11.0639
        62        2.0000           -0.3887365             -10.5781
        63        2.0000           -0.3739709             -10.1763 (HOMO)
        64                         -0.2813615              -7.6562 (LUMO)
        65                         -0.2568544              -6.9894
        66                         -0.2370461              -6.4504
        67                         -0.2342592              -6.3745
        68                         -0.2268048              -6.1717
        69                         -0.2113560              -5.7513
        70                         -0.1974810              -5.3737
        71                         -0.1489169              -4.0522
        72                         -0.1061528              -2.8886
        73                         -0.0918680              -2.4999
        74                         -0.0687931              -1.8720
       ...                                ...                  ...
       119                          0.7373449              20.0642
      -------------------------------------------------------------
                  HL-Gap            0.0926094 Eh            2.5200 eV

     #   Z          covCN         q      C6AA      α(0)
     1   6 C        3.645     0.021    20.552     6.515
     2   8 O        1.705    -0.239    17.955     5.721
     3   6 C        2.860     0.165    24.446     8.104
     4   6 C        2.901    -0.136    31.480     9.200
     5   6 C        2.718     0.339    21.235     7.543
     6   8 O        0.857    -0.482    23.382     6.483
     7   8 O        1.709    -0.255    18.216     5.763
     8   6 C        2.877     0.138    24.981     8.194
     9   6 C        2.907    -0.072    29.791     8.950
    10   6 C        3.073     0.056    26.674     8.468
    11   6 C        3.064    -0.015    28.321     8.727
    12   6 C        2.914    -0.029    28.734     8.790
    13   6 C        2.981    -0.035    28.875     8.814
    14   6 C        3.063    -0.013    28.274     8.720
    15   6 C        2.912    -0.031    28.769     8.795
    16   6 C        2.920    -0.038    28.946     8.823
    17   6 C        2.924    -0.030    28.757     8.794
    18   6 C        2.910    -0.047    29.171     8.856
    19   6 C        3.079     0.048    26.845     8.494
    20   7 N        2.801    -0.026    21.754     6.927
    21   6 C        2.913     0.060    26.649     8.465
    22   6 C        2.922    -0.040    28.997     8.831
    23   6 C        2.920    -0.026    28.660     8.779
    24   6 C        2.919    -0.030    28.753     8.793
    25   6 C        2.920    -0.026    28.653     8.778
    26   6 C        2.922    -0.041    29.016     8.833
    27   1 H        0.924     0.061     2.186     2.312
    28   1 H        0.924     0.061     2.187     2.312
    29   1 H        0.925     0.085     1.931     2.173
    30   1 H        0.926     0.063     2.164     2.300
    31   1 H        0.926     0.062     2.178     2.308
    32   1 H        0.926     0.071     2.079     2.255
    33   1 H        0.926     0.042     2.426     2.436
    34   1 H        0.926     0.038     2.476     2.461
    35   1 H        0.926     0.040     2.451     2.448
    36   1 H        0.926     0.040     2.443     2.444
    37   1 H        0.926     0.047     2.353     2.399
    38   1 H        0.926     0.045     2.382     2.413
    39   1 H        0.926     0.043     2.407     2.426
    40   1 H        0.926     0.043     2.405     2.425
    41   1 H        0.926     0.043     2.406     2.426

molecular dipole:
                 x           y           z       tot (Debye)
 q only:        1.681       2.835       0.195
   full:        1.473       2.711       0.196       7.858

 projected vibrational frequencies (cm⁻¹)
eigval :       -0.00    -0.00    -0.00     0.00     0.00     0.00
eigval :       26.86    46.42    53.43    60.66    75.00   116.69
eigval :      121.18   124.95   163.02   175.85   192.77   219.10
eigval :      231.02   235.21   249.47   266.83   293.03   346.90
eigval :      363.51   377.09   387.54   396.38   412.99   438.45
eigval :      461.94   483.57   514.86   536.81   541.17   560.52
eigval :      578.55   587.86   601.95   605.96   650.34   655.84
eigval :      667.87   671.05   701.45   702.61   710.08   735.72
eigval :      766.17   777.36   808.16   818.22   847.73   853.89
eigval :      867.76   872.62   883.23   904.45   909.19   919.12
eigval :      924.56   933.22   938.38   941.46   990.02   996.50
eigval :     1016.63  1067.64  1077.23  1102.04  1109.02  1113.88
eigval :     1127.11  1140.27  1148.72  1169.74  1175.63  1180.44
eigval :     1181.36  1193.20  1201.92  1232.04  1252.84  1264.37
eigval :     1273.18  1292.48  1314.78  1321.53  1350.21  1364.25
eigval :     1392.98  1395.29  1419.79  1429.39  1434.24  1451.69
eigval :     1464.88  1467.52  1477.95  1479.32  1544.72  1575.67
eigval :     1582.17  1583.53  1592.12  1595.51  1611.19  1674.33
eigval :     2961.33  2970.36  3034.01  3079.05  3079.70  3081.64
eigval :     3085.10  3089.43  3093.05  3093.60  3099.22  3099.69
eigval :     3116.58  3117.75  3132.83

   temp. (K)  partition function   enthalpy   heat capacity  entropy
                                   cal/mol     cal/K/mol   cal/K/mol   J/K/mol
 298.15  VIB  0.169E+08            11091.010     74.133     66.713
         ROT  0.132E+08              888.752      2.981     35.556
         INT  0.222E+15            11979.762     77.114    102.269
         TR   0.610E+28             1481.254      4.968     43.358
         TOT                       13461.0162    82.0819   145.6274   609.3048

       T/K    H(0)-H(T)+PV         H(T)/Eh          T*S/Eh         G(T)/Eh
   ------------------------------------------------------------------------
    298.15    0.214515E-01    0.327342E+00    0.691923E-01    0.258150E+00
   ------------------------------------------------------------------------

         :::::::::::::::::::::::::::::::::::::::::::::::::::::
         ::                  THERMODYNAMIC                  ::
         :::::::::::::::::::::::::::::::::::::::::::::::::::::
         :: total free energy         -69.708804288802 Eh   ::
         ::.................................................::
         :: total energy              -69.966954516763 Eh   ::
         :: zero point energy           0.305890986700 Eh   ::
         :: G(RRHO) w/o ZPVE           -0.047740758739 Eh   ::
         :: G(RRHO) contrib.            0.258150227962 Eh   ::
         :::::::::::::::::::::::::::::::::::::::::::::::::::::

           -------------------------------------------------
          | TOTAL ENERGY              -69.966954516763 Eh   |
          | TOTAL ENTHALPY            -69.639612035339 Eh   |
          | TOTAL FREE ENERGY         -69.708804288802 Eh   |
          | GRADIENT NORM               0.000094195743 Eh/α |
          | HOMO-LUMO GAP               2.520031062192 eV   |
           -------------------------------------------------

 * finished run on 2025/08/26 at 02:40:52.880
