   * xtb version 6.7.1 (edcfbbe) compiled by 'albert@albert-system' on 2024-07-22

   ID    Z sym.   atoms
    1    6 C      1, 3-5, 8-19, 21-26
    2    8 O      2, 6, 7
    3    7 N      20
    4    1 H      27-41

          program call               : xtb data2507/toluene/2CzMC/2CzMC_toluene_S0_crest.xyz --gfn 2 --gbsa toluene --ohess vtight --parallel 40 --molden --ceasefiles --namespace data2507/toluene/2CzMC/2CzMC_toluene_S0_finalOpt
      * Solvation model:               GBSA
        Solvent                        toluene
        Solvent mass                       9.2140E+01 g/mol
          :  Hamiltonian                  GFN2-xTB          :
 * total energy  :   -69.9667816 Eh     change       -0.7056258E-09 Eh
 * total energy  :   -69.9668753 Eh     change       -0.9370225E-04 Eh
 * total energy  :   -69.9669056 Eh     change       -0.3036522E-04 Eh
 * total energy  :   -69.9669081 Eh     change       -0.2517471E-05 Eh
 * total energy  :   -69.9669097 Eh     change       -0.1607197E-05 Eh
 * total energy  :   -69.9669114 Eh     change       -0.1638379E-05 Eh
 * total energy  :   -69.9669136 Eh     change       -0.2174967E-05 Eh
 * total energy  :   -69.9669151 Eh     change       -0.1522869E-05 Eh
 * total energy  :   -69.9669157 Eh     change       -0.6515888E-06 Eh
 * total energy  :   -69.9669160 Eh     change       -0.2607124E-06 Eh
 * total energy  :   -69.9669162 Eh     change       -0.2331865E-06 Eh
 * total energy  :   -69.9669165 Eh     change       -0.2497788E-06 Eh
 * total energy  :   -69.9669167 Eh     change       -0.2015924E-06 Eh
 * total energy  :   -69.9669169 Eh     change       -0.1953710E-06 Eh
 * total energy  :   -69.9669170 Eh     change       -0.1718102E-06 Eh
 * total energy  :   -69.9669171 Eh     change       -0.9566224E-07 Eh
   *** GEOMETRY OPTIMIZATION CONVERGED AFTER 16 ITERATIONS ***

 final structure:
================
41
 xtb: 6.7.1 (edcfbbe)
C           -5.61784994487202        1.85336762907119        0.01470404648170
O           -4.21464352828925        1.66318375943429        0.00327442965775
C           -3.72712229487203        0.41668462888813        0.02536016842584
C           -4.46944253512682       -0.72578472916356        0.06044444266626
C           -3.86218830713611       -2.02381834417192        0.08316171690870
O           -4.47297397765195       -3.07850218819391        0.11574554638881
O           -2.49837085993543       -2.09280785224222        0.06674908611425
C           -1.72239501267469       -0.97551279658967        0.03028409747034
C           -0.34861062069743       -1.17159927554046        0.01604898742642
C            0.46429875891762       -0.05028837595716       -0.02687662400458
C           -0.08806816603084        1.26349849018277       -0.03054667410542
C           -1.45411480118660        1.44124663606016       -0.01515087002157
C           -2.28565007980422        0.31861136542006        0.00964916068871
C            1.02892414168301        2.16916001051848       -0.04010465911272
C            1.13669101194949        3.55377207025073       -0.06181972476221
C            2.39810558321541        4.11632675672619       -0.08568474114845
C            3.53964863447532        3.31776672454075       -0.10085033642384
C            3.45640379253451        1.93755173900314       -0.07953130186390
C            2.19263519140099        1.36803850288987       -0.03531637188046
N            1.82999739643639        0.03124049175121       -0.02703241271249
C            2.72238284501942       -1.05899122576571       -0.01275300343704
C            2.61317474410044       -2.06171525035753       -0.97035203882606
C            3.48979589915478       -3.13173320275913       -0.94876918280130
C            4.48100399653508       -3.20276332927397        0.01652252278007
C            4.59242144772965       -2.20097477463627        0.96689836007732
C            3.71451377505223       -1.13180226267239        0.95929407878194
H           -6.08308331345290        1.39995134272688       -0.86401341109962
H           -6.06396750754032        1.43694066771643        0.92115342955813
H           -5.76395147462377        2.93152047778365       -0.00611344941964
H           -5.54594141149273       -0.72826793790097        0.07371608100895
H            0.04334177052974       -2.17488549227254        0.04668474048653
H           -1.89706169578694        2.42351765647367       -0.01822724846762
H            0.25199534963751        4.17156076740788       -0.06333394263410
H            2.50556174747317        5.19062927191006       -0.10066615781728
H            4.51180354819949        3.78702646300894       -0.13275596147653
H            4.34515522460471        1.32614391427060       -0.10551978943358
H            1.84948465835655       -1.99262913615907       -1.73061933140512
H            3.40117418866386       -3.90922823508447       -1.69294185744210
H            5.16547867115957       -4.03757172573231        0.02787331498038
H            5.36143344695670       -2.25505824941635        1.72306142614973
H            3.78504102698866       -0.35772888604546        1.70878087794367

          :  Hamiltonian                  GFN2-xTB          :
         :: gradient norm              0.000050200712 Eh/a0 ::
         :: HOMO-LUMO gap              2.522144884520 eV    ::
         :: SCC energy               -71.079447338266 Eh    ::
         :: -> dispersion             -0.050533637755 Eh    ::
         :: -> Gsolv                  -0.036035394154 Eh    ::
         :: repulsion energy           1.112530193285 Eh    ::

    * Orbital Energies and Occupations

         #    Occupation            Energy/Eh            Energy/eV
      -------------------------------------------------------------
         1        2.0000           -0.7517731             -20.4568
       ...           ...                  ...                  ...
        51        2.0000           -0.4525164             -12.3136
        52        2.0000           -0.4408464             -11.9960
        53        2.0000           -0.4368336             -11.8868
        54        2.0000           -0.4335932             -11.7987
        55        2.0000           -0.4299854             -11.7005
        56        2.0000           -0.4268340             -11.6147
        57        2.0000           -0.4248655             -11.5612
        58        2.0000           -0.4160749             -11.3220
        59        2.0000           -0.4151572             -11.2970
        60        2.0000           -0.4138612             -11.2617
        61        2.0000           -0.4065753             -11.0635
        62        2.0000           -0.3887132             -10.5774
        63        2.0000           -0.3740139             -10.1774 (HOMO)
        64                         -0.2813267              -7.6553 (LUMO)
        65                         -0.2567710              -6.9871
        66                         -0.2371274              -6.4526
        67                         -0.2343574              -6.3772
        68                         -0.2267621              -6.1705
        69                         -0.2113826              -5.7520
        70                         -0.1975335              -5.3752
        71                         -0.1489041              -4.0519
        72                         -0.1062111              -2.8902
        73                         -0.0920053              -2.5036
        74                         -0.0687862              -1.8718
       ...                                ...                  ...
       119                          0.7373345              20.0639
      -------------------------------------------------------------
                  HL-Gap            0.0926871 Eh            2.5221 eV

     #   Z          covCN         q      C6AA      α(0)
     1   6 C        3.646     0.021    20.551     6.515
     2   8 O        1.705    -0.239    17.955     5.721
     3   6 C        2.860     0.165    24.446     8.104
     4   6 C        2.901    -0.136    31.481     9.200
     5   6 C        2.718     0.339    21.235     7.543
     6   8 O        0.857    -0.482    23.384     6.483
     7   8 O        1.709    -0.255    18.216     5.762
     8   6 C        2.877     0.138    24.981     8.194
     9   6 C        2.907    -0.072    29.791     8.950
    10   6 C        3.074     0.056    26.673     8.468
    11   6 C        3.064    -0.015    28.321     8.727
    12   6 C        2.914    -0.029    28.734     8.790
    13   6 C        2.981    -0.035    28.876     8.815
    14   6 C        3.063    -0.013    28.275     8.720
    15   6 C        2.912    -0.031    28.769     8.795
    16   6 C        2.920    -0.038    28.947     8.823
    17   6 C        2.924    -0.030    28.757     8.794
    18   6 C        2.910    -0.047    29.170     8.856
    19   6 C        3.079     0.048    26.844     8.494
    20   7 N        2.801    -0.027    21.758     6.928
    21   6 C        2.914     0.060    26.649     8.465
    22   6 C        2.922    -0.041    29.011     8.833
    23   6 C        2.920    -0.026    28.652     8.778
    24   6 C        2.919    -0.030    28.750     8.793
    25   6 C        2.920    -0.026    28.659     8.779
    26   6 C        2.922    -0.040    28.992     8.830
    27   1 H        0.924     0.061     2.186     2.312
    28   1 H        0.924     0.061     2.187     2.313
    29   1 H        0.925     0.085     1.931     2.173
    30   1 H        0.926     0.063     2.164     2.300
    31   1 H        0.926     0.062     2.180     2.309
    32   1 H        0.926     0.071     2.079     2.255
    33   1 H        0.926     0.042     2.427     2.436
    34   1 H        0.926     0.038     2.477     2.461
    35   1 H        0.926     0.040     2.451     2.448
    36   1 H        0.926     0.040     2.446     2.446
    37   1 H        0.926     0.043     2.404     2.425
    38   1 H        0.926     0.043     2.403     2.424
    39   1 H        0.926     0.043     2.405     2.425
    40   1 H        0.926     0.045     2.381     2.413
    41   1 H        0.926     0.047     2.355     2.400

molecular dipole:
                 x           y           z       tot (Debye)
 q only:        2.134       2.511      -0.060
   full:        1.910       2.424      -0.065       7.845

 projected vibrational frequencies (cm⁻¹)
eigval :       -0.00     0.00     0.00     0.00     0.00     0.00
eigval :       24.85    43.18    51.97    53.39    71.55   116.66
eigval :      119.21   123.24   163.65   175.87   190.48   218.91
eigval :      228.95   236.71   248.99   266.77   293.24   346.67
eigval :      358.87   377.88   386.79   396.07   410.70   433.76
eigval :      461.00   482.30   514.31   536.14   537.02   560.57
eigval :      577.51   587.85   602.21   605.41   650.41   654.17
eigval :      667.11   669.54   700.03   701.43   707.84   735.51
eigval :      761.17   775.60   807.11   818.27   845.76   853.88
eigval :      866.29   871.78   881.03   902.72   906.91   919.34
eigval :      923.36   931.07   931.62   941.26   989.82   996.81
eigval :     1016.84  1068.81  1077.88  1102.46  1112.52  1114.78
eigval :     1127.89  1139.35  1147.53  1170.15  1176.67  1178.02
eigval :     1182.58  1193.84  1202.57  1232.64  1253.58  1264.86
eigval :     1273.62  1292.45  1314.73  1321.43  1349.88  1364.38
eigval :     1392.26  1395.16  1419.96  1429.48  1433.49  1452.12
eigval :     1465.51  1468.09  1478.35  1479.35  1544.59  1575.39
eigval :     1581.99  1583.39  1592.20  1595.40  1610.96  1674.07
eigval :     2960.80  2969.72  3034.54  3079.34  3079.92  3081.52
eigval :     3086.29  3088.84  3092.93  3094.63  3098.97  3099.95
eigval :     3116.63  3118.39  3132.27

   temp. (K)  partition function   enthalpy   heat capacity  entropy
                                   cal/mol     cal/K/mol   cal/K/mol   J/K/mol
 298.15  VIB  0.242E+08            11137.869     73.981     67.073
         ROT  0.132E+08              888.752      2.981     35.556
         INT  0.319E+15            12026.621     76.961    102.629
         TR   0.610E+28             1481.254      4.968     43.358
         TOT                       13507.8754    81.9296   145.9874   610.8111

       T/K    H(0)-H(T)+PV         H(T)/Eh          T*S/Eh         G(T)/Eh
   ------------------------------------------------------------------------
    298.15    0.215262E-01    0.327253E+00    0.693633E-01    0.257890E+00
   ------------------------------------------------------------------------

         :::::::::::::::::::::::::::::::::::::::::::::::::::::
         ::                  THERMODYNAMIC                  ::
         :::::::::::::::::::::::::::::::::::::::::::::::::::::
         :: total free energy         -69.709027509543 Eh   ::
         ::.................................................::
         :: total energy              -69.966917148582 Eh   ::
         :: zero point energy           0.305726776211 Eh   ::
         :: G(RRHO) w/o ZPVE           -0.047837137172 Eh   ::
         :: G(RRHO) contrib.            0.257889639039 Eh   ::
         :::::::::::::::::::::::::::::::::::::::::::::::::::::

           -------------------------------------------------
          | TOTAL ENERGY              -69.966917148582 Eh   |
          | TOTAL ENTHALPY            -69.639664202717 Eh   |
          | TOTAL FREE ENERGY         -69.709027509543 Eh   |
          | GRADIENT NORM               0.000050230052 Eh/α |
          | HOMO-LUMO GAP               2.522145304343 eV   |
           -------------------------------------------------

 * finished run on 2025/08/26 at 02:42:01.665
