   * xtb version 6.7.1 (edcfbbe) compiled by 'albert@albert-system' on 2024-07-22

   ID    Z sym.   atoms
    1    7 N      1, 4, 14, 38, 57, 60
    2    6 C      2, 3, 5-13, 15-37, 39-56, 58, 59
    3    1 H      61-94

          program call               : xtb data2507/toluene/TPA-DCPP/TPA-DCPP_toluene_T1_crest.xyz --gfn 2 --uhf 2 --gbsa toluene --ohess vtight --parallel 40 --molden --ceasefiles --namespace data2507/toluene/TPA-DCPP/TPA-DCPP_toluene_T1_finalOpt
      * Solvation model:               GBSA
        Solvent                        toluene
        Solvent mass                       9.2140E+01 g/mol
          :  Hamiltonian                  GFN2-xTB          :
 * total energy  :  -150.4820297 Eh     change       -0.5903189E-09 Eh
 * total energy  :  -150.4823218 Eh     change       -0.2920217E-03 Eh
 * total energy  :  -150.4824564 Eh     change       -0.1346420E-03 Eh
 * total energy  :  -150.4824563 Eh     change        0.1484596E-06 Eh
 * total energy  :  -150.4825108 Eh     change       -0.5459230E-04 Eh
 * total energy  :  -150.4825023 Eh     change        0.8575722E-05 Eh
 * total energy  :  -150.4825250 Eh     change       -0.2268616E-04 Eh
 * total energy  :  -150.4825277 Eh     change       -0.2770766E-05 Eh
 * total energy  :  -150.4825315 Eh     change       -0.3753887E-05 Eh
 * total energy  :  -150.4825343 Eh     change       -0.2772429E-05 Eh
 * total energy  :  -150.4825856 Eh     change       -0.1939297E-06 Eh
 * total energy  :  -150.4825859 Eh     change       -0.2187491E-06 Eh
 * total energy  :  -150.4825861 Eh     change       -0.2039660E-06 Eh
 * total energy  :  -150.4825862 Eh     change       -0.1826836E-06 Eh
 * total energy  :  -150.4825864 Eh     change       -0.1993708E-06 Eh
 * total energy  :  -150.4825866 Eh     change       -0.1815170E-06 Eh
 * total energy  :  -150.4825867 Eh     change       -0.1003582E-06 Eh
 * total energy  :  -150.4825868 Eh     change       -0.1102971E-06 Eh
 * total energy  :  -150.4825868 Eh     change       -0.1434526E-07 Eh
   *** GEOMETRY OPTIMIZATION CONVERGED AFTER 58 ITERATIONS ***

 final structure:
================
94
 xtb: 6.7.1 (edcfbbe)
N            1.85176869840459       10.09078074213223        0.11602876026002
C            1.32976274868113        9.06377235490219        0.08010085599547
C            0.66385503345996        7.83106273317180        0.03730198865089
N            1.35817799441833        6.69002265316709        0.05713856961072
C            0.67783433012943        5.52610528047724        0.02349128666845
C            1.39498348841098        4.29496381764227        0.03236196951127
C            2.80205439927578        4.30704541725461        0.06513194918156
C            3.51996741854757        3.14399498801341        0.06617892431735
C            2.85770359144437        1.90259840869875        0.02378427618769
C            3.61570073755434        0.65012354507097        0.00799581287676
C            4.78460910083743        0.50500540650301        0.76029192983555
C            5.49494597217756       -0.67485483407424        0.75337074289936
C            5.06369849346653       -1.75740265800377       -0.02002060016000
N            5.77868221144887       -2.95318904388288       -0.03432224507979
C            7.17494331125852       -2.93969161978651        0.04908839645492
C            7.84889609775948       -3.93050302040333        0.76594898691058
C            9.22798089554692       -3.91556654788652        0.84057123350674
C            9.95439249116205       -2.91681016748453        0.21028217862683
C            9.28952493408384       -1.92976177591372       -0.50119571857122
C            7.91108990206075       -1.93796975859003       -0.58720190675776
C            5.09911722592237       -4.17248496886783       -0.13815110475656
C            3.88116966284509       -4.35880424798267        0.51893974177234
C            3.21219868811237       -5.56241357351015        0.41163668637344
C            3.74509273730427       -6.59626403785553       -0.34304101210349
C            4.95583768598495       -6.41709290223488       -0.99448657901443
C            5.63124227395738       -5.21597025655455       -0.89794705315586
C            3.89869754895980       -1.61704635056245       -0.78099325812420
C            3.18998656304516       -0.43705935058508       -0.76096000592470
C            1.47308604927345        1.88524028821541       -0.00358928258163
C            0.70683906092824        3.05500745098997        0.00621037334162
C           -0.73689528317610        3.04685278419733       -0.00821715793174
C           -1.48997379490500        1.86854497670238       -0.00086258168444
C           -2.87482319691113        1.87038928792693       -0.02501218896834
C           -3.61920668742439        0.60983293482122       -0.00945601684329
C           -3.17734359076728       -0.47572244853478        0.75277797820931
C           -3.87422814624554       -1.66268803991379        0.77410478466461
C           -5.04366388662239       -1.81206429243486        0.02167037666045
N           -5.74723589055782       -3.01450757452542        0.03802999208137
C           -7.14414813404222       -3.01419549984963       -0.03531623098724
C           -7.88546302351946       -2.02126280305996        0.60868011465898
C           -9.26451561596147       -2.02669347207957        0.53289572450753
C           -9.92477489270317       -3.01870167190229       -0.17595600579296
C           -9.19316078763616       -4.00860124767783       -0.81414905432277
C           -7.81349874211701       -4.00991645396235       -0.74968744370143
C           -5.05567543079853       -4.22767566054460        0.13460645135412
C           -5.57263147042801       -5.27747917010310        0.89618040770431
C           -4.88545482678202       -6.47246402817496        0.98552853575824
C           -3.67790564858614       -6.63923293880451        0.32492646753994
C           -3.16004526161108       -5.59905820885781       -0.43153308236217
C           -3.84084742045202       -4.40147071323216       -0.53162518008771
C           -5.49094152526110       -0.73136186128726       -0.74521565162440
C           -4.79208170262096        0.45529296634246       -0.75377919527204
C           -3.55087143205436        3.10458074136268       -0.06257384807239
C           -2.84599155488093        4.27552314956389       -0.06080392597754
C           -1.43881216260680        4.27912166040508       -0.03067429442007
C           -0.73551712809767        5.51812053436956       -0.01997241947430
N           -1.42902757235869        6.67440060053608       -0.05109131771160
C           -0.74767262674111        7.82309183706127       -0.02855624531856
C           -1.42793370437816        9.04807459956213       -0.06856650053497
N           -1.96263011008443       10.06862400666369       -0.10147773414124
H            3.29336751597992        5.26857732664202        0.08339031935663
H            4.59899120486822        3.17667973319791        0.06909997306634
H            5.11930728847561        1.31985143097822        1.38434290302683
H            6.38187257814830       -0.77530921545386        1.36121763906738
H            7.28379789945949       -4.70027316794006        1.27028370291587
H            9.73894019947263       -4.68354316727501        1.40199065168418
H           11.03188961964071       -2.90741667292781        0.27290083894972
H            9.84888115798679       -1.15286184266574       -1.00093561145764
H            7.39577955218862       -1.17840051229563       -1.15630441806587
H            3.47420143970246       -3.55935059286477        1.12015804747984
H            2.27361928502154       -5.69698272661339        0.92836852946996
H            3.22069423330354       -7.53629910208633       -0.42289034492758
H            5.37372447513812       -7.21571518713335       -1.58912871456543
H            6.56693831693745       -5.07251927393195       -1.41766750253422
H            3.56824518355922       -2.43635993505257       -1.40200192614062
H            2.31097513684254       -0.33880892164969       -1.37978978419743
H            0.97923830548976        0.92738807802040       -0.00932425055093
H           -0.98525810760841        0.91635652142217        0.00086182074306
H           -2.29499647427747       -0.37105407444793        1.36575960935483
H           -3.53115531133639       -2.48052651769195        1.39017285749679
H           -7.37358868977354       -1.25781607114377        1.17568814620997
H           -9.82787438308393       -1.25650681348602        1.03849239133639
H          -11.00275730507790       -3.02002687676838       -0.23035048823748
H           -9.70058947005129       -4.78056906334270       -1.37329683758561
H           -7.24448493103547       -4.77282637939499       -1.26000266225270
H           -6.50581746801573       -5.14377869058083        1.42298651350543
H           -5.29176695638560       -7.27608920464080        1.58145271863026
H           -3.14435035893218       -7.57457230669051        0.39904493882606
H           -2.22394631584430       -5.72391508222067       -0.95516835719715
H           -3.44566535461912       -3.59712528035803       -1.13419715179381
H           -6.38134661722595       -0.83841961569401       -1.34681712899168
H           -5.13938299488996        1.26850101204547       -1.37301464729440
H           -4.63018074585819        3.12557567391402       -0.06236849174195
H           -3.34799653573514        5.23154432808278       -0.07600507643857

          :  Hamiltonian                  GFN2-xTB          :
         :: gradient norm              0.000189912158 Eh/a0 ::
         :: HOMO-LUMO gap              0.115295909954 eV    ::
         :: SCC energy              -153.339465624547 Eh    ::
         :: -> dispersion             -0.132496259065 Eh    ::
         :: -> Gsolv                  -0.091527629860 Eh    ::
         :: repulsion energy           2.856878775971 Eh    ::

    * Orbital Energies and Occupations

         #    Occupation            Energy/Eh            Energy/eV
      -------------------------------------------------------------
         1        2.0000           -0.6828056             -18.5801
       ...           ...                  ...                  ...
       129        2.0000           -0.4184069             -11.3854
       130        2.0000           -0.4167771             -11.3411
       131        2.0000           -0.4166588             -11.3379
       132        2.0000           -0.4165427             -11.3347
       133        2.0000           -0.4160462             -11.3212
       134        2.0000           -0.4134041             -11.2493
       135        2.0000           -0.4035377             -10.9808
       136        2.0000           -0.3913374             -10.6488
       137        2.0000           -0.3892823             -10.5929
       138        1.8342           -0.3642743              -9.9124
       139        1.6044           -0.3631417              -9.8816
       140        1.5614           -0.3629736              -9.8770
       141        0.9029           -0.2998293              -8.1588 (HOMO)
       142        0.0971           -0.2955922              -8.0435 (LUMO)
       143                         -0.2612697              -7.1095
       144                         -0.2523330              -6.8663
       145                         -0.2509113              -6.8276
       146                         -0.2437468              -6.6327
       147                         -0.2437341              -6.6323
       148                         -0.2391054              -6.5064
       149                         -0.2391028              -6.5063
       150                         -0.2338316              -6.3629
       151                         -0.2335134              -6.3542
       152                         -0.2331763              -6.3451
       ...                                ...                  ...
       274                          1.1638632              31.6703
      -------------------------------------------------------------
                  HL-Gap            0.0042371 Eh            0.1153 eV

     #   Z          covCN         q      C6AA      α(0)
     1   7 N        0.911    -0.290    27.464     7.579
     2   6 C        1.912     0.105    28.506     8.623
     3   6 C        2.942     0.092    25.948     8.355
     4   7 N        1.849    -0.289    28.335     7.889
     5   6 C        2.950     0.081    26.182     8.392
     6   6 C        2.987    -0.014    28.353     8.735
     7   6 C        2.919    -0.030    28.747     8.792
     8   6 C        2.919    -0.037    28.928     8.820
     9   6 C        2.973     0.009    27.808     8.650
    10   6 C        2.976     0.011    27.758     8.642
    11   6 C        2.923    -0.031    28.765     8.795
    12   6 C        2.919    -0.043    29.063     8.840
    13   6 C        2.925     0.063    26.586     8.456
    14   7 N        2.752    -0.039    22.002     6.967
    15   6 C        2.925     0.064    26.570     8.453
    16   6 C        2.921    -0.042    29.045     8.838
    17   6 C        2.919    -0.026    28.653     8.778
    18   6 C        2.919    -0.031    28.767     8.795
    19   6 C        2.919    -0.026    28.651     8.778
    20   6 C        2.921    -0.042    29.044     8.838
    21   6 C        2.925     0.064    26.575     8.454
    22   6 C        2.921    -0.042    29.043     8.838
    23   6 C        2.919    -0.026    28.656     8.778
    24   6 C        2.919    -0.031    28.770     8.796
    25   6 C        2.919    -0.026    28.652     8.778
    26   6 C        2.921    -0.042    29.035     8.836
    27   6 C        2.919    -0.043    29.072     8.842
    28   6 C        2.923    -0.032    28.792     8.799
    29   6 C        2.927    -0.041    29.020     8.834
    30   6 C        2.975    -0.002    28.083     8.693
    31   6 C        2.975    -0.003    28.083     8.693
    32   6 C        2.926    -0.041    29.020     8.834
    33   6 C        2.973     0.009    27.809     8.650
    34   6 C        2.975     0.011    27.759     8.642
    35   6 C        2.923    -0.032    28.792     8.799
    36   6 C        2.919    -0.043    29.072     8.842
    37   6 C        2.925     0.063    26.586     8.456
    38   7 N        2.752    -0.039    22.001     6.966
    39   6 C        2.925     0.064    26.570     8.453
    40   6 C        2.921    -0.042    29.044     8.838
    41   6 C        2.919    -0.026    28.651     8.778
    42   6 C        2.919    -0.031    28.766     8.795
    43   6 C        2.919    -0.026    28.653     8.778
    44   6 C        2.921    -0.042    29.044     8.838
    45   6 C        2.925     0.064    26.575     8.454
    46   6 C        2.921    -0.042    29.035     8.836
    47   6 C        2.919    -0.026    28.652     8.778
    48   6 C        2.919    -0.031    28.769     8.796
    49   6 C        2.919    -0.026    28.655     8.778
    50   6 C        2.921    -0.042    29.043     8.838
    51   6 C        2.919    -0.043    29.063     8.841
    52   6 C        2.923    -0.031    28.765     8.795
    53   6 C        2.919    -0.037    28.928     8.820
    54   6 C        2.919    -0.030    28.748     8.792
    55   6 C        2.987    -0.014    28.353     8.735
    56   6 C        2.950     0.081    26.183     8.393
    57   7 N        1.849    -0.289    28.335     7.889
    58   6 C        2.942     0.092    25.947     8.354
    59   6 C        1.912     0.105    28.505     8.622
    60   7 N        0.911    -0.289    27.461     7.579
    61   1 H        0.926     0.039     2.456     2.451
    62   1 H        0.926     0.040     2.443     2.444
    63   1 H        0.926     0.044     2.396     2.421
    64   1 H        0.926     0.044     2.395     2.420
    65   1 H        0.926     0.043     2.409     2.427
    66   1 H        0.926     0.043     2.405     2.425
    67   1 H        0.926     0.041     2.432     2.439
    68   1 H        0.926     0.042     2.420     2.433
    69   1 H        0.926     0.042     2.425     2.435
    70   1 H        0.926     0.043     2.412     2.429
    71   1 H        0.926     0.045     2.389     2.417
    72   1 H        0.926     0.042     2.417     2.431
    73   1 H        0.926     0.043     2.410     2.428
    74   1 H        0.926     0.042     2.426     2.435
    75   1 H        0.926     0.046     2.372     2.408
    76   1 H        0.926     0.046     2.366     2.406
    77   1 H        0.926     0.048     2.340     2.392
    78   1 H        0.926     0.048     2.339     2.392
    79   1 H        0.926     0.046     2.366     2.406
    80   1 H        0.926     0.046     2.372     2.408
    81   1 H        0.926     0.042     2.425     2.435
    82   1 H        0.926     0.042     2.420     2.433
    83   1 H        0.926     0.041     2.432     2.439
    84   1 H        0.926     0.043     2.405     2.425
    85   1 H        0.926     0.043     2.409     2.427
    86   1 H        0.926     0.042     2.426     2.435
    87   1 H        0.926     0.043     2.410     2.427
    88   1 H        0.926     0.042     2.417     2.431
    89   1 H        0.926     0.045     2.389     2.417
    90   1 H        0.926     0.043     2.412     2.428
    91   1 H        0.926     0.044     2.396     2.420
    92   1 H        0.926     0.044     2.396     2.421
    93   1 H        0.926     0.040     2.443     2.444
    94   1 H        0.926     0.039     2.456     2.451

molecular dipole:
                 x           y           z       tot (Debye)
 q only:        0.072     -13.760      -0.005
   full:        0.075     -14.061      -0.005      35.739

 projected vibrational frequencies (cm⁻¹)
eigval :       -0.00    -0.00     0.00     0.00     0.00     0.00
eigval :        5.79     8.25    10.59    13.45    17.12    20.75
eigval :       29.66    37.51    40.31    45.01    45.66    53.57
eigval :       54.27    63.18    63.33    70.41    72.69    76.90
eigval :       89.73    94.71    95.51    99.13   105.51   109.44
eigval :      136.79   147.24   147.73   152.45   158.26   193.39
eigval :      203.46   209.37   226.93   230.46   233.28   242.27
eigval :      257.54   258.40   297.30   297.62   312.92   315.45
eigval :      326.86   327.65   338.92   340.35   371.88   373.27
eigval :      376.45   376.68   377.66   378.77   383.38   383.90
eigval :      387.93   391.19   400.24   413.60   415.64   423.35
eigval :      431.30   448.22   461.19   466.54   473.45   487.26
eigval :      491.52   493.53   496.95   512.38   519.72   533.98
eigval :      542.83   557.54   574.50   582.09   583.09   584.46
eigval :      587.42   592.71   593.06   598.84   600.39   602.20
eigval :      611.89   616.28   626.18   638.94   642.21   650.30
eigval :      658.83   659.22   663.09   665.35   675.81   685.85
eigval :      690.36   693.79   694.38   718.54   723.39   754.21
eigval :      756.40   756.50   758.39   765.43   767.39   808.81
eigval :      808.82   831.35   832.05   836.97   851.85   862.00
eigval :      864.29   865.93   869.53   869.87   870.56   871.72
eigval :      874.03   896.10   896.29   896.72   897.60   908.28
eigval :      908.85   908.89   917.15   917.45   920.78   921.18
eigval :      925.41   925.80   926.05   926.51   927.10   927.60
eigval :      928.81   929.07   929.56   929.70   930.65   933.98
eigval :      979.89   982.86  1002.25  1002.28  1003.99  1015.23
eigval :     1034.14  1052.22  1075.94  1079.59  1079.70  1080.46
eigval :     1080.56  1090.05  1120.10  1120.21  1122.19  1122.34
eigval :     1139.70  1142.19  1144.11  1147.40  1160.28  1160.77
eigval :     1175.77  1176.68  1177.59  1178.01  1178.03  1179.97
eigval :     1190.46  1190.83  1192.11  1192.67  1210.13  1212.87
eigval :     1220.43  1221.68  1255.30  1260.93  1268.00  1269.45
eigval :     1273.06  1273.49  1273.68  1274.06  1278.21  1285.77
eigval :     1294.72  1297.77  1298.60  1310.79  1312.36  1313.51
eigval :     1313.88  1320.59  1323.49  1323.59  1323.63  1327.89
eigval :     1336.11  1372.57  1376.51  1393.09  1403.25  1409.18
eigval :     1414.10  1424.26  1430.99  1431.39  1437.42  1437.66
eigval :     1453.19  1454.46  1457.70  1457.87  1458.54  1458.96
eigval :     1479.20  1488.06  1498.13  1519.88  1538.57  1538.78
eigval :     1555.29  1560.19  1567.46  1567.47  1571.13  1571.23
eigval :     1580.59  1580.61  1582.89  1584.54  1590.84  1591.75
eigval :     2270.08  2298.85  3079.51  3079.57  3079.92  3080.00
eigval :     3080.88  3080.91  3081.49  3081.62  3082.60  3082.70
eigval :     3084.15  3084.30  3085.13  3085.30  3088.50  3088.56
eigval :     3089.36  3089.43  3091.77  3091.79  3092.64  3092.67
eigval :     3094.07  3094.51  3095.08  3095.31  3096.81  3097.27
eigval :     3099.10  3099.32  3099.46  3099.81  3103.20  3112.94

   temp. (K)  partition function   enthalpy   heat capacity  entropy
                                   cal/mol     cal/K/mol   cal/K/mol   J/K/mol
 298.15  VIB  0.268E+25            29112.599    178.340    185.413
         ROT  0.132E+09              888.752      2.981     40.140
         INT  0.354E+33            30001.351    181.320    225.553
         TR   0.205E+29             1481.254      4.968     45.770
         TOT                       31482.6053   186.2886   271.3226  1135.2136

       T/K    H(0)-H(T)+PV         H(T)/Eh          T*S/Eh         G(T)/Eh
   ------------------------------------------------------------------------
    298.15    0.501707E-01    0.752250E+00    0.128914E+00    0.623336E+00
   ------------------------------------------------------------------------

         :::::::::::::::::::::::::::::::::::::::::::::::::::::
         ::                  THERMODYNAMIC                  ::
         :::::::::::::::::::::::::::::::::::::::::::::::::::::
         :: total free energy        -149.859250939419 Eh   ::
         ::.................................................::
         :: total energy             -150.482586845240 Eh   ::
         :: zero point energy           0.702079280173 Eh   ::
         :: G(RRHO) w/o ZPVE           -0.078743374352 Eh   ::
         :: G(RRHO) contrib.            0.623335905821 Eh   ::
         :::::::::::::::::::::::::::::::::::::::::::::::::::::

           -------------------------------------------------
          | TOTAL ENERGY             -150.482586845240 Eh   |
          | TOTAL ENTHALPY           -149.730336839961 Eh   |
          | TOTAL FREE ENERGY        -149.859250939419 Eh   |
          | GRADIENT NORM               0.000187971010 Eh/α |
          | HOMO-LUMO GAP               0.115296990207 eV   |
           -------------------------------------------------

 * finished run on 2025/07/17 at 01:53:21.383
