   * xtb version 6.7.1 (edcfbbe) compiled by 'albert@albert-system' on 2024-07-22

   ID    Z sym.   atoms
    1    7 N      1, 4, 14, 38, 57, 60
    2    6 C      2, 3, 5-13, 15-37, 39-56, 58, 59
    3    1 H      61-94

          program call               : xtb data2507/toluene/TPA-DCPP/TPA-DCPP_toluene_S0_finalOpt.xtbopt.xyz --gfn 2 --uhf 2 --gbsa toluene --ohess vtight --parallel 40 --molden --ceasefiles --namespace data2507/toluene/TPA-DCPP/TPA-DCPP_toluene_T1_preOpt
      * Solvation model:               GBSA
        Solvent                        toluene
        Solvent mass                       9.2140E+01 g/mol
          :  Hamiltonian                  GFN2-xTB          :
 * total energy  :  -150.4810514 Eh     change       -0.1058822E-08 Eh
 * total energy  :  -150.4822843 Eh     change       -0.1232871E-02 Eh
 * total energy  :  -150.4825051 Eh     change       -0.2208044E-03 Eh
 * total energy  :  -150.4824513 Eh     change        0.5379793E-04 Eh
 * total energy  :  -150.4825742 Eh     change       -0.1229463E-03 Eh
 * total energy  :  -150.4825886 Eh     change       -0.1443145E-04 Eh
 * total energy  :  -150.4825893 Eh     change       -0.6398068E-06 Eh
 * total energy  :  -150.4826094 Eh     change       -0.2016077E-04 Eh
 * total energy  :  -150.4826144 Eh     change       -0.4917417E-05 Eh
 * total energy  :  -150.4826224 Eh     change       -0.8050366E-05 Eh
 * total energy  :  -150.4826511 Eh     change       -0.4608761E-06 Eh
 * total energy  :  -150.4826515 Eh     change       -0.3580928E-06 Eh
 * total energy  :  -150.4826518 Eh     change       -0.3240578E-06 Eh
 * total energy  :  -150.4826522 Eh     change       -0.3577233E-06 Eh
 * total energy  :  -150.4826526 Eh     change       -0.4604544E-06 Eh
 * total energy  :  -150.4826526 Eh     change        0.4597496E-09 Eh
 * total energy  :  -150.4826526 Eh     change        0.6964910E-08 Eh
 * total energy  :  -150.4826526 Eh     change        0.7388223E-08 Eh
 * total energy  :  -150.4826527 Eh     change       -0.8079397E-07 Eh
   *** GEOMETRY OPTIMIZATION CONVERGED AFTER 47 ITERATIONS ***

 final structure:
================
94
 xtb: 6.7.1 (edcfbbe)
N            1.90598763473560       10.09831836141700       -0.14145248589469
C            1.37795459377768        9.07451362802381       -0.10152393111304
C            0.70574389131665        7.84553354744583       -0.05049002753470
N            1.39202057714836        6.70061109076087       -0.09973807764120
C            0.70632063042215        5.54043102445471       -0.04831516574332
C            1.41574305538825        4.30539523525084       -0.08678072013626
C            2.82121625042834        4.30867942091138       -0.16427254691732
C            3.53210691798018        3.14135356443360       -0.17997519473795
C            2.86348561631624        1.90378846859464       -0.12642180515777
C            3.61038997043459        0.64468707594985       -0.12255981423189
C            4.81960139233313        0.52806019876433        0.56863992825914
C            5.50862943481841       -0.66373656838867        0.60414223492190
C            5.01484766472515       -1.78881166334617       -0.06440455506243
N            5.70062768634453       -3.00018353695597       -0.01998544685401
C            7.10012945804833       -3.01286094608192        0.01697221711799
C            7.77637897713316       -3.93941858233143        0.81253687289342
C            9.15729437046635       -3.94876252963879        0.84340358114750
C            9.88207746489020       -3.03946936357402        0.08819405656543
C            9.21443876989023       -2.11766837094394       -0.70363930345274
C            7.83383774030429       -2.10072519371341       -0.74381674387082
C            4.99592058312766       -4.20879704598007       -0.00235698179457
C            3.79148626155335       -4.31636329913095        0.69633137195852
C            3.09892478222059       -5.51133943356438        0.70537999740973
C            3.59470434217414       -6.61517052167831        0.02848424447551
C            4.79332830823412       -6.51523228992686       -0.66121893118086
C            5.49138520948521       -5.32349586681651       -0.68202001036961
C            3.81556710018717       -1.67395839960015       -0.77502934167945
C            3.12856382324989       -0.48125148123952       -0.79701058594248
C            1.48002148429398        1.89512782184233       -0.06136026906220
C            0.72151714727688        3.06961580741483       -0.03849932156005
C           -0.72001843989579        3.06969203915953        0.04004157982314
C           -1.47865536594764        1.89528630391593        0.06287501791747
C           -2.86211465393057        1.90409775629245        0.12806313320288
C           -3.60924274475046        0.64512991904587        0.12415431144402
C           -3.12736574939954       -0.48115645871286        0.79798880441211
C           -3.81467115398768       -1.67369817280982        0.77594248640999
C           -5.01436014208557       -1.78798542771289        0.06593788780381
N           -5.70059727659233       -2.99912415300769        0.02150019247270
C           -7.10015934802460       -3.01114435753422       -0.01437383304554
C           -7.83280663406934       -2.09925788967985        0.74772243766202
C           -9.21345132319063       -2.11552983712671        0.70867580752338
C           -9.88216055737208       -3.03639239456321       -0.08334435673440
C           -9.15842293812781       -3.94539936560754       -0.83989879638808
C           -7.77747484107922       -3.93673656461419       -0.81014048824726
C           -4.99642249523884       -4.20801360599936        0.00265394089962
C           -5.49205992951372       -5.32300130990296        0.68172385085184
C           -4.79459768534939       -6.51506161061827        0.65963055168313
C           -3.59637261823820       -6.61504598756931       -0.03076183350054
C           -3.10040198775314       -5.51092180545565       -0.70703713802981
C           -3.79237941959080       -4.31561455282775       -0.69670183761026
C           -5.50820125638418       -0.66257334791347       -0.60197767703061
C           -4.81882551044311        0.52902007484574       -0.56648762045307
C           -3.53057255404265        3.14175027276294        0.18176338843762
C           -2.81955760763944        4.30899555471886        0.16599738152794
C           -1.41409371160720        4.30554909201758        0.08838755489753
C           -0.70454169003040        5.54050365552832        0.04988070615483
N           -1.39012827595056        6.70074612999351        0.10126091351168
C           -0.70372700220308        7.84560932801080        0.05201208490773
C           -1.37581696266055        9.07463978162381        0.10278143702413
N           -1.90369868338937       10.09851676348145        0.14332869387068
H            3.31702682803891        5.26699532814805       -0.20963239468281
H            4.60856430591908        3.16672233621450       -0.25750724335880
H            5.20200687065494        1.37563695437811        1.11702856238109
H            6.42582140423262       -0.74040356024603        1.16900162002888
H            7.21188138213831       -4.63886638964243        1.41124948943341
H            9.67115207666077       -4.66489054072964        1.46725197481148
H           10.96105659931037       -3.04906823027749        0.11606132119259
H            9.77289579724196       -1.41177818478979       -1.30029891243897
H            7.31412983167391       -1.39178951911969       -1.37132744082938
H            3.41353370969571       -3.46281114854252        1.23922656640854
H            2.17083199606679       -5.58363128900236        1.25266408845066
H            3.05160203113196       -7.54788637151123        0.03956796547032
H            5.18345543037740       -7.36911612169819       -1.19484675499364
H            6.41708512245502       -5.24341964713844       -1.23233770329524
H            3.43867892725058       -2.52529809866751       -1.32204677168579
H            2.21899350558944       -0.40694492520432       -1.37356559715769
H            0.98291011362210        0.94135941071849        0.00610342001542
H           -0.98163984265269        0.94147707133790       -0.00470376752348
H           -2.21748414481208       -0.40729161870921        1.37410877361753
H           -3.43768994995105       -2.52533937396990        1.32243056405309
H           -7.31224108376680       -1.39105644274661        1.37535294296668
H           -9.77109280740633       -1.40985860068416        1.30635366578954
H          -10.96116577328186       -3.04546944750174       -0.11033733072994
H           -9.67312839927331       -4.66076368977531       -1.46392232478620
H           -7.21378325532081       -4.63595477280442       -1.40988066747269
H           -6.41743867122635       -5.24290699903494        1.23257964737511
H           -5.18487697444837       -7.36917907457123        1.19277202004406
H           -3.05374240869843       -7.54802328213476       -0.04287449269416
H           -2.17261910946268       -5.58322526546295       -1.25484367508911
H           -3.41429250010270       -3.46183461977802       -1.23914283342575
H           -6.42574680306372       -0.73881386788819       -1.16632119073943
H           -5.20130352232329        1.37685324378007       -1.11442603916135
H           -4.60701442805791        3.16726232590678        0.25945300356866
H           -3.31525969283321        5.26736469575927        0.21141701009589

          :  Hamiltonian                  GFN2-xTB          :
         :: gradient norm              0.000070749798 Eh/a0 ::
         :: HOMO-LUMO gap              0.114796648394 eV    ::
         :: SCC energy              -153.339376255611 Eh    ::
         :: -> dispersion             -0.132538782252 Eh    ::
         :: -> Gsolv                  -0.091702385541 Eh    ::
         :: repulsion energy           2.856723560718 Eh    ::

    * Orbital Energies and Occupations

         #    Occupation            Energy/Eh            Energy/eV
      -------------------------------------------------------------
         1        2.0000           -0.6827921             -18.5797
       ...           ...                  ...                  ...
       129        2.0000           -0.4184273             -11.3860
       130        2.0000           -0.4167281             -11.3397
       131        2.0000           -0.4166525             -11.3377
       132        2.0000           -0.4166504             -11.3376
       133        2.0000           -0.4160797             -11.3221
       134        2.0000           -0.4134703             -11.2511
       135        2.0000           -0.4035574             -10.9814
       136        2.0000           -0.3913429             -10.6490
       137        2.0000           -0.3893401             -10.5945
       138        1.8346           -0.3642652              -9.9122
       139        1.6071           -0.3631412              -9.8816
       140        1.5583           -0.3629503              -9.8764
       141        0.9021           -0.2998128              -8.1583 (HOMO)
       142        0.0979           -0.2955939              -8.0435 (LUMO)
       143                         -0.2612249              -7.1083
       144                         -0.2522391              -6.8638
       145                         -0.2509632              -6.8291
       146                         -0.2437580              -6.6330
       147                         -0.2437536              -6.6329
       148                         -0.2391049              -6.5064
       149                         -0.2391003              -6.5062
       150                         -0.2338910              -6.3645
       151                         -0.2335664              -6.3557
       152                         -0.2331414              -6.3441
       ...                                ...                  ...
       274                          1.1637355              31.6669
      -------------------------------------------------------------
                  HL-Gap            0.0042189 Eh            0.1148 eV

     #   Z          covCN         q      C6AA      α(0)
     1   7 N        0.911    -0.290    27.464     7.579
     2   6 C        1.912     0.105    28.506     8.623
     3   6 C        2.942     0.092    25.948     8.354
     4   7 N        1.849    -0.289    28.334     7.889
     5   6 C        2.950     0.081    26.183     8.393
     6   6 C        2.987    -0.014    28.353     8.734
     7   6 C        2.919    -0.030    28.747     8.792
     8   6 C        2.919    -0.037    28.928     8.820
     9   6 C        2.973     0.009    27.808     8.650
    10   6 C        2.976     0.011    27.760     8.643
    11   6 C        2.923    -0.031    28.763     8.795
    12   6 C        2.919    -0.043    29.068     8.841
    13   6 C        2.924     0.063    26.584     8.455
    14   7 N        2.752    -0.039    22.002     6.967
    15   6 C        2.926     0.064    26.574     8.454
    16   6 C        2.921    -0.042    29.035     8.836
    17   6 C        2.919    -0.026    28.652     8.778
    18   6 C        2.919    -0.031    28.762     8.795
    19   6 C        2.919    -0.026    28.651     8.778
    20   6 C        2.921    -0.042    29.034     8.836
    21   6 C        2.925     0.064    26.573     8.454
    22   6 C        2.921    -0.042    29.049     8.838
    23   6 C        2.919    -0.026    28.656     8.778
    24   6 C        2.919    -0.031    28.772     8.796
    25   6 C        2.919    -0.026    28.652     8.778
    26   6 C        2.921    -0.042    29.041     8.837
    27   6 C        2.919    -0.043    29.075     8.842
    28   6 C        2.923    -0.032    28.794     8.800
    29   6 C        2.927    -0.041    29.021     8.835
    30   6 C        2.975    -0.003    28.084     8.693
    31   6 C        2.975    -0.003    28.084     8.693
    32   6 C        2.927    -0.041    29.021     8.835
    33   6 C        2.973     0.009    27.808     8.650
    34   6 C        2.976     0.011    27.760     8.643
    35   6 C        2.923    -0.032    28.794     8.800
    36   6 C        2.919    -0.043    29.075     8.842
    37   6 C        2.924     0.063    26.584     8.455
    38   7 N        2.752    -0.039    22.003     6.967
    39   6 C        2.926     0.064    26.574     8.454
    40   6 C        2.921    -0.042    29.034     8.836
    41   6 C        2.919    -0.026    28.651     8.778
    42   6 C        2.919    -0.031    28.762     8.795
    43   6 C        2.919    -0.026    28.652     8.778
    44   6 C        2.921    -0.042    29.035     8.836
    45   6 C        2.925     0.064    26.573     8.454
    46   6 C        2.921    -0.042    29.041     8.837
    47   6 C        2.919    -0.026    28.652     8.778
    48   6 C        2.919    -0.031    28.772     8.796
    49   6 C        2.919    -0.026    28.656     8.778
    50   6 C        2.921    -0.042    29.049     8.839
    51   6 C        2.919    -0.043    29.068     8.841
    52   6 C        2.923    -0.031    28.763     8.795
    53   6 C        2.919    -0.037    28.928     8.820
    54   6 C        2.919    -0.030    28.747     8.792
    55   6 C        2.987    -0.014    28.353     8.734
    56   6 C        2.950     0.081    26.183     8.393
    57   7 N        1.849    -0.289    28.334     7.889
    58   6 C        2.942     0.092    25.948     8.354
    59   6 C        1.912     0.105    28.506     8.623
    60   7 N        0.911    -0.290    27.464     7.579
    61   1 H        0.926     0.039     2.457     2.451
    62   1 H        0.926     0.040     2.443     2.444
    63   1 H        0.926     0.044     2.400     2.423
    64   1 H        0.926     0.044     2.401     2.423
    65   1 H        0.926     0.043     2.409     2.427
    66   1 H        0.926     0.043     2.403     2.424
    67   1 H        0.926     0.041     2.429     2.437
    68   1 H        0.926     0.042     2.417     2.431
    69   1 H        0.926     0.042     2.422     2.434
    70   1 H        0.926     0.043     2.412     2.429
    71   1 H        0.926     0.044     2.392     2.418
    72   1 H        0.926     0.042     2.418     2.432
    73   1 H        0.926     0.043     2.411     2.428
    74   1 H        0.926     0.042     2.428     2.437
    75   1 H        0.926     0.046     2.367     2.406
    76   1 H        0.926     0.046     2.365     2.405
    77   1 H        0.926     0.048     2.339     2.391
    78   1 H        0.926     0.049     2.339     2.391
    79   1 H        0.926     0.046     2.365     2.405
    80   1 H        0.926     0.046     2.367     2.406
    81   1 H        0.926     0.042     2.422     2.434
    82   1 H        0.926     0.042     2.417     2.431
    83   1 H        0.926     0.041     2.429     2.437
    84   1 H        0.926     0.043     2.403     2.424
    85   1 H        0.926     0.043     2.409     2.427
    86   1 H        0.926     0.042     2.428     2.437
    87   1 H        0.926     0.043     2.411     2.428
    88   1 H        0.926     0.042     2.418     2.432
    89   1 H        0.926     0.044     2.392     2.419
    90   1 H        0.926     0.043     2.412     2.429
    91   1 H        0.926     0.044     2.401     2.423
    92   1 H        0.926     0.044     2.400     2.423
    93   1 H        0.926     0.040     2.443     2.444
    94   1 H        0.926     0.039     2.457     2.451

molecular dipole:
                 x           y           z       tot (Debye)
 q only:       -0.001     -13.796      -0.000
   full:       -0.001     -14.096      -0.000      35.830

 projected vibrational frequencies (cm⁻¹)
eigval :       -0.00    -0.00    -0.00    -0.00    -0.00     0.00
eigval :        8.21     9.55    11.59    15.28    21.92    24.10
eigval :       32.93    38.43    40.98    47.66    49.83    52.80
eigval :       55.23    63.17    64.54    72.67    73.67    78.13
eigval :       94.38    95.96    98.71   100.18   107.67   114.56
eigval :      138.79   147.77   151.05   153.27   161.87   194.08
eigval :      203.54   209.52   226.09   228.92   231.00   242.85
eigval :      257.74   262.75   297.58   297.71   312.57   315.18
eigval :      329.27   329.72   338.90   340.86   373.42   374.64
eigval :      375.69   376.30   378.70   380.66   383.55   384.98
eigval :      389.21   392.11   399.77   415.18   417.09   423.06
eigval :      434.24   449.55   461.32   466.36   474.02   489.28
eigval :      493.67   494.07   497.44   513.59   521.84   534.20
eigval :      541.84   560.32   574.74   582.38   583.39   584.58
eigval :      587.41   592.92   593.21   598.94   601.98   607.28
eigval :      612.05   615.88   627.66   639.01   643.36   654.93
eigval :      658.50   658.94   662.65   665.06   678.96   688.86
eigval :      690.62   694.93   698.33   718.76   726.41   753.84
eigval :      756.00   756.47   758.33   765.77   767.41   808.36
eigval :      808.45   832.22   832.36   838.29   850.63   859.29
eigval :      863.14   865.70   868.77   869.35   869.54   871.02
eigval :      871.65   895.28   895.66   896.53   897.23   908.09
eigval :      908.74   908.76   916.47   916.70   920.12   920.42
eigval :      925.21   925.87   927.22   927.28   927.75   928.53
eigval :      928.75   928.91   929.24   929.57   930.25   933.15
eigval :      979.87   982.74  1002.24  1002.28  1003.84  1015.13
eigval :     1033.97  1052.20  1076.37  1079.41  1079.44  1080.32
eigval :     1080.39  1090.53  1119.86  1119.86  1122.10  1122.14
eigval :     1140.00  1142.78  1144.14  1146.96  1159.44  1160.73
eigval :     1176.19  1177.72  1177.86  1177.94  1178.16  1180.14
eigval :     1190.28  1190.62  1192.51  1193.01  1210.36  1213.06
eigval :     1220.84  1223.32  1255.10  1261.34  1268.32  1269.56
eigval :     1273.02  1273.12  1273.61  1274.09  1278.14  1285.72
eigval :     1294.97  1297.42  1298.22  1310.83  1312.76  1313.41
eigval :     1314.28  1320.85  1323.19  1323.39  1323.80  1328.11
eigval :     1336.68  1372.43  1376.44  1393.18  1403.43  1409.37
eigval :     1414.27  1424.45  1430.81  1431.25  1437.20  1437.42
eigval :     1453.25  1454.72  1457.57  1457.64  1458.34  1459.07
eigval :     1479.33  1488.28  1498.62  1520.06  1538.33  1538.44
eigval :     1555.18  1560.24  1567.53  1567.55  1571.27  1571.37
eigval :     1580.37  1580.38  1582.78  1584.38  1590.62  1591.53
eigval :     2269.79  2298.63  3079.41  3079.42  3079.86  3079.89
eigval :     3080.70  3080.72  3081.34  3081.39  3082.51  3082.53
eigval :     3084.16  3084.20  3085.13  3085.15  3088.13  3088.16
eigval :     3089.38  3089.49  3091.46  3091.49  3092.60  3092.65
eigval :     3094.07  3094.42  3094.96  3095.08  3096.66  3097.01
eigval :     3099.08  3099.26  3099.35  3099.71  3103.20  3112.97

   temp. (K)  partition function   enthalpy   heat capacity  entropy
                                   cal/mol     cal/K/mol   cal/K/mol   J/K/mol
 298.15  VIB  0.531E+24            29012.111    178.565    183.682
         ROT  0.131E+09              888.752      2.981     40.122
         INT  0.696E+32            29900.863    181.546    223.804
         TR   0.205E+29             1481.254      4.968     45.770
         TOT                       31382.1172   186.5141   269.5733  1127.8946

       T/K    H(0)-H(T)+PV         H(T)/Eh          T*S/Eh         G(T)/Eh
   ------------------------------------------------------------------------
    298.15    0.500106E-01    0.752331E+00    0.128083E+00    0.624248E+00
   ------------------------------------------------------------------------

         :::::::::::::::::::::::::::::::::::::::::::::::::::::
         ::                  THERMODYNAMIC                  ::
         :::::::::::::::::::::::::::::::::::::::::::::::::::::
         :: total free energy        -149.858404625537 Eh   ::
         ::.................................................::
         :: total energy             -150.482652697075 Eh   ::
         :: zero point energy           0.702320442792 Eh   ::
         :: G(RRHO) w/o ZPVE           -0.078072371255 Eh   ::
         :: G(RRHO) contrib.            0.624248071538 Eh   ::
         :::::::::::::::::::::::::::::::::::::::::::::::::::::

           -------------------------------------------------
          | TOTAL ENERGY             -150.482652697075 Eh   |
          | TOTAL ENTHALPY           -149.730321667219 Eh   |
          | TOTAL FREE ENERGY        -149.858404625537 Eh   |
          | GRADIENT NORM               0.000079661192 Eh/α |
          | HOMO-LUMO GAP               0.114801887345 eV   |
           -------------------------------------------------

 * finished run on 2025/07/17 at 01:33:27.201
