   * xtb version 6.7.1 (edcfbbe) compiled by 'albert@albert-system' on 2024-07-22

   ID    Z sym.   atoms
    1    7 N      1, 4, 14, 38, 57, 60
    2    6 C      2, 3, 5-13, 15-37, 39-56, 58, 59
    3    1 H      61-94

          program call               : xtb data2507/toluene/TPA-DCPP/TPA-DCPP.xyz --gfn 2 --gbsa toluene --ohess vtight --parallel 40 --molden --ceasefiles --namespace data2507/toluene/TPA-DCPP/TPA-DCPP_toluene_S0_preOpt
      * Solvation model:               GBSA
        Solvent                        toluene
        Solvent mass                       9.2140E+01 g/mol
          :  Hamiltonian                  GFN2-xTB          :
 * total energy  :  -150.4990648 Eh     change       -0.1535625E-08 Eh
 * total energy  :  -150.5190519 Eh     change       -0.1998710E-01 Eh
 * total energy  :  -150.5267286 Eh     change       -0.7676694E-02 Eh
 * total energy  :  -150.5297417 Eh     change       -0.3013098E-02 Eh
 * total energy  :  -150.5315266 Eh     change       -0.1784887E-02 Eh
 * total energy  :  -150.5313264 Eh     change        0.2002507E-03 Eh
 * total energy  :  -150.5325017 Eh     change       -0.1175356E-02 Eh
 * total energy  :  -150.5327636 Eh     change       -0.2618645E-03 Eh
 * total energy  :  -150.5331229 Eh     change       -0.3593322E-03 Eh
 * total energy  :  -150.5332313 Eh     change       -0.1083286E-03 Eh
 * total energy  :  -150.5341319 Eh     change       -0.6061610E-06 Eh
 * total energy  :  -150.5341320 Eh     change       -0.1099424E-06 Eh
 * total energy  :  -150.5341325 Eh     change       -0.4370089E-06 Eh
 * total energy  :  -150.5341328 Eh     change       -0.3689869E-06 Eh
 * total energy  :  -150.5341331 Eh     change       -0.2255150E-06 Eh
 * total energy  :  -150.5341333 Eh     change       -0.1965355E-06 Eh
 * total energy  :  -150.5341335 Eh     change       -0.2200251E-06 Eh
 * total energy  :  -150.5341337 Eh     change       -0.1932102E-06 Eh
 * total energy  :  -150.5341338 Eh     change       -0.9601195E-07 Eh
   *** GEOMETRY OPTIMIZATION CONVERGED AFTER 167 ITERATIONS ***

 final structure:
================
94
 xtb: 6.7.1 (edcfbbe)
N            1.97154516628532       10.85324617591646        0.32668673046726
C            1.43798852403932        9.83981822198461        0.26080032693125
C            0.73489619330651        8.61531155440611        0.17646273616915
N            1.41249858673910        7.47833130232696        0.21806687768456
C            0.73334830978667        6.33364443978806        0.14457201974929
C            1.44913785108463        5.09204348326036        0.16700936179816
C            2.84967258423311        5.08906088995261        0.24224594017437
C            3.55216764664029        3.91210367392461        0.23793386685092
C            2.87541005406572        2.68576724380355        0.15631599962136
C            3.61009137948288        1.42010437661385        0.12400881440314
C            3.11350145111149        0.28140180316438        0.76290144938021
C            3.79301590998092       -0.91525120309464        0.71738343395405
C            4.99517497078068       -1.02506794725873        0.01222403367017
N            5.67159356304978       -2.23854001685910       -0.05747102878177
C            7.07409296773489       -2.26305506402661       -0.10996965452859
C            7.73269549157121       -3.16540009824075       -0.94408204368355
C            9.11377189603421       -3.19185564374945       -0.98642452988141
C            9.85627522744452       -2.31946680754576       -0.20675688269604
C            9.20575906349236       -1.42006830806393        0.62280304103443
C            7.82525657409632       -1.39102468776828        0.67720285450841
C            4.96163597187173       -3.44800543571920       -0.08390012946266
C            3.76408989926481       -3.55241259986050       -0.79129684259772
C            3.06896707892913       -4.74647213851754       -0.81044215371453
C            3.55846832698254       -5.85472587099423       -0.13795425110753
C            4.75267760967538       -5.75864662682486        0.55823496068997
C            5.44990241702556       -4.56595262864869        0.59179601485604
C            5.49969594257273        0.11317492673607       -0.62381415716894
C            4.82287653827271        1.31099589400374       -0.55984361595534
C            1.48741600096924        2.69014674124382        0.09295786390719
C            0.74271344401217        3.86931414237019        0.10199709754155
C           -0.71179726427829        3.87415222489075        0.04042699098858
C           -1.46349495626926        2.69949511535779        0.03229037066171
C           -2.85109981834241        2.70459480250254       -0.03564304381825
C           -3.59323508357464        1.44276264814688       -0.02552844375707
C           -3.17912055064174        0.37622107993656        0.77565200725453
C           -3.87208614999295       -0.81324591877595        0.79223830448970
C           -5.00191956048190       -0.99042311910262       -0.01197654223647
N           -5.69144019220737       -2.19845717264972       -0.00905185999024
C           -7.08199061739545       -2.22623107403710       -0.19283380145057
C           -7.89333711699434       -1.24870795380519        0.38251443969731
C           -9.26233614929369       -1.28443763344852        0.19795648469667
C           -9.84359713126906       -2.29561092802381       -0.55024982482427
C           -9.04214860923820       -3.27323565582961       -1.11774243562067
C           -7.67136020503056       -3.24065030950916       -0.94653881182272
C           -5.00128794189830       -3.40431603039241        0.19089631459176
C           -5.55953881010193       -4.41474895414880        0.97278686081613
C           -4.87850583318645       -5.60192160910531        1.16454000168221
C           -3.63294165465800       -5.79742703404966        0.58974477406959
C           -3.07411036908059       -4.79601913868816       -0.18805554478292
C           -3.75164925379142       -3.60933232617065       -0.39328000310408
C           -5.41862463448223        0.07328399520259       -0.81793555871148
C           -4.73197302468470        1.26753094805009       -0.81411609523040
C           -3.52063614879008        3.93507481708758       -0.10903752550802
C           -2.81142136431093        5.10801608120720       -0.09021693514595
C           -1.41124066940547        5.10170226690896       -0.00849239882579
C           -0.68849049761556        6.33870975897456        0.03750617864533
N           -1.36109283197716        7.48839906809045       -0.01439676994078
C           -0.67701100111890        8.62057294983020        0.04850132635694
C           -1.37279792152915        9.85050421532506       -0.01417624755365
N           -1.90024708356344       10.86816126741309       -0.06185891205496
H            3.35546340056570        6.04051488929082        0.30285432890662
H            4.62844666830584        3.92659764678324        0.31412977346209
H            2.20094962692794        0.34484831769488        1.33658328820084
H            3.40165397466473       -1.77815573119330        1.23562140409616
H            7.15475213892690       -3.84136526022385       -1.55748190239313
H            9.61315298989907       -3.89351578878726       -1.63860573297178
H           10.93507385268632       -2.34092037495597       -0.24446744579520
H            9.77726835302631       -0.74142023016361        1.23915599685756
H            7.31941135046751       -0.69642058836488        1.33207733773698
H            3.38671546916844       -2.69433380478477       -1.32820644721443
H            2.14331047354889       -4.81383911053131       -1.36332710094151
H            3.01457097831261       -6.78719335671562       -0.15778657006741
H            5.14116549793176       -6.61662549713496        1.08736704913192
H            6.37630400503572       -4.49217520714382        1.14261346627860
H            6.42266002507384        0.04464518147475       -1.18046062764108
H            5.21865481277094        2.16723508891663       -1.08529965749427
H            0.98622449046486        1.74105410997044        0.00348216382102
H           -0.96668876660466        1.74438698289545        0.06209460868396
H           -2.32583760443517        0.49642003136490        1.42642526899432
H           -3.54929480094508       -1.61684673298900        1.43748891719241
H           -7.44429388826945       -0.46651188104115        0.97723095209765
H           -9.88016632392257       -0.52220178340247        0.65011073820633
H          -10.91399136747917       -2.32211865105029       -0.68903862785763
H           -9.48638616036475       -4.06332100508342       -1.70545804998558
H           -7.04765866304891       -3.99938207660990       -1.39650499278014
H           -6.52667685081478       -4.26105932428400        1.42899144719748
H           -5.32053129120691       -6.37602271029087        1.77474277548083
H           -3.10203312662521       -6.72446952152954        0.74606786948415
H           -2.10665418003433       -4.94248390172887       -0.64584453343971
H           -3.31953322705875       -2.83427451785448       -1.00938173700406
H           -6.28191349515649       -0.04998938822321       -1.45501552350299
H           -5.05919106866901        2.06566618277708       -1.46372904976383
H           -4.59868678755018        3.95697589442969       -0.15155780646510
H           -3.31204470093426        6.06336494495738       -0.12844801393209

          :  Hamiltonian                  GFN2-xTB          :
         :: gradient norm              0.000070722683 Eh/a0 ::
         :: HOMO-LUMO gap              0.867034622634 eV    ::
         :: SCC energy              -153.401968723094 Eh    ::
         :: -> dispersion             -0.132724921703 Eh    ::
         :: -> Gsolv                  -0.073355888472 Eh    ::
         :: repulsion energy           2.867834950732 Eh    ::

    * Orbital Energies and Occupations

         #    Occupation            Energy/Eh            Energy/eV
      -------------------------------------------------------------
         1        2.0000           -0.7132660             -19.4090
       ...           ...                  ...                  ...
       128        2.0000           -0.4136870             -11.2570
       129        2.0000           -0.4113183             -11.1925
       130        2.0000           -0.4112747             -11.1914
       131        2.0000           -0.4087921             -11.1238
       132        2.0000           -0.4086314             -11.1194
       133        2.0000           -0.4085407             -11.1170
       134        2.0000           -0.4081701             -11.1069
       135        2.0000           -0.4067099             -11.0671
       136        2.0000           -0.4033267             -10.9751
       137        2.0000           -0.3984424             -10.8422
       138        2.0000           -0.3851084             -10.4793
       139        2.0000           -0.3548687              -9.6565
       140        2.0000           -0.3542296              -9.6391 (HOMO)
       141        0.0000           -0.3223667              -8.7720 (LUMO)
       142                         -0.3194809              -8.6935
       143                         -0.2706222              -7.3640
       144                         -0.2648505              -7.2069
       145                         -0.2510907              -6.8325
       146                         -0.2418788              -6.5819
       147                         -0.2357575              -6.4153
       148                         -0.2340799              -6.3696
       149                         -0.2340624              -6.3692
       150                         -0.2339645              -6.3665
       151                         -0.2317696              -6.3068
       ...                                ...                  ...
       274                          1.1483060              31.2470
      -------------------------------------------------------------
                  HL-Gap            0.0318629 Eh            0.8670 eV

     #   Z          covCN         q      C6AA      α(0)
     1   7 N        0.911    -0.233    26.107     7.390
     2   6 C        1.909     0.112    28.328     8.596
     3   6 C        2.952     0.098    25.825     8.335
     4   7 N        1.852    -0.242    27.162     7.724
     5   6 C        2.962     0.088    26.032     8.369
     6   6 C        2.988    -0.009    28.243     8.718
     7   6 C        2.919    -0.025    28.637     8.775
     8   6 C        2.920    -0.031    28.773     8.796
     9   6 C        2.973     0.023    27.477     8.598
    10   6 C        2.976     0.000    28.021     8.683
    11   6 C        2.923    -0.033    28.816     8.803
    12   6 C        2.920    -0.049    29.208     8.863
    13   6 C        2.923     0.067    26.492     8.441
    14   7 N        2.752    -0.071    22.617     7.063
    15   6 C        2.925     0.064    26.559     8.451
    16   6 C        2.922    -0.046    29.143     8.853
    17   6 C        2.919    -0.029    28.730     8.790
    18   6 C        2.919    -0.037    28.922     8.819
    19   6 C        2.919    -0.029    28.734     8.790
    20   6 C        2.922    -0.046    29.152     8.854
    21   6 C        2.924     0.064    26.559     8.451
    22   6 C        2.922    -0.047    29.170     8.857
    23   6 C        2.919    -0.029    28.736     8.791
    24   6 C        2.919    -0.038    28.935     8.821
    25   6 C        2.919    -0.029    28.732     8.790
    26   6 C        2.922    -0.046    29.155     8.855
    27   6 C        2.920    -0.048    29.204     8.862
    28   6 C        2.923    -0.032    28.794     8.800
    29   6 C        2.928    -0.040    28.983     8.829
    30   6 C        2.974     0.010    27.800     8.649
    31   6 C        2.974     0.010    27.800     8.649
    32   6 C        2.928    -0.040    28.982     8.829
    33   6 C        2.974     0.024    27.476     8.598
    34   6 C        2.976     0.000    28.023     8.683
    35   6 C        2.923    -0.033    28.818     8.803
    36   6 C        2.920    -0.049    29.211     8.863
    37   6 C        2.922     0.067    26.493     8.441
    38   7 N        2.752    -0.071    22.618     7.063
    39   6 C        2.924     0.064    26.560     8.451
    40   6 C        2.922    -0.047    29.163     8.856
    41   6 C        2.919    -0.029    28.736     8.791
    42   6 C        2.919    -0.037    28.930     8.820
    43   6 C        2.919    -0.029    28.732     8.790
    44   6 C        2.922    -0.046    29.153     8.854
    45   6 C        2.925     0.064    26.560     8.452
    46   6 C        2.922    -0.046    29.145     8.853
    47   6 C        2.919    -0.029    28.731     8.790
    48   6 C        2.919    -0.037    28.927     8.820
    49   6 C        2.919    -0.029    28.734     8.790
    50   6 C        2.922    -0.047    29.159     8.855
    51   6 C        2.920    -0.049    29.204     8.862
    52   6 C        2.923    -0.032    28.794     8.800
    53   6 C        2.920    -0.031    28.771     8.796
    54   6 C        2.919    -0.025    28.636     8.775
    55   6 C        2.988    -0.009    28.242     8.717
    56   6 C        2.962     0.088    26.031     8.369
    57   7 N        1.852    -0.242    27.163     7.724
    58   6 C        2.952     0.098    25.826     8.335
    59   6 C        1.909     0.112    28.328     8.596
    60   7 N        0.911    -0.233    26.108     7.390
    61   1 H        0.926     0.054     2.271     2.356
    62   1 H        0.926     0.051     2.304     2.373
    63   1 H        0.926     0.042     2.428     2.436
    64   1 H        0.926     0.038     2.470     2.458
    65   1 H        0.926     0.034     2.533     2.489
    66   1 H        0.926     0.035     2.513     2.479
    67   1 H        0.926     0.034     2.534     2.489
    68   1 H        0.926     0.035     2.512     2.478
    69   1 H        0.926     0.035     2.523     2.484
    70   1 H        0.926     0.035     2.520     2.482
    71   1 H        0.926     0.036     2.509     2.477
    72   1 H        0.926     0.034     2.535     2.490
    73   1 H        0.926     0.035     2.523     2.484
    74   1 H        0.926     0.033     2.547     2.496
    75   1 H        0.926     0.037     2.495     2.470
    76   1 H        0.926     0.040     2.446     2.446
    77   1 H        0.926     0.057     2.229     2.335
    78   1 H        0.926     0.057     2.231     2.336
    79   1 H        0.926     0.041     2.433     2.439
    80   1 H        0.926     0.038     2.477     2.461
    81   1 H        0.926     0.034     2.526     2.485
    82   1 H        0.926     0.035     2.517     2.481
    83   1 H        0.926     0.033     2.539     2.492
    84   1 H        0.926     0.035     2.518     2.481
    85   1 H        0.926     0.034     2.536     2.490
    86   1 H        0.926     0.033     2.545     2.495
    87   1 H        0.926     0.035     2.519     2.482
    88   1 H        0.926     0.034     2.530     2.487
    89   1 H        0.926     0.036     2.500     2.473
    90   1 H        0.926     0.035     2.515     2.480
    91   1 H        0.926     0.037     2.490     2.468
    92   1 H        0.926     0.040     2.446     2.446
    93   1 H        0.926     0.051     2.304     2.374
    94   1 H        0.926     0.054     2.270     2.356

molecular dipole:
                 x           y           z       tot (Debye)
 q only:        0.010      -6.377      -0.070
   full:        0.008      -6.836      -0.078      17.376

 projected vibrational frequencies (cm⁻¹)
eigval :       -0.00    -0.00     0.00     0.00     0.00     0.00
eigval :        7.54     9.40    13.71    15.83    19.13    23.98
eigval :       28.07    37.33    42.08    45.50    48.54    50.56
eigval :       58.22    61.64    65.70    70.15    73.82    80.38
eigval :       94.86    95.34    96.97    98.56   107.75   115.93
eigval :      137.09   147.29   155.82   158.69   161.21   189.02
eigval :      206.30   209.97   225.51   230.84   233.59   242.50
eigval :      256.55   277.53   296.69   299.30   309.87   318.52
eigval :      326.89   335.56   340.35   348.41   376.58   377.09
eigval :      378.45   379.67   382.79   383.84   387.14   387.44
eigval :      392.06   396.26   403.61   411.61   422.46   432.97
eigval :      440.46   456.89   460.13   473.03   478.25   489.46
eigval :      492.50   498.90   508.93   511.25   535.66   539.80
eigval :      548.27   572.06   580.24   583.32   584.87   586.08
eigval :      590.68   593.50   593.95   599.93   606.10   613.80
eigval :      621.54   636.70   644.19   653.40   655.87   659.75
eigval :      660.90   664.98   667.68   680.72   691.41   695.08
eigval :      702.56   706.82   713.39   719.66   755.60   756.62
eigval :      757.02   758.34   761.25   762.01   771.06   810.12
eigval :      811.69   838.28   839.40   859.81   861.85   867.10
eigval :      868.22   873.10   873.48   874.10   875.20   877.43
eigval :      892.89   893.56   893.91   894.10   909.13   909.47
eigval :      910.53   916.08   919.93   924.06   925.35   926.49
eigval :      927.25   927.57   927.73   928.00   928.69   928.80
eigval :      929.38   929.62   930.62   931.97   936.23   981.62
eigval :      984.37  1004.08  1004.32  1006.19  1017.14  1037.48
eigval :     1062.46  1078.97  1081.20  1081.50  1082.26  1082.61
eigval :     1099.10  1120.03  1120.22  1121.80  1122.78  1141.93
eigval :     1144.33  1154.07  1157.93  1164.39  1177.61  1178.17
eigval :     1179.21  1179.67  1184.17  1184.66  1193.04  1193.74
eigval :     1195.55  1196.73  1212.05  1214.65  1222.71  1225.33
eigval :     1260.77  1265.30  1268.55  1271.88  1274.23  1276.41
eigval :     1276.91  1279.59  1280.03  1296.00  1300.52  1304.78
eigval :     1306.06  1314.16  1314.37  1322.68  1322.86  1324.45
eigval :     1325.29  1326.76  1328.28  1332.55  1336.50  1350.14
eigval :     1382.54  1397.11  1406.52  1411.01  1416.49  1432.29
eigval :     1433.84  1434.00  1436.50  1438.60  1440.63  1442.78
eigval :     1468.20  1468.33  1470.94  1471.21  1473.49  1475.80
eigval :     1493.76  1501.78  1530.34  1537.68  1548.98  1550.30
eigval :     1564.47  1573.18  1576.03  1576.18  1580.09  1580.28
eigval :     1590.43  1590.59  1592.44  1594.64  1599.45  1600.94
eigval :     2353.40  2355.82  3072.67  3072.90  3073.26  3073.44
eigval :     3073.75  3074.25  3074.31  3074.80  3079.32  3079.91
eigval :     3080.88  3081.59  3082.57  3082.97  3083.34  3083.83
eigval :     3085.21  3085.71  3085.98  3086.68  3090.67  3091.41
eigval :     3092.94  3093.25  3094.26  3094.32  3094.35  3094.61
eigval :     3095.13  3095.28  3104.72  3104.96  3113.72  3123.37

   temp. (K)  partition function   enthalpy   heat capacity  entropy
                                   cal/mol     cal/K/mol   cal/K/mol   J/K/mol
 298.15  VIB  0.558E+24            28798.325    176.663    182.584
         ROT  0.261E+09              888.752      2.981     41.497
         INT  0.146E+33            29687.078    179.644    224.080
         TR   0.205E+29             1481.254      4.968     45.770
         TOT                       31168.3315   184.6117   269.8498  1129.0517

       T/K    H(0)-H(T)+PV         H(T)/Eh          T*S/Eh         G(T)/Eh
   ------------------------------------------------------------------------
    298.15    0.496699E-01    0.756346E+00    0.128214E+00    0.628131E+00
   ------------------------------------------------------------------------

         :::::::::::::::::::::::::::::::::::::::::::::::::::::
         ::                  THERMODYNAMIC                  ::
         :::::::::::::::::::::::::::::::::::::::::::::::::::::
         :: total free energy        -149.906002528072 Eh   ::
         ::.................................................::
         :: total energy             -150.534133763816 Eh   ::
         :: zero point energy           0.706675704726 Eh   ::
         :: G(RRHO) w/o ZPVE           -0.078544468983 Eh   ::
         :: G(RRHO) contrib.            0.628131235744 Eh   ::
         :::::::::::::::::::::::::::::::::::::::::::::::::::::

           -------------------------------------------------
          | TOTAL ENERGY             -150.534133763816 Eh   |
          | TOTAL ENTHALPY           -149.777788161244 Eh   |
          | TOTAL FREE ENERGY        -149.906002528072 Eh   |
          | GRADIENT NORM               0.000070677521 Eh/α |
          | HOMO-LUMO GAP               0.867032791379 eV   |
           -------------------------------------------------

 * finished run on 2025/07/17 at 01:20:05.806
