   * xtb version 6.7.1 (edcfbbe) compiled by 'albert@albert-system' on 2024-07-22

   ID    Z sym.   atoms
    1    7 N      1, 4, 14, 38, 57, 60
    2    6 C      2, 3, 5-13, 15-37, 39-56, 58, 59
    3    1 H      61-94

          program call               : xtb data2507/toluene/TPA-DCPP/TPA-DCPP_toluene_S0_crest.xyz --gfn 2 --gbsa toluene --ohess vtight --parallel 40 --molden --ceasefiles --namespace data2507/toluene/TPA-DCPP/TPA-DCPP_toluene_S0_finalOpt
      * Solvation model:               GBSA
        Solvent                        toluene
        Solvent mass                       9.2140E+01 g/mol
          :  Hamiltonian                  GFN2-xTB          :
 * total energy  :  -150.5341022 Eh     change       -0.3394177E-08 Eh
 * total energy  :  -150.5341654 Eh     change       -0.6324498E-04 Eh
 * total energy  :  -150.5341797 Eh     change       -0.1424658E-04 Eh
 * total energy  :  -150.5341314 Eh     change        0.4822866E-04 Eh
 * total energy  :  -150.5341828 Eh     change       -0.5136589E-04 Eh
 * total energy  :  -150.5341757 Eh     change        0.7150654E-05 Eh
 * total energy  :  -150.5341940 Eh     change       -0.1829723E-04 Eh
 * total energy  :  -150.5341967 Eh     change       -0.2760051E-05 Eh
 * total energy  :  -150.5342007 Eh     change       -0.3953527E-05 Eh
 * total energy  :  -150.5342077 Eh     change       -0.7001050E-05 Eh
 * total energy  :  -150.5342362 Eh     change       -0.6139011E-06 Eh
 * total energy  :  -150.5342369 Eh     change       -0.7001130E-06 Eh
 * total energy  :  -150.5342376 Eh     change       -0.6979918E-06 Eh
 * total energy  :  -150.5342383 Eh     change       -0.6640547E-06 Eh
 * total energy  :  -150.5342390 Eh     change       -0.6530736E-06 Eh
 * total energy  :  -150.5342397 Eh     change       -0.7805909E-06 Eh
 * total energy  :  -150.5342406 Eh     change       -0.8308350E-06 Eh
 * total energy  :  -150.5342411 Eh     change       -0.5730563E-06 Eh
 * total energy  :  -150.5342412 Eh     change       -0.6680199E-07 Eh
   *** GEOMETRY OPTIMIZATION CONVERGED AFTER 44 ITERATIONS ***

 final structure:
================
94
 xtb: 6.7.1 (edcfbbe)
N            1.93806548445813       10.09047955011694       -0.18678341816301
C            1.40701848385283        9.07498748135291       -0.13288389427057
C            0.70752391216755        7.84759108003361       -0.06276799160824
N            1.38814376570683        6.71290733738469       -0.11597990392383
C            0.71186042981740        5.56574652873724       -0.05485170181430
C            1.43039895847417        4.32616001599067       -0.09516692833842
C            2.83047609101883        4.32757291281745       -0.17921947001881
C            3.53581316212178        3.15239657538249       -0.19534897387255
C            2.86218696342940        1.92351371779414       -0.12901589871773
C            3.59955747221822        0.65899570037580       -0.12334224420076
C            4.81394250057326        0.53887457744969        0.55564293377493
C            5.49282460600975       -0.65883839846317        0.59528913364934
C            4.98959967278665       -1.78525275560704       -0.06265125027338
N            5.66848795735580       -2.99824874516851       -0.01827359817470
C            7.07101731605010       -3.02119631471311        0.04029021177752
C            7.72679179387370       -3.93842677634310        0.86016653448743
C            9.10768323263894       -3.96311393395776        0.90951578240072
C            9.85261814142891       -3.07447014319329        0.15081867694706
C            9.20484247830344       -2.16074468558992       -0.66512527491598
C            7.82457605719990       -2.13304922608341       -0.72622508700582
C            4.96254344855293       -4.21043680206962       -0.02660669160322
C            3.76169501786310       -4.33751734094271        0.67142640555957
C            3.07037578506311       -5.53384628458736        0.65531712399996
C            3.56788646362866       -6.62256018447483       -0.04283172513791
C            4.76569490910611       -6.50442245373431       -0.72933671301319
C            5.45879848705028       -5.30883540745822       -0.72800303549814
C            3.78612168680201       -1.66340810836546       -0.76377022080102
C            3.10363921138258       -0.46774794983876       -0.78355701189221
C            1.47474236512994        1.92363476039441       -0.05552491623703
C            0.72728816620749        3.10098975586808       -0.03991196108139
C           -0.72635263913391        3.10131795768394        0.04028778868787
C           -1.47439766671729        1.92436096070671        0.05654175153015
C           -2.86183145405156        1.92500283719596        0.13036123050889
C           -3.59978260306757        0.66084378662360        0.12591613389318
C           -3.10354264811815       -0.46583725835099        0.78602522146843
C           -3.78625816039032       -1.66136157040693        0.76698856440686
C           -4.99036133222051       -1.78299715246094        0.06693820677244
N           -5.66900319557466       -2.99620978032749        0.02286443078723
C           -7.07154257310713       -3.01947278128857       -0.03370651379559
C           -7.82409734203962       -2.13194917185608        0.73453232407352
C           -9.20445537915463       -2.15991693643625        0.67558099042780
C           -9.85332891798104       -3.07331426043584       -0.13985267561407
C           -9.10938979215283       -3.96124027144998       -0.90036902655666
C           -7.72844237787070       -3.93621205661308       -0.85325441044109
C           -4.96227120648310       -4.20793037806013        0.02606403486693
C           -5.45644098029062       -5.30883224972215        0.72503306308477
C           -4.76289883130931       -6.50415037542611        0.72077513345887
C           -3.56656287725519       -6.61952016185143        0.03122310480707
C           -3.07092118617502       -5.52821125384708       -0.66417842800112
C           -3.76273300982336       -4.33210285863473       -0.67473318776725
C           -5.49423938239733       -0.65653391057488       -0.59035215994424
C           -4.81496543180907        0.54099233918547       -0.55167929654533
C           -3.53488356346141        3.15424164873642        0.19590474566614
C           -2.82896784695323        4.32903956453166        0.17902198887045
C           -1.42888763873697        4.32681550638234        0.09507761978042
C           -0.70976285329748        5.56602476052046        0.05464152426510
N           -1.38566198915517        6.71339569001388        0.11593204061396
C           -0.70465954542598        7.84785528691981        0.06286006941895
C           -1.40397713644473        9.07534260265409        0.13353474204947
N           -1.93489720208785       10.09091963832318        0.18675788176745
H            3.33361467599718        5.28099525202709       -0.23036351001173
H            4.61164809423631        3.17033752298774       -0.27713978638611
H            5.20926211577402        1.38568846708146        1.09655189807967
H            6.41663721508097       -0.73642588633536        1.14931239082941
H            7.14679932923989       -4.62730836482234        1.45705959328027
H            9.60492135693916       -4.67624520865365        1.55078821199995
H           10.93124364927131       -3.09452167550595        0.19401837254287
H            9.77835453525226       -1.46957961730144       -1.26549839460007
H            7.32084092098027       -1.42694206547277       -1.37033679471370
H            3.37842709093417       -3.49509529597226        1.22853946565785
H            2.14132621107332       -5.61863272125631        1.20012576180584
H            3.02704796887997       -7.55698726980685       -0.05045912531052
H            5.16040328756278       -7.34696977269079       -1.27829292605785
H            6.38797930852567       -5.21761249315079       -1.27145754585556
H            3.39573992598144       -2.51615263414283       -1.29924459444778
H            2.18930939050573       -0.39474587757451       -1.35339754261028
H            0.97655069375256        0.97172675383627        0.01924689861002
H           -0.97670922343502        0.97216823376073       -0.01789074022194
H           -2.18870874022849       -0.39288129260591        1.35504961046991
H           -3.39554326699878       -2.51422229639892        1.30203572712260
H           -7.31952501313050       -1.42609130432663        1.37826233201381
H           -9.77718106722044       -1.46921195367800        1.27723522208634
H          -10.93201528890154       -3.09363061141686       -0.18131400726955
H           -9.60745813873168       -4.67405829422110       -1.54134433368666
H           -7.14924790299854       -4.62446303986472       -1.45164386192509
H           -6.38446216224200       -5.21979917306158        1.27082997761577
H           -5.15612253144043       -7.34873649380106        1.26765692899832
H           -3.02547625862886       -7.55382850617237        0.03428054698038
H           -2.14298221706430       -5.61072828929495       -1.21122299914505
H           -3.38092487728954       -3.48766597122196       -1.22978994653122
H           -6.41871618240488       -0.73400500260179       -1.14328183673383
H           -5.21061872588027        1.38779114378788       -1.09235310775483
H           -4.61069976867019        3.17277050447625        0.27770461450590
H           -3.33157089739986        5.28276884184955        0.22959981649032

          :  Hamiltonian                  GFN2-xTB          :
         :: gradient norm              0.000158437028 Eh/a0 ::
         :: HOMO-LUMO gap              0.868974462845 eV    ::
         :: SCC energy              -153.401893153204 Eh    ::
         :: -> dispersion             -0.132706817773 Eh    ::
         :: -> Gsolv                  -0.073391301710 Eh    ::
         :: repulsion energy           2.867651938815 Eh    ::

    * Orbital Energies and Occupations

         #    Occupation            Energy/Eh            Energy/eV
      -------------------------------------------------------------
         1        2.0000           -0.7132105             -19.4074
       ...           ...                  ...                  ...
       128        2.0000           -0.4136529             -11.2561
       129        2.0000           -0.4113231             -11.1927
       130        2.0000           -0.4113042             -11.1922
       131        2.0000           -0.4088228             -11.1246
       132        2.0000           -0.4086811             -11.1208
       133        2.0000           -0.4084691             -11.1150
       134        2.0000           -0.4081557             -11.1065
       135        2.0000           -0.4066194             -11.0647
       136        2.0000           -0.4032218             -10.9722
       137        2.0000           -0.3984320             -10.8419
       138        2.0000           -0.3850544             -10.4779
       139        2.0000           -0.3548558              -9.6561
       140        2.0000           -0.3542630              -9.6400 (HOMO)
       141        0.0000           -0.3223289              -8.7710 (LUMO)
       142                         -0.3194329              -8.6922
       143                         -0.2705879              -7.3631
       144                         -0.2648071              -7.2058
       145                         -0.2511432              -6.8340
       146                         -0.2418682              -6.5816
       147                         -0.2357043              -6.4138
       148                         -0.2340903              -6.3699
       149                         -0.2340690              -6.3693
       150                         -0.2339511              -6.3661
       151                         -0.2317102              -6.3052
       ...                                ...                  ...
       274                          1.1483045              31.2470
      -------------------------------------------------------------
                  HL-Gap            0.0319341 Eh            0.8690 eV

     #   Z          covCN         q      C6AA      α(0)
     1   7 N        0.911    -0.233    26.110     7.390
     2   6 C        1.909     0.112    28.329     8.596
     3   6 C        2.952     0.098    25.825     8.335
     4   7 N        1.852    -0.242    27.164     7.725
     5   6 C        2.962     0.088    26.032     8.369
     6   6 C        2.988    -0.009    28.243     8.718
     7   6 C        2.919    -0.025    28.637     8.776
     8   6 C        2.920    -0.031    28.773     8.796
     9   6 C        2.974     0.023    27.477     8.598
    10   6 C        2.976    -0.000    28.024     8.684
    11   6 C        2.923    -0.032    28.794     8.800
    12   6 C        2.920    -0.049    29.207     8.862
    13   6 C        2.922     0.067    26.492     8.441
    14   7 N        2.752    -0.071    22.616     7.063
    15   6 C        2.925     0.064    26.559     8.451
    16   6 C        2.922    -0.046    29.140     8.852
    17   6 C        2.919    -0.029    28.730     8.790
    18   6 C        2.919    -0.037    28.920     8.819
    19   6 C        2.919    -0.029    28.734     8.790
    20   6 C        2.922    -0.046    29.149     8.854
    21   6 C        2.924     0.064    26.560     8.452
    22   6 C        2.922    -0.047    29.169     8.857
    23   6 C        2.919    -0.030    28.738     8.791
    24   6 C        2.919    -0.038    28.935     8.821
    25   6 C        2.919    -0.029    28.733     8.790
    26   6 C        2.922    -0.047    29.156     8.855
    27   6 C        2.920    -0.049    29.211     8.863
    28   6 C        2.923    -0.033    28.818     8.803
    29   6 C        2.928    -0.040    28.983     8.829
    30   6 C        2.974     0.010    27.801     8.649
    31   6 C        2.974     0.010    27.801     8.649
    32   6 C        2.928    -0.040    28.983     8.829
    33   6 C        2.974     0.023    27.477     8.598
    34   6 C        2.976     0.000    28.023     8.683
    35   6 C        2.923    -0.033    28.818     8.803
    36   6 C        2.920    -0.049    29.209     8.863
    37   6 C        2.922     0.067    26.492     8.441
    38   7 N        2.752    -0.071    22.616     7.063
    39   6 C        2.925     0.064    26.559     8.451
    40   6 C        2.922    -0.046    29.150     8.854
    41   6 C        2.919    -0.029    28.734     8.790
    42   6 C        2.919    -0.037    28.920     8.819
    43   6 C        2.919    -0.029    28.730     8.790
    44   6 C        2.922    -0.046    29.141     8.853
    45   6 C        2.924     0.064    26.560     8.452
    46   6 C        2.922    -0.047    29.156     8.855
    47   6 C        2.919    -0.029    28.733     8.790
    48   6 C        2.919    -0.038    28.935     8.821
    49   6 C        2.919    -0.030    28.738     8.791
    50   6 C        2.922    -0.047    29.170     8.857
    51   6 C        2.920    -0.049    29.207     8.862
    52   6 C        2.923    -0.032    28.794     8.800
    53   6 C        2.920    -0.031    28.773     8.796
    54   6 C        2.919    -0.025    28.637     8.776
    55   6 C        2.988    -0.009    28.243     8.718
    56   6 C        2.962     0.088    26.032     8.369
    57   7 N        1.852    -0.242    27.165     7.725
    58   6 C        2.952     0.098    25.826     8.335
    59   6 C        1.909     0.112    28.328     8.596
    60   7 N        0.911    -0.233    26.110     7.390
    61   1 H        0.926     0.054     2.271     2.357
    62   1 H        0.926     0.051     2.304     2.374
    63   1 H        0.926     0.040     2.448     2.447
    64   1 H        0.926     0.037     2.496     2.470
    65   1 H        0.926     0.034     2.532     2.488
    66   1 H        0.926     0.035     2.512     2.479
    67   1 H        0.926     0.034     2.533     2.489
    68   1 H        0.926     0.035     2.511     2.478
    69   1 H        0.926     0.035     2.522     2.483
    70   1 H        0.926     0.035     2.518     2.482
    71   1 H        0.926     0.036     2.502     2.474
    72   1 H        0.926     0.034     2.535     2.490
    73   1 H        0.926     0.034     2.523     2.484
    74   1 H        0.926     0.033     2.549     2.497
    75   1 H        0.926     0.038     2.472     2.459
    76   1 H        0.926     0.042     2.429     2.437
    77   1 H        0.926     0.057     2.231     2.336
    78   1 H        0.926     0.057     2.231     2.336
    79   1 H        0.926     0.042     2.428     2.437
    80   1 H        0.926     0.038     2.472     2.459
    81   1 H        0.926     0.035     2.522     2.483
    82   1 H        0.926     0.035     2.511     2.478
    83   1 H        0.926     0.034     2.533     2.489
    84   1 H        0.926     0.035     2.513     2.479
    85   1 H        0.926     0.034     2.532     2.488
    86   1 H        0.926     0.033     2.549     2.496
    87   1 H        0.926     0.034     2.523     2.484
    88   1 H        0.926     0.034     2.535     2.490
    89   1 H        0.926     0.036     2.502     2.474
    90   1 H        0.926     0.035     2.519     2.482
    91   1 H        0.926     0.037     2.496     2.470
    92   1 H        0.926     0.040     2.447     2.446
    93   1 H        0.926     0.051     2.304     2.374
    94   1 H        0.926     0.054     2.271     2.357

molecular dipole:
                 x           y           z       tot (Debye)
 q only:        0.001      -6.386       0.001
   full:        0.001      -6.845       0.000      17.399

 projected vibrational frequencies (cm⁻¹)
eigval :       -0.00    -0.00    -0.00    -0.00     0.00     0.00
eigval :        7.77     8.27    10.66    16.55    21.98    23.92
eigval :       29.10    38.39    42.74    47.48    49.30    52.49
eigval :       53.31    61.82    64.18    71.82    73.77    81.10
eigval :       94.96    95.54    96.00    97.49   107.13   115.59
eigval :      140.28   148.48   152.49   154.46   164.70   191.96
eigval :      202.75   210.32   223.20   230.93   233.38   244.87
eigval :      257.88   273.54   297.06   300.92   311.83   315.74
eigval :      326.52   336.14   340.89   347.23   376.63   376.68
eigval :      378.42   379.49   382.90   384.03   387.71   389.80
eigval :      391.03   395.36   400.14   413.71   422.32   433.24
eigval :      443.50   456.24   460.41   473.22   478.38   488.29
eigval :      492.27   499.42   503.31   517.18   535.01   540.21
eigval :      547.98   572.36   580.25   583.40   584.71   586.11
eigval :      590.64   593.57   593.68   600.47   605.68   613.86
eigval :      621.58   637.13   644.31   653.72   654.00   660.45
eigval :      660.97   665.48   667.88   682.99   690.50   694.43
eigval :      703.93   706.34   713.22   719.62   755.53   755.93
eigval :      756.61   758.19   761.28   761.84   770.96   809.53
eigval :      810.57   837.86   838.30   858.43   863.05   864.69
eigval :      868.32   873.25   873.25   873.60   874.33   875.80
eigval :      892.32   892.79   892.94   893.77   909.30   909.30
eigval :      910.64   916.03   916.09   924.09   924.35   926.28
eigval :      927.06   927.10   927.28   928.04   928.19   928.42
eigval :      928.65   929.44   929.77   930.76   936.15   981.63
eigval :      984.31  1004.18  1004.22  1006.01  1016.68  1037.39
eigval :     1062.49  1078.75  1081.23  1081.30  1082.30  1082.39
eigval :     1098.95  1119.82  1119.83  1121.94  1121.98  1141.37
eigval :     1142.22  1154.00  1157.79  1164.38  1178.76  1178.94
eigval :     1178.97  1179.42  1183.48  1183.91  1192.88  1193.25
eigval :     1195.02  1195.17  1211.92  1214.49  1222.54  1225.42
eigval :     1260.61  1264.79  1268.58  1271.69  1273.93  1276.21
eigval :     1276.70  1279.38  1279.72  1295.91  1300.44  1304.60
eigval :     1305.76  1314.09  1314.25  1322.59  1322.61  1324.38
eigval :     1325.23  1326.89  1328.58  1332.61  1336.50  1350.14
eigval :     1382.44  1397.17  1406.48  1410.98  1416.59  1432.20
eigval :     1433.81  1433.82  1436.47  1438.44  1440.43  1442.72
eigval :     1468.04  1468.05  1470.82  1471.03  1473.47  1475.81
eigval :     1493.67  1501.77  1530.27  1537.59  1548.73  1550.10
eigval :     1564.35  1573.12  1575.98  1576.00  1580.05  1580.26
eigval :     1590.38  1590.39  1592.33  1594.58  1599.40  1600.96
eigval :     2353.22  2355.65  3072.96  3072.99  3073.17  3073.17
eigval :     3074.03  3074.08  3074.57  3074.59  3079.16  3079.23
eigval :     3080.76  3080.83  3082.77  3082.80  3083.66  3083.75
eigval :     3085.58  3085.60  3086.64  3086.69  3090.75  3090.80
eigval :     3092.95  3093.01  3094.23  3094.30  3094.39  3094.42
eigval :     3095.07  3095.14  3104.80  3105.05  3113.84  3123.54

   temp. (K)  partition function   enthalpy   heat capacity  entropy
                                   cal/mol     cal/K/mol   cal/K/mol   J/K/mol
 298.15  VIB  0.617E+24            28801.413    176.770    182.820
         ROT  0.130E+09              888.752      2.981     40.116
         INT  0.805E+32            29690.165    179.751    222.936
         TR   0.205E+29             1481.254      4.968     45.770
         TOT                       31171.4189   184.7188   268.7056  1124.2644

       T/K    H(0)-H(T)+PV         H(T)/Eh          T*S/Eh         G(T)/Eh
   ------------------------------------------------------------------------
    298.15    0.496748E-01    0.756266E+00    0.127671E+00    0.628595E+00
   ------------------------------------------------------------------------

         :::::::::::::::::::::::::::::::::::::::::::::::::::::
         ::                  THERMODYNAMIC                  ::
         :::::::::::::::::::::::::::::::::::::::::::::::::::::
         :: total free energy        -149.905646078139 Eh   ::
         ::.................................................::
         :: total energy             -150.534241218033 Eh   ::
         :: zero point energy           0.706591045668 Eh   ::
         :: G(RRHO) w/o ZPVE           -0.077995905774 Eh   ::
         :: G(RRHO) contrib.            0.628595139894 Eh   ::
         :::::::::::::::::::::::::::::::::::::::::::::::::::::

           -------------------------------------------------
          | TOTAL ENERGY             -150.534241218033 Eh   |
          | TOTAL ENTHALPY           -149.777975354477 Eh   |
          | TOTAL FREE ENERGY        -149.905646078139 Eh   |
          | GRADIENT NORM               0.000158713263 Eh/α |
          | HOMO-LUMO GAP               0.868971575960 eV   |
           -------------------------------------------------

 * finished run on 2025/07/17 at 01:33:14.733
