   * xtb version 6.7.1 (edcfbbe) compiled by 'albert@albert-system' on 2024-07-22

   ID    Z sym.   atoms
    1   35 Br     1, 12
    2    6 C      2-5, 7-11, 13-21, 23, 24
    3    7 N      6, 22
    4    1 H      25-34

          program call               : xtb data2507/gas/D–A–D/D–A–D.xyz --gfn 2 --ohess vtight --parallel 40 --molden --ceasefiles --namespace data2507/gas/D–A–D/D–A–D_gas_S0_preOpt
          :  Hamiltonian                  GFN2-xTB          :
 * total energy  :   -61.9579356 Eh     change       -0.1916924E-08 Eh
 * total energy  :   -61.9684079 Eh     change       -0.1047229E-01 Eh
 * total energy  :   -61.9704133 Eh     change       -0.2005400E-02 Eh
 * total energy  :   -61.9705050 Eh     change       -0.9175005E-04 Eh
 * total energy  :   -61.9705302 Eh     change       -0.2515018E-04 Eh
 * total energy  :   -61.9705314 Eh     change       -0.1216260E-05 Eh
 * total energy  :   -61.9705315 Eh     change       -0.1236016E-06 Eh
 * total energy  :   -61.9705314 Eh     change        0.1289987E-06 Eh
 * total energy  :   -61.9705315 Eh     change       -0.1338155E-06 Eh
 * total energy  :   -61.9705314 Eh     change        0.1297020E-06 Eh
 * total energy  :   -61.9705315 Eh     change       -0.1316270E-06 Eh
 * total energy  :   -61.9705315 Eh     change        0.3130179E-07 Eh
 * total energy  :   -61.9705315 Eh     change       -0.3185679E-07 Eh
   *** GEOMETRY OPTIMIZATION CONVERGED AFTER 13 ITERATIONS ***

 final structure:
================
34
 xtb: 6.7.1 (edcfbbe)
Br           6.74305564071094       -1.31940401828544        0.00000078289853
C            5.03687761495633       -0.47606300579548        0.00000048042588
C            4.99239930148965        0.93155116647670        0.00000004001121
C            3.78884831628575        1.57328845623586       -0.00000018137616
C            2.58877924198745        0.82838948639589       -0.00000042143109
N            1.40858092099049        1.46112922637205        0.00000000562057
C            0.31169808325380        0.72745291457660       -0.00000024752606
C           -0.97344040186779        1.38904369485196       -0.00000203041493
C           -1.02309204689174        2.78644468915408       -0.00000417448965
C           -2.22442297401338        3.45371703240482        0.00000006235410
C           -3.39460307571711        2.70359998184584        0.00000859524887
Br          -5.07430263770640        3.60455552131417       -0.00000601485691
C           -3.37585558652570        1.32624809244184        0.00000203040161
C           -2.16177774025672        0.63120533309877       -0.00000217453298
C           -2.10115663128752       -0.82409746353126       -0.00000146983118
C           -3.24779763375709       -1.62646677741400        0.00000095638283
C           -3.16145954423530       -3.00199222278019        0.00000216294576
C           -1.92174772986208       -3.63094469882656        0.00000038638127
C           -0.77708151095455       -2.86819940362108       -0.00000124948552
C           -0.84992583673821       -1.47250073657925       -0.00000154120037
C            0.37298796711542       -0.70032061390287       -0.00000069379616
N            1.53019959265986       -1.33334645775921       -0.00000067412072
C            2.65007182229191       -0.59745610139300       -0.00000064641696
C            3.90573487307304       -1.24028697437838       -0.00000015158791
H            5.91754852728308        1.48744958077298        0.00000149835295
H            3.72367364126124        2.64982621503761        0.00000068944607
H           -0.08897703070540        3.32521981023214        0.00000154136950
H           -2.26625376800746        4.53160242949866        0.00000198525688
H           -4.31497866440904        0.79811898554520        0.00000178197755
H           -4.22744561088042       -1.17682365054683        0.00000055058762
H           -4.06542399007473       -3.59279681049690        0.00000013023124
H           -1.86032078494919       -4.70857787552154        0.00000064037487
H            0.20157055553015       -3.32132425612962        0.00000016587209
H            3.93803609995070       -2.31824054929355       -0.00000081507281

          :  Hamiltonian                  GFN2-xTB          :
         :: gradient norm              0.000038753800 Eh/a0 ::
         :: HOMO-LUMO gap              1.284382077527 eV    ::
         :: SCC energy               -62.966563926255 Eh    ::
         :: -> dispersion             -0.048203302546 Eh    ::
         :: repulsion energy           0.996032420179 Eh    ::

    * Orbital Energies and Occupations

         #    Occupation            Energy/Eh            Energy/eV
      -------------------------------------------------------------
         1        2.0000           -0.8449263             -22.9916
       ...           ...                  ...                  ...
        45        2.0000           -0.4527923             -12.3211
        46        2.0000           -0.4443341             -12.0909
        47        2.0000           -0.4442724             -12.0893
        48        2.0000           -0.4368645             -11.8877
        49        2.0000           -0.4362754             -11.8717
        50        2.0000           -0.4287208             -11.6661
        51        2.0000           -0.4195685             -11.4170
        52        2.0000           -0.4176878             -11.3659
        53        2.0000           -0.4173288             -11.3561
        54        2.0000           -0.4135853             -11.2542
        55        2.0000           -0.4101804             -11.1616
        56        2.0000           -0.4010860             -10.9141
        57        2.0000           -0.3681442             -10.0177 (HOMO)
        58                         -0.3209440              -8.7333 (LUMO)
        59                         -0.2865724              -7.7980
        60                         -0.2742947              -7.4639
        61                         -0.2477649              -6.7420
        62                         -0.2392691              -6.5108
        63                         -0.2240100              -6.0956
        64                         -0.2168201              -5.9000
        65                         -0.2137102              -5.8154
        66                         -0.2121328              -5.7724
        67                         -0.1751169              -4.7652
        68                         -0.1295854              -3.5262
       ...                                ...                  ...
       116                          0.6961032              18.9419
      -------------------------------------------------------------
                  HL-Gap            0.0472002 Eh            1.2844 eV

     #   Z          covCN         q      C6AA      α(0)
     1  35 Br       1.075    -0.151   189.220    22.179
     2   6 C        2.914     0.084    26.120     8.381
     3   6 C        2.988    -0.032    28.793     8.802
     4   6 C        2.919    -0.037    28.924     8.819
     5   6 C        2.967     0.081    26.189     8.394
     6   7 N        1.848    -0.234    26.979     7.698
     7   6 C        2.962     0.085    26.098     8.379
     8   6 C        2.987    -0.002    28.069     8.691
     9   6 C        2.928    -0.026    28.644     8.777
    10   6 C        2.987    -0.034    28.845     8.810
    11   6 C        2.916     0.085    26.104     8.378
    12  35 Br       1.072    -0.161   189.509    22.196
    13   6 C        3.000    -0.041    28.994     8.833
    14   6 C        2.978     0.010    27.782     8.646
    15   6 C        2.976     0.009    27.823     8.652
    16   6 C        2.922    -0.031    28.784     8.798
    17   6 C        2.918    -0.024    28.600     8.770
    18   6 C        2.917    -0.025    28.629     8.774
    19   6 C        2.924    -0.025    28.618     8.773
    20   6 C        2.988     0.001    27.998     8.680
    21   6 C        2.962     0.087    26.065     8.374
    22   7 N        1.849    -0.233    26.964     7.696
    23   6 C        2.971     0.083    26.140     8.386
    24   6 C        2.997    -0.046    29.136     8.854
    25   1 H        0.926     0.062     2.171     2.304
    26   1 H        0.926     0.065     2.145     2.290
    27   1 H        0.926     0.071     2.072     2.251
    28   1 H        0.926     0.058     2.217     2.328
    29   1 H        0.926     0.058     2.220     2.330
    30   1 H        0.926     0.042     2.424     2.435
    31   1 H        0.926     0.042     2.426     2.435
    32   1 H        0.926     0.043     2.410     2.428
    33   1 H        0.926     0.064     2.153     2.294
    34   1 H        0.926     0.072     2.064     2.247

molecular dipole:
                 x           y           z       tot (Debye)
 q only:       -0.395      -0.317       0.000
   full:       -0.419      -0.302       0.000       1.312

 projected vibrational frequencies (cm⁻¹)
eigval :       -0.00    -0.00    -0.00    -0.00     0.00     0.00
eigval :       22.78    47.71    59.57    68.16    78.41   115.30
eigval :      121.08   148.68   150.01   199.36   218.95   247.87
eigval :      250.31   284.33   303.29   346.14   352.36   375.02
eigval :      384.63   408.20   414.56   424.72   442.71   477.77
eigval :      514.45   551.54   551.89   557.74   575.17   593.45
eigval :      604.04   620.14   663.57   681.37   699.65   707.98
eigval :      732.82   768.71   779.28   783.70   810.44   823.27
eigval :      838.73   859.89   868.92   876.75   877.67   914.16
eigval :      920.34   920.78   930.64   940.30  1027.12  1059.31
eigval :     1067.28  1086.64  1110.22  1143.54  1149.24  1152.28
eigval :     1180.48  1205.53  1227.44  1236.77  1253.90  1281.66
eigval :     1288.99  1299.03  1317.73  1333.51  1339.89  1363.44
eigval :     1394.71  1408.87  1421.06  1428.55  1456.97  1469.91
eigval :     1483.05  1503.90  1532.07  1547.79  1564.75  1571.95
eigval :     1586.32  1593.77  3083.39  3094.05  3096.27  3102.16
eigval :     3107.20  3108.34  3109.43  3112.43  3114.69  3119.88

   temp. (K)  partition function   enthalpy   heat capacity  entropy
                                   cal/mol     cal/K/mol   cal/K/mol   J/K/mol
 298.15  VIB  0.438E+07             9970.860     65.623     60.415
         ROT  0.262E+08              888.752      2.981     36.922
         INT  0.115E+15            10859.612     68.604     97.337
         TR   0.887E+28             1481.254      4.968     44.102
         TOT                       12340.8659    73.5725   141.4390   591.7808

       T/K    H(0)-H(T)+PV         H(T)/Eh          T*S/Eh         G(T)/Eh
   ------------------------------------------------------------------------
    298.15    0.196664E-01    0.254420E+00    0.672022E-01    0.187218E+00
   ------------------------------------------------------------------------

         :::::::::::::::::::::::::::::::::::::::::::::::::::::
         ::                  THERMODYNAMIC                  ::
         :::::::::::::::::::::::::::::::::::::::::::::::::::::
         :: total free energy         -61.783313960519 Eh   ::
         ::.................................................::
         :: total energy              -61.970531506087 Eh   ::
         :: zero point energy           0.234753363149 Eh   ::
         :: G(RRHO) w/o ZPVE           -0.047535817581 Eh   ::
         :: G(RRHO) contrib.            0.187217545568 Eh   ::
         :::::::::::::::::::::::::::::::::::::::::::::::::::::

           -------------------------------------------------
          | TOTAL ENERGY              -61.970531506087 Eh   |
          | TOTAL ENTHALPY            -61.716111721244 Eh   |
          | TOTAL FREE ENERGY         -61.783313960519 Eh   |
          | GRADIENT NORM               0.000038774360 Eh/α |
          | HOMO-LUMO GAP               1.284382881640 eV   |
           -------------------------------------------------

 * finished run on 2025/09/02 at 18:27:40.053
