   * xtb version 6.7.1 (edcfbbe) compiled by 'albert@albert-system' on 2024-07-22

   ID    Z sym.   atoms
    1   35 Br     1, 12
    2    6 C      2-5, 7-11, 13-21, 23, 24
    3    7 N      6, 22
    4    1 H      25-34

          program call               : xtb data2507/gas/D–A–D/D–A–D_gas_T1_crest.xyz --gfn 2 --spinpol --tblite --uhf 2 --ohess vtight --parallel 40 --molden --ceasefiles --namespace data2507/gas/D–A–D/D–A–D_gas_T1_finalOpt
 * total energy  :   -61.9273594 Eh     change        0.2466304E-07 Eh
 * total energy  :   -61.9273928 Eh     change       -0.3344604E-04 Eh
 * total energy  :   -61.9274065 Eh     change       -0.1371325E-04 Eh
 * total energy  :   -61.9274081 Eh     change       -0.1599978E-05 Eh
 * total energy  :   -61.9274086 Eh     change       -0.4584049E-06 Eh
 * total energy  :   -61.9274088 Eh     change       -0.2707342E-06 Eh
 * total energy  :   -61.9274091 Eh     change       -0.2434387E-06 Eh
 * total energy  :   -61.9274093 Eh     change       -0.1978921E-06 Eh
 * total energy  :   -61.9274094 Eh     change       -0.1531454E-06 Eh
 * total energy  :   -61.9274096 Eh     change       -0.1133870E-06 Eh
 * total energy  :   -61.9274097 Eh     change       -0.1012527E-06 Eh
 * total energy  :   -61.9274097 Eh     change       -0.8653436E-07 Eh
   *** GEOMETRY OPTIMIZATION CONVERGED AFTER 12 ITERATIONS ***

 final structure:
================
34
 xtb: 6.7.1 (edcfbbe)
Br           6.63528153294250        0.41893650346637        0.00041922801485
C            4.75468730267028        0.70495580963629        0.00738586394511
C            4.26411904899452        2.00040524810508        0.01556684279459
C            2.89650101398106        2.20784810290516        0.01973119728738
C            2.00233521920963        1.14062964616782        0.01577803537953
N            0.68438127767109        1.29166077801296        0.01799736849286
C           -0.16456559741020        0.27485153302921        0.01324494588235
C           -1.57619932908508        0.47607891403393        0.01227779814496
C           -2.07590023720514        1.79050831581557        0.01624319264772
C           -3.42290841321710        2.03513609686654        0.01285851847170
C           -4.29819973111613        0.94858770503553        0.00517636215528
Br          -6.17616828280298        1.27526532949518       -0.00153466200889
C           -3.84308093353023       -0.34763878581874        0.00208134319024
C           -2.46861896434435       -0.62222565301764        0.00599858240551
C           -1.94307719173630       -1.96733783050944        0.00341539404118
C           -2.75995472241444       -3.10785652982585        0.00059847826066
C           -2.22459275105237       -4.37350120424403       -0.00183530823555
C           -0.84143563709712       -4.55551535248704       -0.00164061849834
C           -0.01324358673856       -3.46368112229849        0.00120033931327
C           -0.54279479315393       -2.16201376753881        0.00393435586349
C            0.35641164727978       -1.05233649821672        0.00738953918312
N            1.66803655638418       -1.22015337367874        0.00524384636725
C            2.53269138274332       -0.21235344247888        0.00815030309533
C            3.91054371578600       -0.39329824230541        0.00394421983120
H            4.94148069823068        2.83933245994460        0.01843054899849
H            2.49489369140127        3.20851618657369        0.02578854888530
H           -1.36712530412563        2.60408068083241        0.02165276337816
H           -3.80731476770575        3.04296261898052        0.01563704100739
H           -4.56228727576264       -1.14991038825999       -0.00395004652288
H           -3.83279503492400       -3.00350435532843        0.00068660917400
H           -2.87874633655496       -5.23237597711491       -0.00383240959933
H           -0.42778015811046       -5.55250000049243       -0.00357120432204
H            1.06037371790579       -3.57386640441531        0.00165394628047
H            4.30199849018724       -1.39792238647002       -0.00216761560436

 projected vibrational frequencies (cm⁻¹)
eigval :       -0.00    -0.00     0.00     0.00     0.00     0.00
eigval :       21.49    51.01    61.90    66.69    82.02   119.59
eigval :      123.23   141.86   148.32   196.60   216.74   232.97
eigval :      249.60   274.11   301.88   329.66   347.96   370.73
eigval :      385.44   406.86   414.91   417.23   450.39   478.67
eigval :      518.61   532.70   541.65   547.88   572.56   592.05
eigval :      606.39   612.05   613.36   663.12   669.37   677.83
eigval :      708.92   720.61   772.18   781.31   793.77   804.25
eigval :      814.38   831.13   855.62   868.70   872.25   875.59
eigval :      910.74   912.69   912.87   923.18  1012.27  1058.78
eigval :     1084.03  1085.26  1107.27  1134.26  1146.38  1151.48
eigval :     1179.57  1216.50  1219.67  1231.66  1242.00  1250.44
eigval :     1266.94  1293.94  1300.20  1321.96  1343.78  1362.14
eigval :     1363.79  1386.37  1403.86  1408.36  1415.73  1458.18
eigval :     1469.99  1486.43  1522.74  1525.57  1529.14  1548.11
eigval :     1565.59  1588.60  3084.60  3091.94  3096.47  3100.84
eigval :     3100.99  3107.47  3107.76  3107.96  3112.27  3119.37

   temp. (K)  partition function   enthalpy   heat capacity  entropy
                                   cal/mol     cal/K/mol   cal/K/mol   J/K/mol
 298.15  VIB  0.490E+07            10120.174     66.775     61.238
         ROT  0.263E+08              888.752      2.981     36.934
         INT  0.129E+15            11008.927     69.755     98.172
         TR   0.887E+28             1481.254      4.968     44.102
         TOT                       12490.1807    74.7235   142.2738   595.2734

       T/K    H(0)-H(T)+PV         H(T)/Eh          T*S/Eh         G(T)/Eh
   ------------------------------------------------------------------------
    298.15    0.199044E-01    0.252520E+00    0.675989E-01    0.184921E+00
   ------------------------------------------------------------------------

         :::::::::::::::::::::::::::::::::::::::::::::::::::::
         ::                  THERMODYNAMIC                  ::
         :::::::::::::::::::::::::::::::::::::::::::::::::::::
         :: total free energy         -61.742489034203 Eh   ::
         ::.................................................::
         :: total energy              -61.927409742817 Eh   ::
         :: zero point energy           0.232615190015 Eh   ::
         :: G(RRHO) w/o ZPVE           -0.047694481401 Eh   ::
         :: G(RRHO) contrib.            0.184920708614 Eh   ::
         :::::::::::::::::::::::::::::::::::::::::::::::::::::

           -------------------------------------------------
          | TOTAL ENERGY              -61.927409742817 Eh   |
          | TOTAL ENTHALPY            -61.674890182832 Eh   |
          | TOTAL FREE ENERGY         -61.742489034203 Eh   |
          | GRADIENT NORM               0.000033885444 Eh/α |
           -------------------------------------------------

 * finished run on 2025/09/02 at 18:30:27.778
