   * xtb version 6.7.1 (edcfbbe) compiled by 'albert@albert-system' on 2024-07-22

   ID    Z sym.   atoms
    1   35 Br     1, 12
    2    6 C      2-5, 7-11, 13-21, 23, 24
    3    7 N      6, 22
    4    1 H      25-34

          program call               : xtb data2507/gas/D–A–D/D–A–D_gas_S0_crest.xyz --gfn 2 --ohess vtight --parallel 40 --molden --ceasefiles --namespace data2507/gas/D–A–D/D–A–D_gas_S0_finalOpt
          :  Hamiltonian                  GFN2-xTB          :
 * total energy  :   -61.9705270 Eh     change       -0.1751573E-08 Eh
 * total energy  :   -61.9705281 Eh     change       -0.1084789E-05 Eh
 * total energy  :   -61.9705292 Eh     change       -0.1103549E-05 Eh
 * total energy  :   -61.9705302 Eh     change       -0.1015029E-05 Eh
 * total energy  :   -61.9705309 Eh     change       -0.6707066E-06 Eh
 * total energy  :   -61.9705311 Eh     change       -0.2409116E-06 Eh
 * total energy  :   -61.9705311 Eh     change        0.2743093E-07 Eh
 * total energy  :   -61.9705312 Eh     change       -0.1393509E-06 Eh
 * total energy  :   -61.9705313 Eh     change       -0.7680959E-07 Eh
   *** GEOMETRY OPTIMIZATION CONVERGED AFTER 9 ITERATIONS ***

 final structure:
================
34
 xtb: 6.7.1 (edcfbbe)
Br           6.61115959779646        0.43140300918819       -0.00091109810595
C            4.72383167550534        0.67684196742552        0.00183036673968
C            4.22596603865593        1.99421924385182        0.00437874226846
C            2.87946093403116        2.21166392787825        0.00616507424364
C            1.98525448748301        1.11830547540098        0.00546973969135
N            0.66376300294158        1.33482345057373        0.00662036410754
C           -0.13647814233859        0.28550637328075        0.00559068349479
C           -1.56657934982791        0.49534924861045        0.00635660242311
C           -2.06601347420559        1.80139341247626        0.01005611853286
C           -3.41868289557449        2.04374627608443        0.01111860623703
C           -4.28294720571731        0.95515150048498        0.00824194212028
Br          -6.16389612382370        1.26370983606994        0.01006857146922
C           -3.81925241866830       -0.34192863041437        0.00452656584579
C           -2.44553069773350       -0.60642594756071        0.00352605307656
C           -1.91696848038784       -1.96367945801660        0.00057531436999
C           -2.74205242096927       -3.09408637264474       -0.00345379253679
C           -2.21499535455794       -4.36755805021270       -0.00460735499243
C           -0.83841333881115       -4.56124079671377       -0.00160421389468
C           -0.00237707485514       -3.46896647860067        0.00144119449966
C           -0.52319367935110       -2.17202797530204        0.00214054630845
C            0.38381405582770       -1.04550177828734        0.00375582469317
N            1.68366156457570       -1.26972368346182        0.00270218578491
C            2.50492168582277       -0.21086985311870        0.00328370117946
C            3.90108334321331       -0.41248042869865        0.00140652006016
H            4.92126405538262        2.81973051430012        0.00459997956213
H            2.46919686853367        3.20909328487345        0.00790125638285
H           -1.35667719149238        2.61360635937506        0.01208173392254
H           -3.80724178754728        3.05002909944315        0.01408517124418
H           -4.53678036317941       -1.14569029466279        0.00278400260744
H           -3.81451878407049       -2.98584778206250       -0.00595292833269
H           -2.87897576348945       -5.21921873372923       -0.00774361183407
H           -0.43137953626394       -5.56093801681696       -0.00184693735978
H            1.07026930825195       -3.58082444290197        0.00332671864827
H            4.28068618194361       -1.42190551851152       -0.00043943705715

          :  Hamiltonian                  GFN2-xTB          :
         :: gradient norm              0.000043355190 Eh/a0 ::
         :: HOMO-LUMO gap              1.284345198882 eV    ::
         :: SCC energy               -62.966561215108 Eh    ::
         :: -> dispersion             -0.048203399632 Eh    ::
         :: repulsion energy           0.996029919746 Eh    ::

    * Orbital Energies and Occupations

         #    Occupation            Energy/Eh            Energy/eV
      -------------------------------------------------------------
         1        2.0000           -0.8449266             -22.9916
       ...           ...                  ...                  ...
        45        2.0000           -0.4527933             -12.3211
        46        2.0000           -0.4443349             -12.0910
        47        2.0000           -0.4442723             -12.0893
        48        2.0000           -0.4368645             -11.8877
        49        2.0000           -0.4362748             -11.8716
        50        2.0000           -0.4287200             -11.6661
        51        2.0000           -0.4195687             -11.4170
        52        2.0000           -0.4176870             -11.3658
        53        2.0000           -0.4173288             -11.3561
        54        2.0000           -0.4135853             -11.2542
        55        2.0000           -0.4101795             -11.1616
        56        2.0000           -0.4010856             -10.9141
        57        2.0000           -0.3681443             -10.0177 (HOMO)
        58                         -0.3209455              -8.7334 (LUMO)
        59                         -0.2865732              -7.7981
        60                         -0.2742956              -7.4640
        61                         -0.2477650              -6.7420
        62                         -0.2392687              -6.5108
        63                         -0.2240101              -6.0956
        64                         -0.2168199              -5.9000
        65                         -0.2137096              -5.8153
        66                         -0.2121361              -5.7725
        67                         -0.1751169              -4.7652
        68                         -0.1295863              -3.5262
       ...                                ...                  ...
       116                          0.6961022              18.9419
      -------------------------------------------------------------
                  HL-Gap            0.0471988 Eh            1.2843 eV

     #   Z          covCN         q      C6AA      α(0)
     1  35 Br       1.075    -0.151   189.220    22.179
     2   6 C        2.914     0.084    26.120     8.381
     3   6 C        2.988    -0.032    28.793     8.802
     4   6 C        2.919    -0.037    28.924     8.819
     5   6 C        2.967     0.081    26.189     8.394
     6   7 N        1.848    -0.234    26.979     7.698
     7   6 C        2.962     0.085    26.098     8.379
     8   6 C        2.987    -0.002    28.069     8.691
     9   6 C        2.928    -0.026    28.644     8.777
    10   6 C        2.987    -0.034    28.845     8.810
    11   6 C        2.916     0.085    26.104     8.378
    12  35 Br       1.072    -0.161   189.510    22.196
    13   6 C        3.000    -0.041    28.994     8.833
    14   6 C        2.978     0.010    27.782     8.646
    15   6 C        2.976     0.009    27.823     8.652
    16   6 C        2.922    -0.031    28.784     8.798
    17   6 C        2.918    -0.024    28.600     8.770
    18   6 C        2.917    -0.025    28.629     8.774
    19   6 C        2.924    -0.025    28.618     8.773
    20   6 C        2.988     0.001    27.998     8.680
    21   6 C        2.962     0.087    26.065     8.374
    22   7 N        1.849    -0.233    26.964     7.696
    23   6 C        2.971     0.083    26.140     8.386
    24   6 C        2.997    -0.046    29.136     8.854
    25   1 H        0.926     0.062     2.171     2.304
    26   1 H        0.926     0.065     2.145     2.290
    27   1 H        0.926     0.071     2.072     2.251
    28   1 H        0.926     0.058     2.217     2.328
    29   1 H        0.926     0.058     2.220     2.330
    30   1 H        0.926     0.042     2.424     2.435
    31   1 H        0.926     0.042     2.426     2.435
    32   1 H        0.926     0.043     2.410     2.428
    33   1 H        0.926     0.064     2.153     2.294
    34   1 H        0.926     0.072     2.064     2.247

molecular dipole:
                 x           y           z       tot (Debye)
 q only:       -0.271      -0.428      -0.000
   full:       -0.298      -0.422      -0.000       1.313

 projected vibrational frequencies (cm⁻¹)
eigval :       -0.00    -0.00     0.00     0.00     0.00     0.00
eigval :       18.93    46.18    56.60    68.30    77.65   114.80
eigval :      121.14   148.68   150.16   199.33   218.89   247.41
eigval :      250.26   284.07   303.28   344.85   352.39   374.62
eigval :      384.61   408.28   414.49   424.22   443.11   477.78
eigval :      514.51   551.55   551.99   557.69   575.18   593.49
eigval :      604.03   620.26   663.60   681.39   699.72   707.95
eigval :      732.81   768.79   779.50   783.74   811.32   823.34
eigval :      838.70   859.90   868.76   876.91   877.73   914.82
eigval :      920.43   920.78   930.72   940.32  1027.14  1059.19
eigval :     1067.07  1086.54  1110.06  1143.57  1149.27  1152.27
eigval :     1180.47  1205.57  1227.50  1236.81  1253.90  1281.63
eigval :     1288.99  1299.11  1317.71  1333.46  1339.87  1363.42
eigval :     1394.70  1408.89  1421.03  1428.54  1456.97  1469.94
eigval :     1483.04  1503.89  1532.07  1547.79  1564.74  1571.94
eigval :     1586.36  1593.76  3083.35  3094.00  3096.16  3101.73
eigval :     3107.17  3108.09  3108.80  3112.45  3114.59  3119.60

   temp. (K)  partition function   enthalpy   heat capacity  entropy
                                   cal/mol     cal/K/mol   cal/K/mol   J/K/mol
 298.15  VIB  0.569E+07             9984.699     65.524     60.622
         ROT  0.262E+08              888.752      2.981     36.922
         INT  0.149E+15            10873.451     68.505     97.544
         TR   0.887E+28             1481.254      4.968     44.102
         TOT                       12354.7053    73.4734   141.6457   592.6454

       T/K    H(0)-H(T)+PV         H(T)/Eh          T*S/Eh         G(T)/Eh
   ------------------------------------------------------------------------
    298.15    0.196885E-01    0.254415E+00    0.673004E-01    0.187115E+00
   ------------------------------------------------------------------------

         :::::::::::::::::::::::::::::::::::::::::::::::::::::
         ::                  THERMODYNAMIC                  ::
         :::::::::::::::::::::::::::::::::::::::::::::::::::::
         :: total free energy         -61.783416559011 Eh   ::
         ::.................................................::
         :: total energy              -61.970531295367 Eh   ::
         :: zero point energy           0.234726680975 Eh   ::
         :: G(RRHO) w/o ZPVE           -0.047611944619 Eh   ::
         :: G(RRHO) contrib.            0.187114736355 Eh   ::
         :::::::::::::::::::::::::::::::::::::::::::::::::::::

           -------------------------------------------------
          | TOTAL ENERGY              -61.970531295367 Eh   |
          | TOTAL ENTHALPY            -61.716116138197 Eh   |
          | TOTAL FREE ENERGY         -61.783416559011 Eh   |
          | GRADIENT NORM               0.000043482942 Eh/α |
          | HOMO-LUMO GAP               1.284345565396 eV   |
           -------------------------------------------------

 * finished run on 2025/09/02 at 18:29:01.307
