   * xtb version 6.7.1 (edcfbbe) compiled by 'albert@albert-system' on 2024-07-22

   ID    Z sym.   atoms
    1   35 Br     1, 12
    2    6 C      2-5, 7-11, 13-21, 23, 24
    3    7 N      6, 22
    4    1 H      25-34

          program call               : xtb data2507/gas/D–A–D/D–A–D_gas_S0_finalOpt.xtbopt.xyz --gfn 2 --spinpol --tblite --uhf 2 --ohess vtight --parallel 40 --molden --ceasefiles --namespace data2507/gas/D–A–D/D–A–D_gas_T1_preOpt
 * total energy  :   -61.9217423 Eh     change        0.1939666E-07 Eh
 * total energy  :   -61.9258724 Eh     change       -0.4130093E-02 Eh
 * total energy  :   -61.9272104 Eh     change       -0.1338061E-02 Eh
 * total energy  :   -61.9273629 Eh     change       -0.1524488E-03 Eh
 * total energy  :   -61.9274087 Eh     change       -0.4581473E-04 Eh
 * total energy  :   -61.9274100 Eh     change       -0.1280808E-05 Eh
 * total energy  :   -61.9274102 Eh     change       -0.2013069E-06 Eh
 * total energy  :   -61.9274102 Eh     change       -0.3726496E-07 Eh
   *** GEOMETRY OPTIMIZATION CONVERGED AFTER 8 ITERATIONS ***

 final structure:
================
34
 xtb: 6.7.1 (edcfbbe)
Br           6.63749910353383        0.41694041851451        0.00025316886725
C            4.75697669491332        0.70353392878742        0.00245864969455
C            4.26678401640675        1.99916379474701        0.00461644195697
C            2.89923692842381        2.20700485335344        0.00612557235052
C            2.00477035455755        1.14002024677844        0.00544777241054
N            0.68686401628734        1.29144349255556        0.00661073018601
C           -0.16240946603652        0.27491430942996        0.00547192798588
C           -1.57397669429308        0.47661026606258        0.00637871057681
C           -2.07321103655236        1.79121782011404        0.00951909048739
C           -3.42014188089110        2.03630318919870        0.01048824381902
C           -4.29581165689742        0.95003868571255        0.00820612037645
Br          -6.17368446110359        1.27733440863214        0.00951714472669
C           -3.84114391096788       -0.34634763062703        0.00509898990939
C           -2.46676702032027       -0.62139685188972        0.00413915031914
C           -1.94166777818950       -1.96667970947015        0.00127833795940
C           -2.75892199415544       -3.10692414729525       -0.00163810918327
C           -2.22398214932082       -4.37275233973892       -0.00369081158482
C           -0.84088868693569       -4.55522788494163       -0.00281520405377
C           -0.01233124305530       -3.46366310169487       -0.00038316864841
C           -0.54144499543423       -2.16181765151127        0.00147158822430
C            0.35814031679642       -1.05244063054273        0.00321511120344
N            1.66972893171844       -1.22066660121725        0.00243467670695
C            2.53470684697797       -0.21311267371386        0.00320613942147
C            3.91251369883733       -0.39446849475907        0.00179046987469
H            4.94442068619135        2.83787385094811        0.00508171235725
H            2.49785256578138        3.20778242299426        0.00779465036579
H           -1.36413659772023        2.60454422272087        0.01122546211179
H           -3.80419876934008        3.04426233187415        0.01298706668835
H           -4.56064995518706       -1.14837289599404        0.00352592885439
H           -3.83172942310634       -3.00222554506538       -0.00238834291557
H           -2.87843255518704       -5.23139974349314       -0.00596133130142
H           -0.42756324712508       -5.55234806858050       -0.00416003887721
H            1.06124795716483       -3.57420982777024        0.00013368591470
H            4.30364086878712       -1.39924063676934        0.00008779920117

 projected vibrational frequencies (cm⁻¹)
eigval :       -0.00    -0.00     0.00     0.00     0.00     0.00
eigval :       21.49    51.01    61.90    66.69    82.02   119.59
eigval :      123.24   141.85   148.30   196.60   216.76   232.98
eigval :      249.58   274.11   301.86   329.66   347.95   370.73
eigval :      385.39   406.86   415.02   417.23   450.39   478.65
eigval :      518.60   532.70   541.64   547.88   572.63   592.09
eigval :      606.43   612.05   613.37   663.12   669.37   677.73
eigval :      708.95   720.61   772.17   781.29   793.79   804.27
eigval :      814.37   831.12   855.62   868.64   872.25   875.60
eigval :      910.73   912.65   912.87   923.18  1012.29  1058.83
eigval :     1084.03  1085.33  1107.30  1134.28  1146.41  1151.48
eigval :     1179.56  1216.56  1219.77  1231.74  1241.92  1250.35
eigval :     1266.99  1293.74  1300.29  1321.93  1343.58  1362.16
eigval :     1363.91  1386.40  1403.85  1408.35  1415.73  1458.18
eigval :     1470.05  1486.40  1522.79  1525.60  1529.23  1548.13
eigval :     1565.58  1588.55  3084.61  3091.94  3096.50  3100.85
eigval :     3100.98  3107.49  3107.75  3107.95  3112.25  3119.39

   temp. (K)  partition function   enthalpy   heat capacity  entropy
                                   cal/mol     cal/K/mol   cal/K/mol   J/K/mol
 298.15  VIB  0.491E+07            10120.173     66.774     61.238
         ROT  0.263E+08              888.752      2.981     36.934
         INT  0.129E+15            11008.925     69.755     98.173
         TR   0.887E+28             1481.254      4.968     44.102
         TOT                       12490.1791    74.7232   142.2741   595.2749

       T/K    H(0)-H(T)+PV         H(T)/Eh          T*S/Eh         G(T)/Eh
   ------------------------------------------------------------------------
    298.15    0.199044E-01    0.252520E+00    0.675990E-01    0.184921E+00
   ------------------------------------------------------------------------

         :::::::::::::::::::::::::::::::::::::::::::::::::::::
         ::                  THERMODYNAMIC                  ::
         :::::::::::::::::::::::::::::::::::::::::::::::::::::
         :: total free energy         -61.742489020562 Eh   ::
         ::.................................................::
         :: total energy              -61.927410196530 Eh   ::
         :: zero point energy           0.232615836447 Eh   ::
         :: G(RRHO) w/o ZPVE           -0.047694660479 Eh   ::
         :: G(RRHO) contrib.            0.184921175968 Eh   ::
         :::::::::::::::::::::::::::::::::::::::::::::::::::::

           -------------------------------------------------
          | TOTAL ENERGY              -61.927410196530 Eh   |
          | TOTAL ENTHALPY            -61.674889992760 Eh   |
          | TOTAL FREE ENERGY         -61.742489020562 Eh   |
          | GRADIENT NORM               0.000029536458 Eh/α |
           -------------------------------------------------

 * finished run on 2025/09/02 at 18:29:02.472
