   * xtb version 6.7.1 (edcfbbe) compiled by 'albert@albert-system' on 2024-07-22

   ID    Z sym.   atoms
    1    6 C      1-36
    2    1 H      37-80

          program call               : xtb data2507/gas/TBPe/TBPe_gas_S0_finalOpt.xtbopt.xyz --gfn 2 --spinpol --tblite --uhf 2 --ohess vtight --parallel 40 --molden --ceasefiles --namespace data2507/gas/TBPe/TBPe_gas_T1_preOpt
 * total energy  :   -99.5674520 Eh     change       -0.2544638E-08 Eh
 * total energy  :   -99.5734905 Eh     change       -0.6038482E-02 Eh
 * total energy  :   -99.5749808 Eh     change       -0.1490288E-02 Eh
 * total energy  :   -99.5750299 Eh     change       -0.4909420E-04 Eh
 * total energy  :   -99.5750443 Eh     change       -0.1441779E-04 Eh
 * total energy  :   -99.5750483 Eh     change       -0.4020967E-05 Eh
 * total energy  :   -99.5750502 Eh     change       -0.1907451E-05 Eh
 * total energy  :   -99.5750516 Eh     change       -0.1305098E-05 Eh
 * total energy  :   -99.5750528 Eh     change       -0.1270662E-05 Eh
 * total energy  :   -99.5750536 Eh     change       -0.7589326E-06 Eh
 * total energy  :   -99.5750544 Eh     change       -0.2871632E-06 Eh
 * total energy  :   -99.5750547 Eh     change       -0.2472975E-06 Eh
 * total energy  :   -99.5750549 Eh     change       -0.2116328E-06 Eh
 * total energy  :   -99.5750550 Eh     change       -0.1600867E-06 Eh
 * total energy  :   -99.5750552 Eh     change       -0.1694149E-06 Eh
 * total energy  :   -99.5750555 Eh     change       -0.2814958E-06 Eh
 * total energy  :   -99.5750557 Eh     change       -0.2394187E-06 Eh
 * total energy  :   -99.5750559 Eh     change       -0.1935804E-06 Eh
 * total energy  :   -99.5750559 Eh     change       -0.1801627E-07 Eh
   *** GEOMETRY OPTIMIZATION CONVERGED AFTER 22 ITERATIONS ***

 final structure:
================
80
 xtb: 6.7.1 (edcfbbe)
C            5.10234636439549        3.62506824065052        0.10163494148394
C            3.57987322502204        3.78658592089907        0.09973148075724
C            3.19112507869317        4.61441579228324       -1.13331594220073
C            3.17949135623580        4.53586101779259        1.37853799469079
C            2.84774082727925        2.45238598814087        0.05608465842877
C            3.51679041670450        1.23020180462745        0.02709588448063
C            2.81929630288440        0.00996209858292        0.00033140140843
C            3.52543060415933       -1.20530145472396       -0.02638362890103
C            2.86506538148254       -2.43221470409846       -0.05479614420831
C            3.60666648369671       -3.76121021880172       -0.09741971180965
C            3.21144850369336       -4.51467300468795       -1.37535993122053
C            3.22398887390429       -4.59048032348050        1.13657059611373
C            5.12795533249183       -3.58886494197234       -0.09971861448333
C            1.48582396488658       -2.42778700082624       -0.04448572829186
C            0.71590551408988       -1.23553808212516       -0.01013885825402
C           -0.70711368956958       -1.24057460542672        0.01251453387100
C           -1.46855183177782       -2.43822960420627        0.04780239457499
C           -2.84772230595515       -2.45242179727103        0.05879753548751
C           -3.57986035777505       -3.78659068945560        0.10333355551065
C           -3.19210619782498       -4.61467233300619       -1.12985783912091
C           -3.17848573678664       -4.53562353523831        1.38197070772257
C           -5.10233103285644       -3.62502336363894        0.10643085696144
C           -3.51677517003716       -1.23024158854815        0.02973368190379
C           -2.81928730876693       -0.01001585383434        0.00211426443325
C           -3.52541287903997        1.20525129921851       -0.02458450025430
C           -2.86505662872719        2.43214266482673       -0.05396194984539
C           -3.60665155506457        3.76113548336537       -0.09673962325894
C           -3.22295069738206        4.59113933969203        1.13643906871244
C           -3.21244486174323        4.51380751813234       -1.37545843844547
C           -5.12794454641151        3.58883242975521       -0.09769023841804
C           -1.48581260198441        2.42769432781113       -0.04457284784470
C           -0.71589530948462        1.23545396668531       -0.01019339142500
C            0.70713087478373        1.24049926978222        0.01156771566427
C            1.46856999753432        2.43817080592016        0.04591495656144
C            1.40010242529495        0.00492460178294        0.00053981103970
C           -1.40008896455135       -0.00499723685797        0.00142589296563
H            5.44361113297438        3.12031242902676       -0.79928026984561
H            5.57075881738338        4.60694934165479        0.13382544325033
H            5.43564364851601        3.06616510637742        0.97307181159819
H            2.12464797738005        4.82092427241008       -1.15422830106073
H            3.45070528301953        4.07733036031869       -2.04335320173989
H            3.72106573171656        5.56480951002833       -1.12972526382184
H            3.43367001362354        3.94406260352475        2.25557021493727
H            3.70680456842994        5.48587268325334        1.43786636554019
H            2.11220982473707        4.73780959009925        1.40402796650189
H            4.59337176087409        1.18547424006884        0.02841648418678
H            4.60166844666420       -1.15293721284853       -0.02794110807981
H            3.46144212360900       -3.92210129253787       -2.25307001050846
H            2.14560972103677       -4.72413827839523       -1.40056554549937
H            3.74540189182028       -5.46103318027702       -1.43364416885155
H            3.76070031150965       -5.53706789995100        1.13395236483999
H            3.47982904084202       -4.05056049981429        2.04599063729257
H            2.15900903769704       -4.80455353788853        1.15783727683098
H            5.45712794581536       -3.02829614422544       -0.97165447033697
H            5.46577418608552       -3.08098355424122        0.80073958845588
H            5.60333124519801       -4.56741559602457       -0.13120297720536
H            0.96812971726411       -3.37115664067960       -0.07000538519492
H           -0.94417127413812       -3.37789115648430        0.07369962137542
H           -3.72189030940429       -5.56514802932039       -1.12553012380408
H           -3.45260999828653       -4.07786291308633       -2.03979483221158
H           -2.12560922342525       -4.82099840529760       -1.15169516240428
H           -3.70578384826964       -5.48560473629305        1.44188636389901
H           -2.11119196869531       -4.73761147926769        1.40667208322470
H           -3.43196630178260       -3.94364999778158        2.25908625007594
H           -5.57074215829870       -4.60687511971235        0.13948909617459
H           -5.44434271356822       -3.12069555880420       -0.79444229315552
H           -5.43488564633180       -3.06568609857537        0.97787435420960
H           -4.59336304993916       -1.18551163667904        0.03163569606472
H           -4.60165727468605        1.15290288243424       -0.02536100084000
H           -2.15797941094642        4.80535484830787        1.15661608483113
H           -3.75977150071086        5.53766500217980        1.13376982008807
H           -3.47790003137772        4.05170638799234        2.04639956946167
H           -3.74631314413863        5.46021094673957       -1.43382582049958
H           -2.14659683294808        4.72309887598752       -1.40170384517838
H           -3.46327824869458        3.92076200530209       -2.25261011095421
H           -5.60332466159261        4.56737185453742       -0.12949871286758
H           -5.46504109651359        3.08159986592562        0.80340492112123
H           -5.45784025290281        3.02764788079819       -0.96895501629173
H           -0.96812574297007        3.37104604245110       -0.07087895567793
H            0.94420635359956        3.37783710623603        0.07176291603797

 projected vibrational frequencies (cm⁻¹)
eigval :       -0.00    -0.00    -0.00     0.00     0.00     0.00
eigval :        8.83    26.85    27.58    30.82    30.96    38.77
eigval :       63.68    78.54    84.09    92.76    96.03   107.23
eigval :      120.81   138.80   155.74   163.93   165.04   171.05
eigval :      174.49   201.77   211.54   211.67   213.33   214.51
eigval :      215.31   218.24   232.07   233.26   247.50   255.20
eigval :      260.18   266.19   297.78   305.01   312.81   320.48
eigval :      322.87   323.19   324.37   324.87   325.94   345.47
eigval :      361.43   362.42   369.85   383.95   394.97   396.51
eigval :      402.21   413.13   426.29   433.25   456.23   469.83
eigval :      485.07   493.66   500.58   504.42   506.23   535.91
eigval :      546.98   556.27   571.64   587.66   591.48   599.96
eigval :      615.50   619.72   620.25   636.60   685.15   699.98
eigval :      703.00   711.19   741.83   772.55   776.73   789.02
eigval :      793.49   818.26   825.91   830.54   830.91   833.07
eigval :      836.45   839.92   859.61   872.01   936.22   958.61
eigval :      958.74   960.32   960.37   960.41   960.45   962.05
eigval :      962.16   962.18   962.44   962.54   962.58   963.06
eigval :      970.48   990.19  1029.16  1031.09  1035.01  1035.04
eigval :     1035.38  1035.39  1035.69  1036.32  1041.22  1078.82
eigval :     1137.84  1152.12  1173.48  1179.33  1188.77  1216.64
eigval :     1218.87  1219.06  1227.70  1227.80  1227.88  1228.02
eigval :     1232.84  1233.29  1237.63  1243.37  1265.69  1271.50
eigval :     1276.42  1288.67  1296.51  1310.59  1312.28  1313.31
eigval :     1343.23  1368.48  1375.42  1382.38  1399.22  1402.27
eigval :     1403.61  1404.63  1405.63  1405.85  1406.00  1406.25
eigval :     1406.29  1407.28  1412.68  1420.16  1428.24  1428.47
eigval :     1428.51  1429.47  1460.37  1472.46  1491.91  1492.00
eigval :     1492.02  1492.22  1492.24  1494.23  1494.27  1495.14
eigval :     1495.29  1496.22  1498.54  1498.59  1502.30  1504.24
eigval :     1504.68  1505.08  1505.34  1514.49  1514.87  1514.94
eigval :     1515.10  1515.14  1516.07  1519.61  1519.84  1520.54
eigval :     1520.62  1532.05  1541.49  1566.76  3019.78  3019.81
eigval :     3019.88  3019.91  3021.27  3021.30  3021.37  3021.42
eigval :     3026.15  3026.17  3026.20  3026.22  3027.97  3028.07
eigval :     3028.31  3029.22  3030.07  3030.11  3030.16  3030.25
eigval :     3034.79  3034.93  3034.99  3035.23  3036.95  3036.99
eigval :     3037.12  3037.58  3044.84  3044.86  3045.21  3045.25
eigval :     3048.33  3048.46  3048.76  3048.97  3107.81  3108.09
eigval :     3109.78  3109.81  3113.04  3113.58  3123.62  3124.78

   temp. (K)  partition function   enthalpy   heat capacity  entropy
                                   cal/mol     cal/K/mol   cal/K/mol   J/K/mol
 298.15  VIB  0.267E+16            21806.643    136.955    132.497
         ROT  0.956E+07              888.752      2.981     34.923
         INT  0.255E+23            22695.395    139.936    167.420
         TR   0.101E+29             1481.254      4.968     44.353
         TOT                       24176.6492   144.9038   211.7733   886.0594

       T/K    H(0)-H(T)+PV         H(T)/Eh          T*S/Eh         G(T)/Eh
   ------------------------------------------------------------------------
    298.15    0.385279E-01    0.726140E+00    0.100620E+00    0.625520E+00
   ------------------------------------------------------------------------

         :::::::::::::::::::::::::::::::::::::::::::::::::::::
         ::                  THERMODYNAMIC                  ::
         :::::::::::::::::::::::::::::::::::::::::::::::::::::
         :: total free energy         -98.949536027402 Eh   ::
         ::.................................................::
         :: total energy              -99.575055903730 Eh   ::
         :: zero point energy           0.687612253274 Eh   ::
         :: G(RRHO) w/o ZPVE           -0.062092376946 Eh   ::
         :: G(RRHO) contrib.            0.625519876328 Eh   ::
         :::::::::::::::::::::::::::::::::::::::::::::::::::::

           -------------------------------------------------
          | TOTAL ENERGY              -99.575055903730 Eh   |
          | TOTAL ENTHALPY            -98.848915707522 Eh   |
          | TOTAL FREE ENERGY         -98.949536027402 Eh   |
          | GRADIENT NORM               0.000036525899 Eh/α |
           -------------------------------------------------

 * finished run on 2025/07/16 at 11:32:41.180
