   * xtb version 6.7.1 (edcfbbe) compiled by 'albert@albert-system' on 2024-07-22

   ID    Z sym.   atoms
    1    6 C      1-36
    2    1 H      37-80

          program call               : xtb data2507/gas/TBPe/TBPe_gas_T1_crest.xyz --gfn 2 --spinpol --tblite --uhf 2 --ohess vtight --parallel 40 --molden --ceasefiles --namespace data2507/gas/TBPe/TBPe_gas_T1_finalOpt
 * total energy  :   -99.5764463 Eh     change       -0.5468195E-08 Eh
 * total energy  :   -99.5764539 Eh     change       -0.7558893E-05 Eh
 * total energy  :   -99.5764560 Eh     change       -0.2155154E-05 Eh
 * total energy  :   -99.5764568 Eh     change       -0.8163419E-06 Eh
 * total energy  :   -99.5764575 Eh     change       -0.6815197E-06 Eh
 * total energy  :   -99.5764584 Eh     change       -0.9046284E-06 Eh
 * total energy  :   -99.5764594 Eh     change       -0.9554784E-06 Eh
 * total energy  :   -99.5764601 Eh     change       -0.7002930E-06 Eh
 * total energy  :   -99.5764607 Eh     change       -0.5749480E-06 Eh
 * total energy  :   -99.5764612 Eh     change       -0.5756637E-06 Eh
 * total energy  :   -99.5764617 Eh     change       -0.4253698E-06 Eh
 * total energy  :   -99.5764619 Eh     change       -0.2643563E-06 Eh
 * total energy  :   -99.5764619 Eh     change       -0.5430948E-08 Eh
   *** GEOMETRY OPTIMIZATION CONVERGED AFTER 13 ITERATIONS ***

 final structure:
================
80
 xtb: 6.7.1 (edcfbbe)
C            4.55565151529418        3.77471324325418       -1.20968482446767
C            3.67078456260333        3.72718543272669        0.04386599865521
C            2.80293028032340        4.98857062857050        0.06122889652826
C            4.54942741540188        3.73610852586650        1.30270139428229
C            2.85180577695941        2.44498278545427        0.02280619950360
C            3.51708983386268        1.21656854082025        0.00758967682383
C            2.82025289406740       -0.00142443520831       -0.00542743012623
C            3.51595991969734       -1.22005597681484       -0.01824656358067
C            2.84956105416015       -2.44788909707496       -0.03185902383864
C            3.66743642693952       -3.73082862678219       -0.05086965022936
C            2.79850782056358       -4.99154964473317       -0.06136277040470
C            4.55536838284150       -3.77462081026965        1.20069690170610
C            4.54292502170745       -3.74488152413127       -1.31181405152508
C            1.47372820456779       -2.43887159281555       -0.02743782137334
C            0.71127313513168       -1.23855096568505       -0.01059375680360
C           -0.71215170410761       -1.23790288826670        0.00043773847435
C           -1.47580997226020       -2.43750064544677        0.01726702556467
C           -2.85164647660651       -2.44508879024444        0.02293054647155
C           -3.67120185384320       -3.72688857317324        0.04386011693310
C           -2.80407960448609       -4.98879735688657        0.05707864066186
C           -4.54705441455300       -3.73727880652219        1.30463484396330
C           -4.55882992795465       -3.77169789329574       -1.20785133761815
C           -3.51679445280201       -1.21661430587487        0.00916556184123
C           -2.81987123414722        0.00124791935005       -0.00414855941171
C           -3.51562512184957        1.21979815642078       -0.01684453384940
C           -2.84928020776772        2.44762885619363       -0.02947768840879
C           -3.66755355523005        3.73029305583668       -0.04783171439955
C           -4.55507184517261        3.77337730978737        1.20403863452341
C           -2.79914700362545        4.99134307095341       -0.05835151300490
C           -4.54350658705077        3.74424424982635       -1.30848532228160
C           -1.47345306415820        2.43867367602465       -0.02464498199947
C           -0.71097105092201        1.23831625505527       -0.00923562599532
C            0.71243131328001        1.23760013953166        0.00105075254792
C            1.47597373397220        2.43720934434405        0.01842643533742
C            1.39902087261629       -0.00079085404905       -0.00504188873061
C           -1.39867149098426        0.00054039579876       -0.00437204918360
H            3.93894733465351        3.74853058991106       -2.10584241305483
H            5.14228826523309        4.69113596124029       -1.22033230920008
H            5.24075893448722        2.93228609734324       -1.24414609163809
H            2.17304280922289        5.01894694298101        0.94756652674607
H            2.17674824126089        5.04599734880019       -0.82638185226455
H            3.44371905546327        5.86814180425929        0.07590694429046
H            5.23624170804155        2.89443800248860        1.31335274391202
H            5.13395946783557        4.65290874388590        1.34583198295709
H            3.92840083815822        3.67971583499188        2.19448125813881
H            4.59589552173796        1.17706349265036        0.00783989722326
H            4.59480038567916       -1.18153540747469       -0.01903482720256
H            2.16663415849656       -5.02503294321237       -0.94617107920118
H            2.17424301292923       -5.04485889445197        0.82786600522559
H            3.43856317253776       -5.87168923252785       -0.07403296826582
H            5.13732659586988       -4.69394893981037        1.21580261585885
H            5.24499151752975       -2.93562887803128        1.22781229446929
H            3.94119666127800       -3.73940675261479        2.09828904736005
H            3.91947406195525       -3.69669198442521       -2.20238317839628
H            5.22648095299627       -2.90067364595724       -1.32977477534679
H            5.13073672394590       -4.65979221524419       -1.35031313649655
H            0.94585456701648       -3.37428535132474       -0.04011508090586
H           -0.94893756101732       -3.37350051736510        0.02926299478736
H           -3.44532721950683       -5.86802564938671        0.07234876604059
H           -2.18037405376411       -5.04526004350794       -0.83234292999302
H           -2.17174942083229       -5.02078447631358        0.94160782472509
H           -5.13263573994757       -4.65344019380581        1.34725120103272
H           -3.92398302666881       -3.68339663355720        2.19515601150185
H           -5.23277900827633       -2.89475062426768        1.31848008228378
H           -5.14571746592174       -4.68793855106564       -1.21906677662216
H           -3.94408552022270       -3.74378419335824       -2.10530975433507
H           -5.24383945475243       -2.92907284527354       -1.23909708858557
H           -4.59557837984617       -1.17691904916408        0.01075981406246
H           -4.59444683560294        1.18115675810966       -0.01831757755273
H           -5.24189447488335        2.93214508131749        1.23288355765987
H           -3.94032918846834        3.74152264916144        2.10136542664137
H           -5.14000958738750        4.69083161905536        1.21798741282713
H           -2.16727251447079        5.02496095196192       -0.94314803402107
H           -3.43950783022463        5.87126388144278       -0.07102184437507
H           -2.17490799510853        5.04488453309816        0.83087883462457
H           -5.12848441156729        4.66089238847426       -1.34890017430511
H           -5.22976488767248        2.90218527674155       -1.32425734174958
H           -3.92053799124434        3.69206355465365       -2.19917325629330
H           -0.94565310936038        3.37415334001097       -0.03594805056663
H            0.94892379024954        3.37307316422160        0.03174034041589

 projected vibrational frequencies (cm⁻¹)
eigval :       -0.00    -0.00    -0.00     0.00     0.00     0.00
eigval :        8.41    28.06    31.47    33.04    33.41    40.72
eigval :       55.66    85.09    85.30    90.75    96.85   111.99
eigval :      117.65   148.20   161.79   165.55   167.45   176.17
eigval :      181.72   187.29   188.00   208.54   211.48   215.13
eigval :      215.70   216.68   221.57   222.39   238.71   251.56
eigval :      272.97   280.28   286.67   309.61   321.38   322.73
eigval :      324.05   326.19   334.08   336.04   340.26   340.35
eigval :      352.11   360.56   362.20   380.54   395.21   395.57
eigval :      401.56   418.80   425.03   425.98   461.19   471.33
eigval :      487.60   494.82   499.06   502.88   508.32   539.93
eigval :      544.72   552.67   568.75   587.12   591.44   602.78
eigval :      616.54   618.21   622.99   637.68   685.32   700.11
eigval :      704.37   711.79   741.49   774.61   780.78   781.96
eigval :      788.73   816.27   827.17   827.84   829.14   837.32
eigval :      839.33   840.81   859.95   870.34   938.16   955.67
eigval :      959.79   959.81   960.32   960.33   960.58   962.04
eigval :      962.51   962.58   962.67   962.72   962.97   966.49
eigval :      967.28   986.76  1028.35  1030.83  1034.49  1034.56
eigval :     1034.59  1034.66  1034.73  1034.89  1040.00  1076.03
eigval :     1138.64  1147.12  1175.30  1179.58  1183.37  1208.60
eigval :     1217.51  1224.45  1227.43  1227.62  1227.65  1227.87
eigval :     1232.20  1233.28  1233.99  1235.86  1270.94  1275.90
eigval :     1276.15  1285.35  1298.58  1310.86  1313.74  1318.75
eigval :     1339.57  1370.14  1383.73  1384.69  1400.07  1401.77
eigval :     1402.87  1403.09  1404.72  1405.12  1405.24  1405.31
eigval :     1405.37  1408.81  1418.29  1419.58  1427.25  1427.63
eigval :     1427.82  1427.88  1463.60  1478.43  1485.36  1491.49
eigval :     1491.55  1491.56  1491.61  1493.93  1494.01  1494.53
eigval :     1494.61  1497.70  1499.19  1499.80  1499.81  1502.95
eigval :     1503.91  1504.62  1505.85  1510.44  1515.00  1515.03
eigval :     1515.71  1515.71  1519.74  1520.16  1520.99  1522.77
eigval :     1523.64  1540.39  1544.99  1566.85  3019.13  3019.19
eigval :     3019.40  3019.53  3021.58  3021.61  3021.68  3021.73
eigval :     3024.95  3025.04  3025.07  3025.17  3027.92  3028.07
eigval :     3028.12  3029.00  3029.42  3029.49  3029.67  3029.75
eigval :     3033.22  3033.35  3033.62  3033.85  3035.58  3035.72
eigval :     3035.83  3036.53  3046.34  3046.36  3046.45  3046.48
eigval :     3049.67  3049.70  3049.92  3050.07  3078.20  3078.61
eigval :     3084.60  3084.88  3142.28  3142.95  3156.26  3156.96

   temp. (K)  partition function   enthalpy   heat capacity  entropy
                                   cal/mol     cal/K/mol   cal/K/mol   J/K/mol
 298.15  VIB  0.207E+16            21794.903    137.056    132.383
         ROT  0.966E+07              888.752      2.981     34.943
         INT  0.200E+23            22683.656    140.037    167.326
         TR   0.101E+29             1481.254      4.968     44.353
         TOT                       24164.9096   145.0048   211.6791   885.6653

       T/K    H(0)-H(T)+PV         H(T)/Eh          T*S/Eh         G(T)/Eh
   ------------------------------------------------------------------------
    298.15    0.385092E-01    0.726166E+00    0.100576E+00    0.625590E+00
   ------------------------------------------------------------------------

         :::::::::::::::::::::::::::::::::::::::::::::::::::::
         ::                  THERMODYNAMIC                  ::
         :::::::::::::::::::::::::::::::::::::::::::::::::::::
         :: total free energy         -98.950871940618 Eh   ::
         ::.................................................::
         :: total energy              -99.576461967321 Eh   ::
         :: zero point energy           0.687656362195 Eh   ::
         :: G(RRHO) w/o ZPVE           -0.062066335491 Eh   ::
         :: G(RRHO) contrib.            0.625590026704 Eh   ::
         :::::::::::::::::::::::::::::::::::::::::::::::::::::

           -------------------------------------------------
          | TOTAL ENERGY              -99.576461967321 Eh   |
          | TOTAL ENTHALPY            -98.850296370525 Eh   |
          | TOTAL FREE ENERGY         -98.950871940618 Eh   |
          | GRADIENT NORM               0.000117943622 Eh/α |
           -------------------------------------------------

 * finished run on 2025/07/16 at 11:39:06.362
