   * xtb version 6.7.1 (edcfbbe) compiled by 'albert@albert-system' on 2024-07-22

   ID    Z sym.   atoms
    1    6 C      1-36
    2    1 H      37-80

          program call               : xtb data2507/gas/TBPe/TBPe_gas_S0_crest.xyz --gfn 2 --ohess vtight --parallel 40 --molden --ceasefiles --namespace data2507/gas/TBPe/TBPe_gas_S0_finalOpt
          :  Hamiltonian                  GFN2-xTB          :
 * total energy  :   -99.6342548 Eh     change       -0.3450396E-09 Eh
 * total energy  :   -99.6342555 Eh     change       -0.7185247E-06 Eh
 * total energy  :   -99.6342560 Eh     change       -0.4963478E-06 Eh
 * total energy  :   -99.6342567 Eh     change       -0.7426304E-06 Eh
 * total energy  :   -99.6342578 Eh     change       -0.1046911E-05 Eh
 * total energy  :   -99.6342593 Eh     change       -0.1525160E-05 Eh
 * total energy  :   -99.6342611 Eh     change       -0.1753070E-05 Eh
 * total energy  :   -99.6342622 Eh     change       -0.1121611E-05 Eh
 * total energy  :   -99.6342626 Eh     change       -0.4476949E-06 Eh
 * total energy  :   -99.6342629 Eh     change       -0.3007444E-06 Eh
 * total energy  :   -99.6342633 Eh     change       -0.3704707E-06 Eh
 * total energy  :   -99.6342635 Eh     change       -0.1984532E-06 Eh
 * total energy  :   -99.6342636 Eh     change       -0.1238976E-06 Eh
 * total energy  :   -99.6342637 Eh     change       -0.1361990E-07 Eh
   *** GEOMETRY OPTIMIZATION CONVERGED AFTER 14 ITERATIONS ***

 final structure:
================
80
 xtb: 6.7.1 (edcfbbe)
C            5.10298362103457        3.63382937215227        0.11415932888948
C            3.57875793138853        3.77781371946406        0.10936757795292
C            3.18191620397324        4.59813272596926       -1.12613667986758
C            3.16661265954205        4.52334848777012        1.38653712749436
C            2.86695395121237        2.43421060162893        0.06604784359001
C            3.52755648534480        1.23267786533752        0.03509766719416
C            2.82770151317950        0.01000562725765        0.00416920460582
C            3.53618961626031       -1.20766739634739       -0.02765667840548
C            2.88407051763315       -2.41377381561189       -0.06031823849758
C            3.60524303246173       -3.75223142106627       -0.10736941038895
C            3.19519263383400       -4.49839233983744       -1.38487728566372
C            3.21713388616094       -4.57745087877370        1.12760841776272
C            5.12839141686121       -3.59742964055168       -0.11583317589574
C            1.48098172680221       -2.40220203672351       -0.04740764349290
C            0.73387153785249       -1.24098380652535       -0.00901596785796
C           -0.72504748183456       -1.24617643643224        0.01810122796494
C           -1.46391364336949       -2.41269746763808        0.05532770176399
C           -2.86688502900809       -2.43417910357074        0.06920874849753
C           -3.57863251458170       -3.77778793239466        0.11291563454725
C           -3.18631610838340       -4.59554854119956       -1.12572853662991
C           -3.16180543143546       -4.52592541416802        1.38703235740052
C           -5.10282626445263       -3.63371723319277        0.12380318189310
C           -3.52751691713782       -1.23264934789034        0.03918884636547
C           -2.82767450477493       -0.01000346424585        0.00690278437140
C           -3.53618608607629        1.20763632273115       -0.02530039971341
C           -2.88408971951959        2.41371553708201       -0.05956412945582
C           -3.60534570566202        3.75208456562385       -0.10776719745752
C           -3.21708233236591        4.57846034846815        1.12640945262230
C           -3.19562090742436        4.49709377525784       -1.38606678345329
C           -5.12850738635555        3.59720351436864       -0.11589175894850
C           -1.48099304660175        2.40217500306650       -0.04727522360462
C           -0.73385761516977        1.24097688690789       -0.00857085679608
C            0.72508272875015        1.24617206869832        0.01738402870527
C            1.46396911343892        2.41269804596885        0.05425254865881
C            1.41251226518584        0.00501030089460        0.00426027586175
C           -1.41248561323852       -0.00500993869684        0.00565773860602
H            5.45081273224766        3.13206656749278       -0.78587192878191
H            5.56095581840792        4.62053659708342        0.14712587466566
H            5.44015273952925        3.07780386251235        0.98590188470441
H            2.11317799820781        4.79245567765772       -1.15038773412154
H            3.45004701939354        4.06219967181228       -2.03441107638962
H            3.70046179231765        5.55479676313249       -1.12332439593286
H            3.42854109392953        3.93647345762318        2.26462418681775
H            3.68093352450191        5.48054648154683        1.44442884455874
H            2.09674622894358        4.71139299157320        1.41175836645020
H            4.60464338199301        1.18290293016849        0.03534510473222
H            4.61289981389253       -1.15028761729483       -0.02783082039041
H            3.44931017826271       -3.90732092024535       -2.26243425459617
H            2.12689390986529       -4.69547800092047       -1.40713079973298
H            3.71738427517309       -5.45106127031953       -1.44664041829858
H            3.74166316486658       -5.53081902684239        1.12138841749474
H            3.48453579670342       -4.04164095567244        2.03615324658864
H            2.14969328429122       -4.77847816112490        1.15456583782752
H            5.45921736408200       -3.03670042061082       -0.98699625368771
H            5.47517602430903       -3.09565620560847        0.78458903722908
H            5.59320320280493       -4.58078848605943       -0.15269947148262
H            0.97276109043537       -3.35169608194395       -0.07059370379309
H           -0.94902347231021       -3.35863874065127        0.07653020092860
H           -3.70444224201994       -5.55242639551876       -1.12282689359917
H           -3.45826301152358       -4.05787153319988       -2.03182667916817
H           -2.11756804291018       -4.78923944172189       -1.15458226369122
H           -3.67735504457243       -5.48239736582292        1.44577823237163
H           -2.09215764405234       -4.71580127360489        1.40721098052082
H           -3.41887153425270       -3.94000355926625        2.26718000041900
H           -5.56071336826835       -4.62044492410811        0.15721179001219
H           -5.45419291159910       -3.13077218386896       -0.77418105655649
H           -5.43650271599157       -3.07880703668407        0.99760369475986
H           -4.60460304826918       -1.18284491970314        0.04104158959119
H           -4.61289730435684        1.15025229446566       -0.02474367006198
H           -2.14975789030828        4.78034749327503        1.15247650055626
H           -3.74236048861656        5.53141510916634        1.11988079075403
H           -3.48346227106275        4.04305585858447        2.03552742991287
H           -3.71640605322757        5.45054904818702       -1.44757956556091
H           -2.12701850929430        4.69249145226757       -1.40968613809331
H           -3.45168905017702        3.90605802059897       -2.26311887910779
H           -5.59339516847007        4.58049884458895       -0.15354583430172
H           -5.47517381278893        3.09616262306909        0.78499492932350
H           -5.45938297753179        3.03570249939144       -0.98655937497490
H           -0.97277276858969        3.35165467102234       -0.07135260963811
H            0.94905772531159        3.35859985999184        0.07687805082337

          :  Hamiltonian                  GFN2-xTB          :
         :: gradient norm              0.000065823599 Eh/a0 ::
         :: HOMO-LUMO gap              1.932161688544 eV    ::
         :: SCC energy              -101.364515250272 Eh    ::
         :: -> dispersion             -0.095799021864 Eh    ::
         :: repulsion energy           1.730251599574 Eh    ::

    * Orbital Energies and Occupations

         #    Occupation            Energy/Eh            Energy/eV
      -------------------------------------------------------------
         1        2.0000           -0.6420475             -17.4710
       ...           ...                  ...                  ...
        82        2.0000           -0.4237835             -11.5317
        83        2.0000           -0.4174743             -11.3601
        84        2.0000           -0.4173032             -11.3554
        85        2.0000           -0.4168040             -11.3418
        86        2.0000           -0.4127852             -11.2325
        87        2.0000           -0.4049480             -11.0192
        88        2.0000           -0.3912050             -10.6452
        89        2.0000           -0.3888323             -10.5807
        90        2.0000           -0.3881658             -10.5625
        91        2.0000           -0.3858564             -10.4997
        92        2.0000           -0.3826266             -10.4118
        93        2.0000           -0.3807355             -10.3603
        94        2.0000           -0.3435437              -9.3483 (HOMO)
        95                         -0.2725381              -7.4161 (LUMO)
        96                         -0.2167728              -5.8987
        97                         -0.2134028              -5.8070
        98                         -0.2115673              -5.7570
        99                         -0.2101632              -5.7188
       100                         -0.1462817              -3.9805
       101                         -0.1441931              -3.9237
       102                         -0.1066370              -2.9017
       103                         -0.0631510              -1.7184
       104                         -0.0103669              -0.2821
       105                          0.0616822               1.6785
       ...                                ...                  ...
       188                          0.7551778              20.5494
      -------------------------------------------------------------
                  HL-Gap            0.0710056 Eh            1.9322 eV

     #   Z          covCN         q      C6AA      α(0)
     1   6 C        3.761    -0.107    22.582     6.774
     2   6 C        3.903     0.025    20.092     6.372
     3   6 C        3.761    -0.103    22.514     6.764
     4   6 C        3.762    -0.103    22.517     6.764
     5   6 C        2.967     0.005    27.903     8.665
     6   6 C        2.929    -0.050    29.241     8.868
     7   6 C        2.983     0.006    27.873     8.660
     8   6 C        2.929    -0.050    29.241     8.868
     9   6 C        2.967     0.005    27.903     8.665
    10   6 C        3.903     0.025    20.092     6.372
    11   6 C        3.762    -0.103    22.517     6.764
    12   6 C        3.761    -0.103    22.514     6.764
    13   6 C        3.761    -0.107    22.582     6.774
    14   6 C        2.931    -0.044    29.096     8.846
    15   6 C        2.972     0.002    27.971     8.675
    16   6 C        2.972     0.002    27.971     8.675
    17   6 C        2.931    -0.044    29.096     8.846
    18   6 C        2.967     0.005    27.903     8.665
    19   6 C        3.903     0.025    20.092     6.372
    20   6 C        3.761    -0.103    22.514     6.764
    21   6 C        3.762    -0.103    22.517     6.764
    22   6 C        3.761    -0.107    22.582     6.774
    23   6 C        2.929    -0.050    29.241     8.868
    24   6 C        2.983     0.006    27.873     8.660
    25   6 C        2.929    -0.050    29.241     8.868
    26   6 C        2.967     0.005    27.903     8.665
    27   6 C        3.903     0.025    20.092     6.372
    28   6 C        3.761    -0.103    22.514     6.764
    29   6 C        3.762    -0.103    22.517     6.764
    30   6 C        3.761    -0.107    22.582     6.774
    31   6 C        2.931    -0.044    29.096     8.846
    32   6 C        2.972     0.002    27.971     8.675
    33   6 C        2.972     0.002    27.971     8.675
    34   6 C        2.931    -0.044    29.096     8.846
    35   6 C        2.998    -0.003    28.092     8.694
    36   6 C        2.998    -0.003    28.092     8.694
    37   1 H        0.925     0.035     2.513     2.479
    38   1 H        0.925     0.034     2.524     2.485
    39   1 H        0.925     0.035     2.513     2.479
    40   1 H        0.925     0.034     2.524     2.484
    41   1 H        0.925     0.033     2.544     2.494
    42   1 H        0.925     0.035     2.514     2.480
    43   1 H        0.925     0.033     2.543     2.494
    44   1 H        0.925     0.035     2.514     2.479
    45   1 H        0.925     0.035     2.519     2.482
    46   1 H        0.926     0.033     2.544     2.494
    47   1 H        0.926     0.033     2.544     2.494
    48   1 H        0.925     0.033     2.543     2.494
    49   1 H        0.925     0.035     2.520     2.482
    50   1 H        0.925     0.035     2.514     2.480
    51   1 H        0.925     0.035     2.514     2.480
    52   1 H        0.925     0.033     2.544     2.494
    53   1 H        0.925     0.034     2.524     2.484
    54   1 H        0.925     0.035     2.513     2.479
    55   1 H        0.925     0.035     2.514     2.479
    56   1 H        0.925     0.034     2.524     2.485
    57   1 H        0.926     0.029     2.602     2.522
    58   1 H        0.926     0.029     2.602     2.522
    59   1 H        0.925     0.035     2.514     2.480
    60   1 H        0.925     0.033     2.544     2.494
    61   1 H        0.925     0.034     2.524     2.484
    62   1 H        0.925     0.035     2.514     2.480
    63   1 H        0.925     0.035     2.520     2.482
    64   1 H        0.925     0.033     2.543     2.494
    65   1 H        0.925     0.034     2.524     2.485
    66   1 H        0.925     0.035     2.513     2.479
    67   1 H        0.925     0.035     2.513     2.479
    68   1 H        0.926     0.033     2.544     2.494
    69   1 H        0.926     0.033     2.544     2.494
    70   1 H        0.925     0.034     2.524     2.484
    71   1 H        0.925     0.035     2.514     2.480
    72   1 H        0.925     0.033     2.544     2.494
    73   1 H        0.925     0.035     2.514     2.480
    74   1 H        0.925     0.035     2.519     2.482
    75   1 H        0.925     0.033     2.543     2.494
    76   1 H        0.925     0.034     2.524     2.485
    77   1 H        0.925     0.035     2.514     2.479
    78   1 H        0.925     0.035     2.513     2.479
    79   1 H        0.926     0.029     2.602     2.523
    80   1 H        0.926     0.029     2.602     2.523

molecular dipole:
                 x           y           z       tot (Debye)
 q only:       -0.000      -0.000      -0.001
   full:       -0.000      -0.000      -0.002       0.004

 projected vibrational frequencies (cm⁻¹)
eigval :       -0.00    -0.00    -0.00    -0.00     0.00     0.00
eigval :        5.75    28.51    31.31    34.77    34.92    39.60
eigval :       64.16    80.57    84.03    96.29    99.62   106.22
eigval :      121.30   135.98   153.74   163.73   164.18   171.93
eigval :      173.08   198.29   210.08   211.93   213.24   215.90
eigval :      224.64   231.93   232.72   235.13   248.30   254.97
eigval :      265.52   274.17   305.74   309.05   314.35   317.33
eigval :      322.32   322.89   323.31   325.98   334.36   346.53
eigval :      350.52   363.24   370.65   387.58   391.46   394.47
eigval :      406.19   414.97   425.30   431.28   457.64   473.49
eigval :      494.82   504.31   506.74   507.70   508.65   531.70
eigval :      545.13   560.75   588.03   597.94   608.09   628.74
eigval :      638.25   642.92   643.45   646.16   687.19   701.89
eigval :      702.07   727.69   755.71   818.48   819.78   828.65
eigval :      831.60   834.70   839.69   847.43   862.29   864.69
eigval :      872.02   873.65   877.08   882.00   938.46   958.39
eigval :      960.63   960.69   960.73   960.78   962.10   962.42
eigval :      962.47   962.53   962.82   962.87   963.48   965.07
eigval :      970.04   992.56  1030.60  1034.94  1035.07  1035.10
eigval :     1035.26  1035.32  1035.49  1036.28  1071.56  1072.43
eigval :     1143.44  1152.42  1178.15  1194.83  1203.77  1213.02
eigval :     1224.08  1225.69  1228.00  1228.20  1228.28  1228.55
eigval :     1234.06  1235.37  1236.60  1239.91  1273.63  1278.44
eigval :     1287.27  1290.40  1305.55  1305.74  1316.82  1367.97
eigval :     1382.90  1392.59  1396.65  1399.26  1403.32  1404.54
eigval :     1404.70  1406.08  1406.62  1406.70  1407.00  1407.02
eigval :     1417.78  1428.38  1429.49  1430.02  1430.91  1431.89
eigval :     1435.10  1449.42  1477.71  1492.69  1492.71  1492.91
eigval :     1492.94  1494.39  1494.43  1495.30  1495.46  1497.91
eigval :     1500.48  1501.22  1501.59  1503.35  1506.01  1506.22
eigval :     1506.99  1512.36  1514.48  1514.57  1514.70  1514.76
eigval :     1520.20  1520.22  1520.54  1520.76  1539.11  1566.60
eigval :     1594.65  1596.46  1597.22  1599.08  3020.53  3020.58
eigval :     3020.66  3020.69  3021.82  3021.91  3021.94  3022.04
eigval :     3026.27  3026.44  3026.47  3026.53  3028.67  3028.82
eigval :     3029.00  3029.89  3030.38  3030.59  3030.60  3030.75
eigval :     3035.15  3035.31  3035.38  3035.60  3037.59  3037.69
eigval :     3037.74  3038.15  3044.82  3044.95  3045.21  3045.28
eigval :     3048.28  3048.45  3048.64  3048.74  3100.88  3101.31
eigval :     3102.73  3102.84  3106.04  3106.41  3115.95  3116.52

   temp. (K)  partition function   enthalpy   heat capacity  entropy
                                   cal/mol     cal/K/mol   cal/K/mol   J/K/mol
 298.15  VIB  0.209E+16            21594.706    135.792    131.657
         ROT  0.953E+07              888.752      2.981     34.917
         INT  0.200E+23            22483.459    138.773    166.573
         TR   0.101E+29             1481.254      4.968     44.353
         TOT                       23964.7124   143.7409   210.9265   882.5167

       T/K    H(0)-H(T)+PV         H(T)/Eh          T*S/Eh         G(T)/Eh
   ------------------------------------------------------------------------
    298.15    0.381902E-01    0.728990E+00    0.100218E+00    0.628772E+00
   ------------------------------------------------------------------------

         :::::::::::::::::::::::::::::::::::::::::::::::::::::
         ::                  THERMODYNAMIC                  ::
         :::::::::::::::::::::::::::::::::::::::::::::::::::::
         :: total free energy         -99.005491771758 Eh   ::
         ::.................................................::
         :: total energy              -99.634263650696 Eh   ::
         :: zero point energy           0.690799686892 Eh   ::
         :: G(RRHO) w/o ZPVE           -0.062027807954 Eh   ::
         :: G(RRHO) contrib.            0.628771878938 Eh   ::
         :::::::::::::::::::::::::::::::::::::::::::::::::::::

           -------------------------------------------------
          | TOTAL ENERGY              -99.634263650696 Eh   |
          | TOTAL ENTHALPY            -98.905273763620 Eh   |
          | TOTAL FREE ENERGY         -99.005491771758 Eh   |
          | GRADIENT NORM               0.000065812510 Eh/α |
          | HOMO-LUMO GAP               1.932161554366 eV   |
           -------------------------------------------------

 * finished run on 2025/07/16 at 11:32:36.203
