   * xtb version 6.7.1 (edcfbbe) compiled by 'albert@albert-system' on 2024-07-22

   ID    Z sym.   atoms
    1    6 C      1-36
    2    1 H      37-80

          program call               : xtb data2507/gas/TBPe/TBPe.xyz --gfn 2 --ohess vtight --parallel 40 --molden --ceasefiles --namespace data2507/gas/TBPe/TBPe_gas_S0_preOpt
          :  Hamiltonian                  GFN2-xTB          :
 * total energy  :   -99.6183663 Eh     change       -0.1149516E-09 Eh
 * total energy  :   -99.6291514 Eh     change       -0.1078517E-01 Eh
 * total energy  :   -99.6325871 Eh     change       -0.3435700E-02 Eh
 * total energy  :   -99.6332810 Eh     change       -0.6938622E-03 Eh
 * total energy  :   -99.6336154 Eh     change       -0.3343511E-03 Eh
 * total energy  :   -99.6336893 Eh     change       -0.7392665E-04 Eh
 * total energy  :   -99.6337365 Eh     change       -0.4721125E-04 Eh
 * total energy  :   -99.6337842 Eh     change       -0.4770083E-04 Eh
 * total energy  :   -99.6338095 Eh     change       -0.2526809E-04 Eh
 * total energy  :   -99.6338246 Eh     change       -0.1514004E-04 Eh
 * total energy  :   -99.6338322 Eh     change       -0.7582872E-05 Eh
 * total energy  :   -99.6338359 Eh     change       -0.3757040E-05 Eh
 * total energy  :   -99.6338382 Eh     change       -0.2248714E-05 Eh
 * total energy  :   -99.6338396 Eh     change       -0.1427020E-05 Eh
 * total energy  :   -99.6338405 Eh     change       -0.9145191E-06 Eh
 * total energy  :   -99.6338411 Eh     change       -0.5641239E-06 Eh
 * total energy  :   -99.6338414 Eh     change       -0.3141245E-06 Eh
 * total energy  :   -99.6338416 Eh     change       -0.1365501E-06 Eh
 * total energy  :   -99.6338416 Eh     change       -0.5475881E-07 Eh
   *** GEOMETRY OPTIMIZATION CONVERGED AFTER 19 ITERATIONS ***

 final structure:
================
80
 xtb: 6.7.1 (edcfbbe)
C            4.37102920434543       -4.50500236446076        0.00024699253039
C            4.27860541956276       -2.97675965960074        0.00011754268672
C            4.99017910905531       -2.45670794233050       -1.25687028267472
C            4.99025789350368       -2.45649452524605        1.25697216520153
C            2.84076397721856       -2.48036376478007        0.00010690734145
C            1.75502695088972       -3.31831577202631        0.00014995181903
C            0.43873607377409       -2.81547109387695        0.00010939454874
C           -0.65480077488967       -3.70414260170840        0.00012637124064
C           -1.94768352904125       -3.24657694773759        0.00001932124752
C           -3.15908171256062       -4.16651500761764       -0.00007385501350
C           -3.99709082724669       -3.89432258222564       -1.25722160713538
C           -3.99793736227963       -3.89364161424280        1.25636252127109
C           -2.77031288948018       -5.64737179930975        0.00048224688776
C           -2.15322310727436       -1.85858398979598       -0.00007205977566
C           -1.12119246584240       -0.93996706042034       -0.00000976227151
C           -1.35162503735492        0.50093339055273        0.00001977518485
C           -2.62371129524851        1.04745976413184        0.00007406407066
C           -2.86052285291490        2.42647540617392        0.00010890946877
C           -4.26511381876222        3.01371506836115        0.00011192166419
C           -4.44304545844245        3.87812916737972       -1.25604668032247
C           -5.36235958728556        1.94563554601973        0.00030770082390
C           -4.44295272969741        3.87847171846092        1.25604709705741
C           -1.77088075641376        3.26511597707548        0.00009863038731
C           -0.45571666157058        2.76880115326859        0.00006313212276
C            0.63838074267439        3.65805389243647        0.00006655505949
C            1.93058550779306        3.20056820663529       -0.00003140602464
C            3.14227861704274        4.12006400455415       -0.00012092242217
C            3.98092016441597        3.84707376943806        1.25645030238762
C            3.98001321292205        3.84783105548345       -1.25746052025105
C            2.75404936493144        5.60105683894996        0.00049848028171
C            2.13592273676716        1.81176295886267       -0.00011906940054
C            1.10468213527480        0.89331151951269       -0.00004228862599
C            1.33543471079299       -0.54741155746438        0.00000234464810
C            2.60264018837930       -1.09762999010768        0.00003370651068
C            0.21500744856067       -1.41800094877396        0.00004043249292
C           -0.23236053277337        1.37035327345344        0.00001948966655
H            3.90094249616885       -4.92491976401021       -0.88602679711417
H            5.41698476559616       -4.80563997511717        0.00026033400100
H            3.90096191155059       -4.92476646542630        0.88660380386647
H            5.01418730170667       -1.37072220859240       -1.28202013169619
H            4.47617277028201       -2.80540730213639       -2.15032120438604
H            6.01573173435396       -2.81944020981101       -1.28424616999865
H            4.47629890446452       -2.80502956190812        2.15051431597793
H            6.01580684770095       -2.81923684747634        1.28435173341294
H            5.01428608879745       -1.37050516975922        1.28193126698883
H            1.87184132169760       -4.39019759339747        0.00020739735153
H           -0.43124240479974       -4.75893958580149        0.00020861350457
H           -3.39947264605399       -4.06432291854686       -2.15055099276683
H           -4.35960745695539       -2.87034715307225       -1.28155746130861
H           -4.85768601074668       -4.55965268773522       -1.28527536840791
H           -4.85838365733447       -4.55916786853812        1.28433807256584
H           -3.40083691180507       -4.06287823272771        2.15018304967738
H           -4.36075152019413       -2.86975238361667        1.27977246280970
H           -2.19254510507542       -5.89998957925866       -0.88561991032142
H           -2.19291199574704       -5.89940128929173        0.88699229255196
H           -3.67032134746310       -6.25924528486872        0.00048908797818
H           -3.17047459746458       -1.50452484231351       -0.00019409869187
H           -3.47127751323500        0.38627659253988        0.00009389501323
H           -5.44633665335840        4.29851201071941       -1.28410291203271
H           -3.73013539575499        4.69760403662931       -1.27644737886669
H           -4.29520918700598        3.27629752973200       -2.15053554297032
H           -6.33717540585240        2.42975045257356        0.00035582879834
H           -5.30113213756290        1.31950292788548       -0.88725970334588
H           -5.30095690945323        1.31966345403920        0.88797645304906
H           -5.44626864788638        4.29879585138648        1.28409635058006
H           -3.73010370743769        4.69800604316564        1.27614253823134
H           -4.29497887872194        3.27690032707229        2.15068794757315
H           -1.89765022175028        4.33787243521829        0.00011163728313
H            0.41447091584154        4.71279181547453        0.00013878369330
H            4.34234013210218        2.82270117913299        1.28098661558946
H            4.84228784029621        4.51143389555023        1.28386373540674
H            3.38412028193574        4.01770266786212        2.15018999717675
H            4.84155272504009        4.51196553641125       -1.28493258315285
H            4.34109112486168        2.82336041365779       -1.28302559226477
H            3.38266412290601        4.01932484972428       -2.15066751714775
H            3.65428584808177        6.21259007408172        0.00052388469088
H            2.17677092747035        5.85320900503254        0.88705925771170
H            2.17639093811428        5.85387388736547       -0.88562371243555
H            3.15319449906715        1.45751964704478       -0.00024720723060
H            3.45817375479753       -0.44310019791763        0.00000542597105

          :  Hamiltonian                  GFN2-xTB          :
         :: gradient norm              0.000018182496 Eh/a0 ::
         :: HOMO-LUMO gap              1.908784045275 eV    ::
         :: SCC energy              -101.363767460193 Eh    ::
         :: -> dispersion             -0.095784868053 Eh    ::
         :: repulsion energy           1.729925851545 Eh    ::

    * Orbital Energies and Occupations

         #    Occupation            Energy/Eh            Energy/eV
      -------------------------------------------------------------
         1        2.0000           -0.6419640             -17.4687
       ...           ...                  ...                  ...
        82        2.0000           -0.4236535             -11.5282
        83        2.0000           -0.4174966             -11.3607
        84        2.0000           -0.4169801             -11.3466
        85        2.0000           -0.4158690             -11.3164
        86        2.0000           -0.4125678             -11.2265
        87        2.0000           -0.4054425             -11.0327
        88        2.0000           -0.3910956             -10.6423
        89        2.0000           -0.3886387             -10.5754
        90        2.0000           -0.3880768             -10.5601
        91        2.0000           -0.3853601             -10.4862
        92        2.0000           -0.3830421             -10.4231
        93        2.0000           -0.3808833             -10.3644
        94        2.0000           -0.3430555              -9.3350 (HOMO)
        95                         -0.2729090              -7.4262 (LUMO)
        96                         -0.2163516              -5.8872
        97                         -0.2129608              -5.7950
        98                         -0.2120060              -5.7690
        99                         -0.2101769              -5.7192
       100                         -0.1461586              -3.9772
       101                         -0.1442602              -3.9255
       102                         -0.1064363              -2.8963
       103                         -0.0631125              -1.7174
       104                         -0.0101610              -0.2765
       105                          0.0613530               1.6695
       ...                                ...                  ...
       188                          0.7537688              20.5111
      -------------------------------------------------------------
                  HL-Gap            0.0701465 Eh            1.9088 eV

     #   Z          covCN         q      C6AA      α(0)
     1   6 C        3.761    -0.107    22.582     6.774
     2   6 C        3.903     0.025    20.093     6.372
     3   6 C        3.762    -0.103    22.515     6.764
     4   6 C        3.762    -0.103    22.515     6.764
     5   6 C        2.967     0.005    27.904     8.665
     6   6 C        2.929    -0.050    29.240     8.868
     7   6 C        2.983     0.006    27.874     8.660
     8   6 C        2.929    -0.050    29.241     8.868
     9   6 C        2.967     0.005    27.902     8.664
    10   6 C        3.903     0.025    20.093     6.372
    11   6 C        3.762    -0.103    22.522     6.765
    12   6 C        3.762    -0.103    22.522     6.765
    13   6 C        3.761    -0.107    22.582     6.774
    14   6 C        2.931    -0.045    29.111     8.848
    15   6 C        2.972     0.002    27.975     8.676
    16   6 C        2.972     0.002    27.975     8.676
    17   6 C        2.929    -0.049    29.213     8.864
    18   6 C        2.967     0.005    27.903     8.664
    19   6 C        3.903     0.025    20.095     6.372
    20   6 C        3.762    -0.104    22.540     6.768
    21   6 C        3.761    -0.104    22.537     6.767
    22   6 C        3.762    -0.104    22.540     6.768
    23   6 C        2.931    -0.046    29.135     8.852
    24   6 C        2.983     0.007    27.869     8.660
    25   6 C        2.928    -0.050    29.235     8.867
    26   6 C        2.967     0.005    27.901     8.664
    27   6 C        3.903     0.025    20.092     6.372
    28   6 C        3.761    -0.103    22.515     6.764
    29   6 C        3.762    -0.103    22.515     6.764
    30   6 C        3.761    -0.106    22.580     6.774
    31   6 C        2.931    -0.044    29.095     8.846
    32   6 C        2.972     0.002    27.969     8.675
    33   6 C        2.972     0.002    27.973     8.676
    34   6 C        2.931    -0.044    29.096     8.846
    35   6 C        2.998    -0.003    28.094     8.695
    36   6 C        2.998    -0.003    28.092     8.694
    37   1 H        0.925     0.035     2.513     2.479
    38   1 H        0.925     0.034     2.524     2.485
    39   1 H        0.925     0.035     2.513     2.479
    40   1 H        0.925     0.035     2.522     2.483
    41   1 H        0.925     0.033     2.544     2.494
    42   1 H        0.925     0.035     2.514     2.480
    43   1 H        0.925     0.033     2.544     2.494
    44   1 H        0.925     0.035     2.514     2.480
    45   1 H        0.925     0.035     2.522     2.483
    46   1 H        0.926     0.033     2.544     2.494
    47   1 H        0.926     0.033     2.545     2.495
    48   1 H        0.925     0.033     2.545     2.495
    49   1 H        0.925     0.035     2.514     2.480
    50   1 H        0.925     0.035     2.514     2.479
    51   1 H        0.925     0.035     2.514     2.479
    52   1 H        0.925     0.033     2.545     2.495
    53   1 H        0.925     0.035     2.514     2.480
    54   1 H        0.925     0.035     2.514     2.480
    55   1 H        0.925     0.035     2.514     2.480
    56   1 H        0.925     0.034     2.525     2.485
    57   1 H        0.926     0.031     2.577     2.510
    58   1 H        0.926     0.036     2.501     2.473
    59   1 H        0.925     0.035     2.513     2.479
    60   1 H        0.925     0.036     2.504     2.475
    61   1 H        0.925     0.033     2.544     2.494
    62   1 H        0.925     0.034     2.529     2.487
    63   1 H        0.925     0.034     2.530     2.487
    64   1 H        0.925     0.034     2.530     2.487
    65   1 H        0.925     0.035     2.513     2.479
    66   1 H        0.925     0.036     2.504     2.475
    67   1 H        0.925     0.033     2.544     2.494
    68   1 H        0.926     0.026     2.643     2.542
    69   1 H        0.926     0.032     2.553     2.499
    70   1 H        0.925     0.035     2.521     2.483
    71   1 H        0.925     0.035     2.514     2.480
    72   1 H        0.925     0.033     2.543     2.494
    73   1 H        0.925     0.035     2.514     2.480
    74   1 H        0.925     0.035     2.521     2.483
    75   1 H        0.925     0.033     2.543     2.494
    76   1 H        0.925     0.034     2.524     2.485
    77   1 H        0.925     0.035     2.514     2.480
    78   1 H        0.925     0.035     2.514     2.480
    79   1 H        0.926     0.029     2.602     2.523
    80   1 H        0.926     0.029     2.603     2.523

molecular dipole:
                 x           y           z       tot (Debye)
 q only:       -0.009      -0.010      -0.000
   full:       -0.001       0.007      -0.000       0.017

 projected vibrational frequencies (cm⁻¹)
eigval :       -0.00    -0.00    -0.00    -0.00     0.00     0.00
eigval :        4.78    28.52    29.43    33.05    34.67    40.16
eigval :       61.27    81.96    84.30    96.63    97.62   108.26
eigval :      120.58   137.90   156.60   163.79   165.52   172.09
eigval :      177.96   201.59   210.18   212.19   213.63   214.04
eigval :      219.62   226.50   229.54   235.05   246.75   261.46
eigval :      265.38   272.68   303.59   311.78   316.21   317.92
eigval :      322.84   324.26   329.92   329.98   337.96   344.59
eigval :      349.99   359.29   369.80   387.05   391.52   394.75
eigval :      406.09   416.20   425.18   429.62   458.92   473.57
eigval :      495.04   504.08   506.46   508.54   509.46   532.49
eigval :      544.73   559.78   586.99   597.91   607.39   627.35
eigval :      638.29   642.43   643.63   646.32   687.13   701.31
eigval :      702.60   727.71   755.72   817.78   818.95   829.16
eigval :      831.03   831.62   840.05   845.58   862.59   865.07
eigval :      871.60   873.51   878.31   882.85   938.75   958.66
eigval :      960.55   960.68   960.74   960.78   960.96   962.42
eigval :      962.43   962.79   962.82   963.02   963.37   966.50
eigval :      969.35   991.86  1030.72  1035.00  1035.12  1035.28
eigval :     1035.40  1035.43  1035.97  1036.61  1071.48  1071.96
eigval :     1144.61  1152.97  1178.24  1193.70  1205.18  1211.31
eigval :     1223.49  1226.90  1228.06  1228.16  1228.34  1228.51
eigval :     1234.02  1235.57  1236.45  1240.46  1274.59  1278.67
eigval :     1287.91  1293.35  1306.36  1307.94  1317.61  1363.68
eigval :     1383.36  1388.93  1397.34  1399.51  1403.22  1404.22
eigval :     1404.62  1406.14  1406.39  1406.64  1406.84  1407.01
eigval :     1418.60  1428.00  1429.36  1429.76  1430.39  1431.58
eigval :     1434.35  1449.73  1477.73  1492.48  1492.69  1492.82
eigval :     1492.92  1494.39  1494.74  1495.24  1495.38  1498.72
eigval :     1500.75  1501.37  1501.55  1504.38  1505.17  1506.09
eigval :     1506.75  1512.98  1514.55  1514.69  1514.77  1517.15
eigval :     1520.18  1520.44  1520.66  1522.00  1537.78  1565.07
eigval :     1590.84  1595.41  1597.16  1598.63  3018.63  3020.56
eigval :     3020.59  3020.70  3021.60  3021.89  3021.94  3022.03
eigval :     3024.35  3026.43  3026.44  3026.51  3027.91  3028.76
eigval :     3028.98  3029.57  3029.72  3030.56  3030.59  3030.75
eigval :     3032.90  3035.22  3035.27  3035.41  3035.50  3037.63
eigval :     3037.70  3038.03  3045.01  3045.33  3045.35  3047.30
eigval :     3048.48  3048.78  3048.90  3050.54  3075.61  3101.22
eigval :     3102.65  3103.87  3106.26  3109.69  3116.47  3143.98

   temp. (K)  partition function   enthalpy   heat capacity  entropy
                                   cal/mol     cal/K/mol   cal/K/mol   J/K/mol
 298.15  VIB  0.273E+16            21590.162    135.702    131.762
         ROT  0.383E+08              888.752      2.981     37.678
         INT  0.104E+24            22478.914    138.683    169.440
         TR   0.101E+29             1481.254      4.968     44.353
         TOT                       23960.1683   143.6508   213.7932   894.5109

       T/K    H(0)-H(T)+PV         H(T)/Eh          T*S/Eh         G(T)/Eh
   ------------------------------------------------------------------------
    298.15    0.381830E-01    0.728992E+00    0.101580E+00    0.627412E+00
   ------------------------------------------------------------------------

         :::::::::::::::::::::::::::::::::::::::::::::::::::::
         ::                  THERMODYNAMIC                  ::
         :::::::::::::::::::::::::::::::::::::::::::::::::::::
         :: total free energy         -99.006429950893 Eh   ::
         ::.................................................::
         :: total energy              -99.633841608648 Eh   ::
         :: zero point energy           0.690808766912 Eh   ::
         :: G(RRHO) w/o ZPVE           -0.063397109156 Eh   ::
         :: G(RRHO) contrib.            0.627411657756 Eh   ::
         :::::::::::::::::::::::::::::::::::::::::::::::::::::

           -------------------------------------------------
          | TOTAL ENERGY              -99.633841608648 Eh   |
          | TOTAL ENTHALPY            -98.904849883040 Eh   |
          | TOTAL FREE ENERGY         -99.006429950893 Eh   |
          | GRADIENT NORM               0.000018181025 Eh/α |
          | HOMO-LUMO GAP               1.908784117622 eV   |
           -------------------------------------------------

 * finished run on 2025/07/16 at 11:26:39.749
