   * xtb version 6.7.1 (edcfbbe) compiled by 'albert@albert-system' on 2024-07-22

   ID    Z sym.   atoms
    1    6 C      1-20, 22-44, 46-59, 61-80
    2    7 N      21, 45, 60
    3    1 H      81-141

          program call               : xtb data2507/gas/PTPC/PTPC_gas_S0_finalOpt.xtbopt.xyz --gfn 2 --spinpol --tblite --uhf 2 --ohess vtight --parallel 40 --molden --ceasefiles --namespace data2507/gas/PTPC/PTPC_gas_T1_preOpt
 * total energy  :  -204.7904908 Eh     change       -0.2356548E-06 Eh
 * total energy  :  -204.7956070 Eh     change       -0.5116286E-02 Eh
 * total energy  :  -204.7987698 Eh     change       -0.3162723E-02 Eh
 * total energy  :  -204.7994943 Eh     change       -0.7244890E-03 Eh
 * total energy  :  -204.8005042 Eh     change       -0.1009936E-02 Eh
 * total energy  :  -204.8009086 Eh     change       -0.4044102E-03 Eh
 * total energy  :  -204.8011959 Eh     change       -0.2872753E-03 Eh
 * total energy  :  -204.8014173 Eh     change       -0.2213937E-03 Eh
 * total energy  :  -204.8015650 Eh     change       -0.1477753E-03 Eh
 * total energy  :  -204.8016619 Eh     change       -0.9684967E-04 Eh
 * total energy  :  -204.8021955 Eh     change       -0.8623714E-06 Eh
 * total energy  :  -204.8021965 Eh     change       -0.9433077E-06 Eh
 * total energy  :  -204.8021980 Eh     change       -0.1554308E-05 Eh
 * total energy  :  -204.8021995 Eh     change       -0.1484424E-05 Eh
 * total energy  :  -204.8022010 Eh     change       -0.1533401E-05 Eh
 * total energy  :  -204.8022023 Eh     change       -0.1259748E-05 Eh
 * total energy  :  -204.8022034 Eh     change       -0.1102290E-05 Eh
 * total energy  :  -204.8022034 Eh     change        0.1389913E-07 Eh
 * total energy  :  -204.8022034 Eh     change       -0.1879866E-07 Eh
   *** GEOMETRY OPTIMIZATION CONVERGED AFTER 95 ITERATIONS ***

 final structure:
================
141
 xtb: 6.7.1 (edcfbbe)
C          -13.82079510437273       -4.61112641798911        0.29620407553367
C          -13.87200907566222       -3.40923181846966        1.25016534214845
C          -13.72105836815731       -3.88939378984896        2.70061018485900
C          -15.24710684247243       -2.75030827183744        1.11024311131118
C          -12.73133940404849       -2.45881131402166        0.91674404842840
C          -11.41303736667306       -2.92502351817175        1.01320531989306
C          -10.31595501568240       -2.13603886554646        0.73450036396424
C          -10.54012694252620       -0.82292325670359        0.34967306498874
C          -11.85787454647063       -0.33501034207754        0.22135681335756
C          -12.94314521675509       -1.15153586080219        0.50877631462686
C          -11.74572185231294        1.02322562465992       -0.23562088529706
C          -12.68202240493564        2.00924747582208       -0.51543701765529
C          -12.25854710832251        3.26386498986430       -0.92392300505105
C          -13.22730127416387        4.39156786198393       -1.24856994808324
C          -13.01528386297906        4.83498652589189       -2.70304042434029
C          -14.69172934154612        3.97369809585788       -1.08909758074524
C          -12.96341961625358        5.57080005080502       -0.30141530777052
C          -10.88178699329321        3.50429324555970       -1.02995138997191
C           -9.92933874586321        2.54365220153546       -0.75841745617112
C          -10.36604137864180        1.28573082736190       -0.37176967421052
N           -9.64595707993480        0.16382340784373       -0.01358045128135
C           -8.25057496877263        0.05183447687862       -0.00900742950349
C           -7.51161254633252        0.42078316374646       -1.13038919608485
C           -6.13644370888347        0.31399264855253       -1.12014361029546
C           -5.46101762549711       -0.15705577092956        0.00567598082204
C           -3.99845549884343       -0.25592557259394        0.01689476712527
C           -3.26658071545559        0.11834021591407        1.14412223845421
C           -1.89089233372066        0.03956514805002        1.15182208724127
C           -1.19329077908378       -0.44530367432719        0.04301872486570
C            0.26534740579566       -0.52594620380768        0.05550007577036
C            1.00997198785860        0.54423729165536        0.54890749427513
C            2.39203937551547        0.56662917298230        0.52635188676824
C            3.09368640077175        1.67309410917020        1.18776415389522
C            2.70590525966023        2.99554896356055        0.97454329363986
C            3.35712744814036        4.03261648143482        1.61465770705740
C            4.39622125577359        3.76839653436927        2.49158417647117
C            4.77769484173537        2.45712182510740        2.72664898214734
C            4.13582275001858        1.41891946407510        2.08176945553813
C            3.09714253153086       -0.53189458280318       -0.04551701336935
C            4.51801454064089       -0.50900038113213       -0.22227474834214
C            5.20570198600596        0.69892757211580       -0.52747510092459
C            6.55949520574355        0.75876559326925       -0.60519969552831
C            7.36047910546150       -0.39548799978994       -0.35439862501656
C            8.75677883375794       -0.41898692392792       -0.28604200222774
N            9.46450358515826       -1.56157752899671       -0.36135586426910
C           10.74556122863046       -1.22054621110433       -0.33936648316476
C           11.87600216654566       -2.08268161283791       -0.45206978124984
C           11.70841767788252       -3.45642366956076       -0.63978750391373
C           12.80308369601810       -4.27812243422251       -0.78280920402537
C           14.07750110671812       -3.72307619413998       -0.74552879164482
C           14.25323213077469       -2.36859565217041       -0.55499067116773
C           13.16369530231418       -1.50226254625143       -0.39288985879491
C           13.31487809924759       -0.07664538746262       -0.15222837508077
C           14.57425627222135        0.50831104412034        0.00080432791803
C           14.73506088152809        1.85003057693329        0.27215460682577
C           13.61716233558646        2.66915567375275        0.42305179447028
C           12.36191476104553        2.14177409889383        0.27309926665563
C           12.17044867731553        0.77792353805492       -0.03491150830767
C           10.90147391906546        0.18791067554301       -0.19921052152476
N            9.62403808312712        0.68790212525494       -0.17254605277236
C            9.21304521634229        2.01694490789362        0.01863956686304
C            9.51233101757473        2.98972011725065       -0.93349463450281
C            9.07527298108759        4.28753115469956       -0.74796144051181
C            8.33909742042264        4.62260627594677        0.37805238437580
C            8.04278927992345        3.65542861726033        1.32491273364494
C            8.47655278215914        2.35511866177663        1.15203311116201
C            6.66396373953144       -1.63659388606193       -0.19137570328653
C            5.30916824905918       -1.68801007663762       -0.13620670797392
C            2.33893004107935       -1.63743906267851       -0.47082627747255
C            0.96187286841700       -1.65557254535712       -0.43730029574343
C            0.25146227988971       -2.87129171247986       -0.86672345264326
C           -0.72741314315981       -3.44446350660747       -0.05767507873053
C           -1.37737110453353       -4.59747766528456       -0.45369832927521
C           -1.06229255091952       -5.19629097815671       -1.66246721374695
C           -0.08472770840983       -4.63948745437311       -2.46959279770694
C            0.57070184646970       -3.48830525319715       -2.07346369744272
C           -1.92785196993953       -0.82185080395369       -1.08475745360958
C           -3.30109262264058       -0.71826657784325       -1.09998492685325
C           -6.21124674117418       -0.52546356027276        1.12238837542093
C           -7.58701991918336       -0.42629880715850        1.11827343609692
H          -12.88908069617545       -5.16032450141905        0.39889506684151
H          -13.90591599996852       -4.27531028694784       -0.73527895243132
H          -14.64258020746909       -5.29252271069475        0.50680127287624
H          -14.54174798868245       -4.55393995343232        2.96293896300716
H          -12.78883603577914       -4.42780245253247        2.84633394696939
H          -13.73375281014129       -3.03980669363884        3.38033929494457
H          -15.34269567123812       -1.89892037808611        1.78020118891121
H          -15.42211616709542       -2.42264260071512        0.08811535431257
H          -16.02166273796684       -3.46976986616213        1.36868612958518
H          -11.23396098720656       -3.94622084907622        1.31340251210287
H           -9.31629412692529       -2.53828633331247        0.80360860923406
H          -13.93559393628024       -0.74674222350425        0.40128047868648
H          -13.72722676603110        1.77490606556020       -0.40138661303476
H          -13.18279791680661        3.99851587438043       -3.37849367587530
H          -12.00621319440135        5.20438899506784       -2.86284608310530
H          -13.71283326816619        5.63014780051168       -2.95822891498936
H          -14.90571040640194        3.68094986489334       -0.06377904268687
H          -14.93826768245591        3.15008553055323       -1.75519114075406
H          -15.33744030732169        4.81309249849997       -1.33976103997388
H          -13.66433069216947        6.37821038812397       -0.50339589677935
H          -11.95551798230450        5.95835224573913       -0.42041532700209
H          -13.08721476836313        5.25629163774476        0.73286229887056
H          -10.53736079765362        4.48164657193100       -1.33191687611048
H           -8.87726171327626        2.77443038095680       -0.83427786309714
H           -8.02508018923526        0.77798516811618       -2.01077848425129
H           -5.57269865386740        0.61489395137294       -1.99086337224918
H           -3.78532094155121        0.49645246331940        2.01350930641155
H           -1.34324776222231        0.32907038187441        2.03755244545666
H            0.48358856063775        1.38895978496939        0.97145389253034
H            1.90591051470003        3.20835209089244        0.27952764354751
H            3.05390549142702        5.05298593392905        1.42843364440993
H            4.89895516917588        4.58163819875209        2.99465818342421
H            5.57634470298190        2.24177947298352        3.42200548078355
H            4.42570869391058        0.39773145389571        2.28174398669941
H            4.62490651128220        1.57855914062235       -0.76141234160708
H            7.02720330375789        1.67980324240994       -0.91252782197697
H           10.70114652963940       -3.84116503715575       -0.67396425482516
H           12.67751397385594       -5.34056390728067       -0.92814588718602
H           14.94304286366858       -4.35854426153235       -0.86648181407763
H           15.26163780490985       -1.98688956315679       -0.53708895423587
H           15.46109830441940       -0.09908619565838       -0.08305737371257
H           15.72665894699407        2.26282481977771        0.38215856876145
H           13.73987863112741        3.71518269849263        0.66191597131270
H           11.50202196434046        2.77632437613996        0.41179684654118
H           10.08013308817007        2.71646806641320       -1.81112252054644
H            9.30398503279078        5.03856243087403       -1.48936822992935
H            7.99523117096767        5.63646675722067        0.51517829666728
H            7.46952256530789        3.91458358412731        2.20132472483663
H            8.24436369269484        1.59205201965050        1.87960207659592
H            7.26467262640954       -2.52381681073456       -0.07153706704195
H            4.82028630778060       -2.63339826537688        0.04689752502963
H            2.85481600902750       -2.49822895877355       -0.87034102359019
H           -0.96819030439894       -2.98728593101368        0.89101637020844
H           -2.13350495093322       -5.03225959317892        0.18386524555477
H           -1.57516722747365       -6.09472681240854       -1.97296857773299
H            0.16680522872153       -5.10315679812077       -3.41266795124661
H            1.32377099757534       -3.04787252683564       -2.71177693856714
H           -1.40848041302425       -1.17822818140692       -1.96194456009805
H           -3.84855602363554       -1.02148093655895       -1.98070945423736
H           -5.70805139052554       -0.90673078740026        1.99875282992307
H           -8.15721699895087       -0.70270073076305        1.99282245165941

 projected vibrational frequencies (cm⁻¹)
eigval :       -0.00    -0.00    -0.00     0.00     0.00     0.00
eigval :        3.73     5.60     5.71    13.74    15.11    16.68
eigval :       21.06    24.96    28.58    30.80    33.44    35.83
eigval :       39.89    45.00    50.14    52.31    54.58    56.19
eigval :       59.50    64.14    67.27    71.74    74.03    75.91
eigval :       82.36    88.25    91.66    96.88   100.49   114.89
eigval :      120.32   123.98   133.29   135.44   145.97   159.93
eigval :      170.11   173.74   174.69   187.25   193.87   197.79
eigval :      202.41   204.70   216.85   221.79   222.95   225.59
eigval :      229.82   234.82   241.37   243.98   252.58   256.79
eigval :      258.37   260.69   273.03   278.04   284.42   291.55
eigval :      312.54   317.71   322.00   323.23   327.33   329.43
eigval :      341.10   344.88   359.55   361.61   366.21   372.61
eigval :      374.90   375.96   377.40   381.01   381.99   384.29
eigval :      391.41   394.42   399.90   405.82   410.18   411.47
eigval :      419.04   424.05   432.31   440.37   442.51   442.85
eigval :      451.55   458.58   465.88   466.22   470.14   474.97
eigval :      483.55   492.32   499.00   500.48   506.60   516.44
eigval :      521.50   526.15   538.28   551.55   572.74   577.30
eigval :      582.12   583.19   584.04   586.13   586.50   588.50
eigval :      592.20   596.50   604.92   608.74   610.28   619.85
eigval :      628.68   630.62   634.90   640.12   642.71   657.61
eigval :      661.14   664.59   669.30   670.78   674.46   677.87
eigval :      681.91   688.39   691.89   693.52   696.10   705.49
eigval :      707.28   714.71   721.46   727.14   729.27   741.02
eigval :      755.68   758.81   760.01   762.83   775.68   776.79
eigval :      792.55   805.92   809.07   817.74   821.34   823.27
eigval :      832.35   833.52   853.79   862.32   865.89   866.43
eigval :      868.03   869.77   870.63   873.11   873.95   875.22
eigval :      878.43   879.06   885.49   894.81   899.70   900.49
eigval :      902.40   911.16   911.64   913.64   913.89   915.09
eigval :      916.11   918.52   920.31   922.03   922.95   923.01
eigval :      923.75   927.58   927.68   928.92   929.23   929.95
eigval :      930.26   931.29   932.60   934.21   940.60   948.61
eigval :      959.54   960.19   960.24   962.81   962.88   962.90
eigval :      963.22   975.81   986.47   988.44  1002.00  1012.79
eigval :     1025.59  1031.08  1035.42  1035.55  1035.81  1041.95
eigval :     1052.00  1056.63  1078.12  1079.01  1081.77  1083.29
eigval :     1086.01  1091.17  1093.14  1104.08  1116.01  1116.65
eigval :     1122.24  1123.09  1129.50  1135.73  1137.23  1138.26
eigval :     1142.64  1146.68  1158.94  1174.65  1175.07  1179.58
eigval :     1181.07  1182.14  1183.09  1186.08  1188.24  1193.86
eigval :     1196.39  1198.98  1200.52  1204.69  1212.22  1220.02
eigval :     1227.79  1227.89  1231.22  1231.97  1234.47  1237.29
eigval :     1238.55  1243.76  1246.67  1250.15  1253.28  1259.07
eigval :     1263.13  1266.74  1267.51  1273.76  1275.23  1278.41
eigval :     1283.24  1284.00  1284.77  1284.86  1294.16  1307.06
eigval :     1308.30  1311.35  1314.35  1315.20  1318.10  1320.00
eigval :     1320.43  1330.84  1333.81  1337.44  1341.94  1347.35
eigval :     1355.58  1356.31  1377.78  1381.27  1385.02  1392.15
eigval :     1395.72  1401.74  1403.96  1404.50  1405.63  1405.70
eigval :     1410.61  1416.71  1416.93  1422.28  1428.17  1428.27
eigval :     1428.79  1432.10  1434.29  1437.27  1441.06  1441.69
eigval :     1450.83  1464.44  1470.63  1474.09  1478.34  1480.86
eigval :     1483.32  1484.71  1488.91  1492.22  1492.25  1494.75
eigval :     1494.79  1495.61  1501.32  1501.48  1505.55  1505.59
eigval :     1506.48  1514.74  1514.95  1515.33  1520.19  1521.01
eigval :     1531.47  1540.04  1542.65  1556.51  1556.68  1563.26
eigval :     1567.67  1568.66  1568.84  1571.31  1579.88  1580.89
eigval :     1583.40  1583.84  1588.92  1592.91  1598.28  1598.46
eigval :     1599.55  1612.83  3020.86  3020.99  3022.36  3022.39
eigval :     3026.90  3026.93  3029.18  3029.46  3030.96  3031.03
eigval :     3035.47  3035.71  3038.12  3038.34  3047.30  3047.42
eigval :     3050.55  3050.65  3066.47  3067.56  3068.12  3069.17
eigval :     3071.43  3071.69  3073.63  3074.81  3077.01  3077.74
eigval :     3077.95  3078.59  3078.66  3079.27  3079.94  3079.98
eigval :     3081.58  3082.27  3083.42  3084.21  3085.36  3085.67
eigval :     3086.96  3087.24  3088.29  3088.67  3090.05  3090.65
eigval :     3091.44  3091.76  3092.69  3093.01  3093.70  3095.84
eigval :     3097.49  3105.66  3106.72  3109.72  3111.08  3113.91
eigval :     3114.85  3118.65  3123.22

   temp. (K)  partition function   enthalpy   heat capacity  entropy
                                   cal/mol     cal/K/mol   cal/K/mol   J/K/mol
 298.15  VIB  0.147E+35            41326.353    254.703    261.480
         ROT  0.657E+09              888.752      2.981     43.329
         INT  0.968E+43            42215.105    257.684    304.809
         TR   0.319E+29             1481.254      4.968     46.644
         TOT                       43696.3591   262.6522   351.4528  1470.4786

       T/K    H(0)-H(T)+PV         H(T)/Eh          T*S/Eh         G(T)/Eh
   ------------------------------------------------------------------------
    298.15    0.696346E-01    0.119236E+01    0.166987E+00    0.102537E+01
   ------------------------------------------------------------------------

         :::::::::::::::::::::::::::::::::::::::::::::::::::::
         ::                  THERMODYNAMIC                  ::
         :::::::::::::::::::::::::::::::::::::::::::::::::::::
         :: total free energy        -203.776832703263 Eh   ::
         ::.................................................::
         :: total energy             -204.802203402688 Eh   ::
         :: zero point energy           1.122722696291 Eh   ::
         :: G(RRHO) w/o ZPVE           -0.097351996866 Eh   ::
         :: G(RRHO) contrib.            1.025370699425 Eh   ::
         :::::::::::::::::::::::::::::::::::::::::::::::::::::

           -------------------------------------------------
          | TOTAL ENERGY             -204.802203402688 Eh   |
          | TOTAL ENTHALPY           -203.609846125692 Eh   |
          | TOTAL FREE ENERGY        -203.776832703263 Eh   |
          | GRADIENT NORM               0.000066880292 Eh/α |
           -------------------------------------------------

 * finished run on 2025/09/02 at 20:57:24.551
