   * xtb version 6.7.1 (edcfbbe) compiled by 'albert@albert-system' on 2024-07-22

   ID    Z sym.   atoms
    1    6 C      1-20, 22-44, 46-59, 61-80
    2    7 N      21, 45, 60
    3    1 H      81-141

          program call               : xtb data2507/gas/PTPC/PTPC_gas_S0_crest.xyz --gfn 2 --ohess vtight --parallel 40 --molden --ceasefiles --namespace data2507/gas/PTPC/PTPC_gas_S0_finalOpt
          :  Hamiltonian                  GFN2-xTB          :
 * total energy  :  -204.8866760 Eh     change       -0.2695003E-08 Eh
 * total energy  :  -204.8866781 Eh     change       -0.2049970E-05 Eh
 * total energy  :  -204.8866816 Eh     change       -0.3521089E-05 Eh
 * total energy  :  -204.8866858 Eh     change       -0.4146766E-05 Eh
 * total energy  :  -204.8866875 Eh     change       -0.1707333E-05 Eh
 * total energy  :  -204.8866898 Eh     change       -0.2320010E-05 Eh
 * total energy  :  -204.8866931 Eh     change       -0.3289299E-05 Eh
 * total energy  :  -204.8866967 Eh     change       -0.3630207E-05 Eh
 * total energy  :  -204.8866996 Eh     change       -0.2906987E-05 Eh
 * total energy  :  -204.8867020 Eh     change       -0.2393036E-05 Eh
 * total energy  :  -204.8867402 Eh     change       -0.3614146E-06 Eh
 * total energy  :  -204.8867406 Eh     change       -0.3493473E-06 Eh
 * total energy  :  -204.8867410 Eh     change       -0.3877108E-06 Eh
 * total energy  :  -204.8867415 Eh     change       -0.5343346E-06 Eh
 * total energy  :  -204.8867423 Eh     change       -0.8306043E-06 Eh
 * total energy  :  -204.8867435 Eh     change       -0.1210752E-05 Eh
 * total energy  :  -204.8867448 Eh     change       -0.1276087E-05 Eh
 * total energy  :  -204.8867459 Eh     change       -0.1092613E-05 Eh
 * total energy  :  -204.8867459 Eh     change       -0.8874508E-08 Eh
   *** GEOMETRY OPTIMIZATION CONVERGED AFTER 68 ITERATIONS ***

 final structure:
================
141
 xtb: 6.7.1 (edcfbbe)
C          -13.82757084678006       -4.62151844685548        0.10302266878930
C          -13.89469563270565       -3.44196198495150        1.08341651742063
C          -13.77130824437157       -3.95608522201180        2.52476405494102
C          -15.26627497269985       -2.77798223594834        0.93330318822298
C          -12.74706042646096       -2.48495910996454        0.79437703331176
C          -11.43134922504439       -2.95669362633517        0.89820613851285
C          -10.32836021851285       -2.16222152615319        0.66150644081643
C          -10.54285203071433       -0.83742823538821        0.31400944044899
C          -11.85724596261756       -0.34394590898299        0.17686195483634
C          -12.94913137815117       -1.16667834218126        0.42142697802037
C          -11.73662915014103        1.02626571858566       -0.23814934866721
C          -12.66883590210834        2.01932417440925       -0.51003561360982
C          -12.23940650380708        3.28405667894138       -0.87589524649678
C          -13.20236464440883        4.41838490837858       -1.19596392514802
C          -12.95480056829281        4.89796288283589       -2.63328698306983
C          -14.66934695270132        3.99404537940561       -1.08437787659107
C          -12.96572191002748        5.57443247154214       -0.21385841729624
C          -10.86110272029066        3.52903154249134       -0.94387027871092
C           -9.91312942619683        2.56211020639647       -0.67925222377692
C          -10.35516764849546        1.29265923893411       -0.34023485501128
N           -9.64079844770450        0.15955185710247       -0.00268623636851
C           -8.24667172756813        0.04461752416370        0.01529527661686
C           -7.49224503259294        0.46770317379376       -1.07613843397494
C           -6.11686490715896        0.36067133352727       -1.05239913020535
C           -5.45827234331532       -0.17064466094448        0.05486737266458
C           -3.99318617570636       -0.27093482684598        0.07871686836787
C           -3.27674956171640        0.05749433445500        1.22736628679062
C           -1.89884341360307       -0.02069080982118        1.24588340352593
C           -1.19559420615139       -0.44899778620993        0.12326522142753
C            0.27438061500094       -0.51815152251160        0.14530513499228
C            0.99561278136412        0.58385683393679        0.58755690013247
C            2.38371941914923        0.60613480723274        0.58472873769810
C            3.08854326682253        1.78402706832812        1.11930912325577
C            2.74654683789699        3.06448759181701        0.69477199713138
C            3.39752379394189        4.17159127189244        1.20726829856671
C            4.38875767219345        4.01580309499690        2.16081727742457
C            4.72673257628376        2.74598093403722        2.59881481037284
C            4.08527066056155        1.63757585509512        2.08050294152638
C            3.07841354496808       -0.51325695313346        0.10742726992028
C            4.54620235100396       -0.51691347150532        0.00865797900750
C            5.21281622195181        0.53386917479047       -0.61663741697992
C            6.58896519996161        0.54829520986083       -0.70338101161422
C            7.33976224230339       -0.48749298109651       -0.14891724938677
C            8.79165094967727       -0.52267183514602       -0.18066205676513
N            9.47685639442947       -1.63416930476153       -0.28612158983881
C           10.78516341440663       -1.27102376910216       -0.28889967549477
C           11.92387980084914       -2.11311929316754       -0.42354216194834
C           11.78700875183674       -3.49583769620363       -0.58446626496350
C           12.89615341961370       -4.28802395347961       -0.74396675150367
C           14.16040484763473       -3.70189833179383       -0.74851954178044
C           14.30661345554697       -2.34412360035269       -0.58600252809460
C           13.19808997148138       -1.50147444537367       -0.41083040481973
C           13.32048063672116       -0.06902303552503       -0.20162967040577
C           14.57262159753933        0.55508338553008       -0.10954372032884
C           14.70119704450637        1.90187326633783        0.13399800908232
C           13.56880312858757        2.68906811063647        0.31606216311334
C           12.32307774089509        2.11916036284162        0.22482175705725
C           12.16923278499526        0.75324508292659       -0.05322673817520
C           10.90296894154183        0.11241649684101       -0.16314369680530
N            9.61063447719239        0.58401585542097       -0.10467673159438
C            9.16611030522797        1.91664514950672        0.00098497415875
C            9.41408785790694        2.81604900589882       -1.03216774575063
C            8.94379692571893        4.11259599478872       -0.93852713491790
C            8.22477261115589        4.51378964718768        0.17602864527003
C            7.97889770302843        3.61729014347286        1.20205259470159
C            8.44555309518434        2.31810122146028        1.11949533462034
C            6.67139170456765       -1.56279967567876        0.43839415071767
C            5.29480389391743       -1.57857532846022        0.51172620437597
C            2.35847927051500       -1.62340958441643       -0.31400968829004
C            0.96984477462331       -1.65095490736101       -0.29842805074654
C            0.26884039613420       -2.87630952310741       -0.71830220283945
C           -0.72384707973281       -3.43833917914879        0.08019325133185
C           -1.37090783876446       -4.59327460574150       -0.31602570883993
C           -1.03730442663396       -5.20380324511148       -1.51374319627288
C           -0.04497227530289       -4.65762643237324       -2.30981718540680
C            0.60722602532727       -3.50452667187897       -1.91345995383735
C           -1.91029152836611       -0.77879598529651       -1.02574640980619
C           -3.28636314358460       -0.68556796965561       -1.04854180236359
C           -6.22184471209829       -0.59593186337723        1.14021230614010
C           -7.59769158019708       -0.49081644861983        1.12493870958536
H          -12.89984020407605       -5.17624409798907        0.21195700800978
H          -13.89037702365460       -4.26147680410756       -0.92187236814589
H          -14.65550468982027       -5.30496509693314        0.28069362590680
H          -14.59465304029640       -4.62927304223561        2.75507100486786
H          -12.83997593684007       -4.49459857355198        2.67604687270928
H          -13.80037145697647       -3.12284509921756        3.22397870033609
H          -15.37418437010770       -1.94360889581802        1.62250655973004
H          -15.42041439187700       -2.42407429772138       -0.08342850235488
H          -16.04657579619954       -3.50260036851066        1.15813261653291
H          -11.25875363926222       -3.98689687800144        1.17059161889497
H           -9.33124922944940       -2.57032290321901        0.73412357770981
H          -13.93860686065910       -0.75596559551766        0.30867680835891
H          -13.71573578355069        1.78037205417437       -0.42404142870707
H          -13.09883285124399        4.07683871112999       -3.33260684104392
H          -11.94409656594138        5.27669177104405       -2.75710617772843
H          -13.65025307010657        5.69508249019383       -2.88835841585974
H          -14.90836978961732        3.67454504848480       -0.07267937539388
H          -14.89659876430678        3.18711927648443       -1.77722035309100
H          -15.31075185598266        4.83836462555105       -1.32979394499646
H          -13.66032718122066        6.38725870335563       -0.41630940813822
H          -11.95463190035362        5.96361132796469       -0.29463161546209
H          -13.11902032606967        5.23526703557806        0.80861095188256
H          -10.51159210209446        4.51504502962804       -1.21016052948074
H           -8.86028602152865        2.79770678116870       -0.72480608715785
H           -7.99307199229681        0.86850277713701       -1.94479534644515
H           -5.54117011858585        0.70647933963654       -1.89841061776913
H           -3.80545525428808        0.39884650659956        2.10570418714477
H           -1.35729777493427        0.23584713526188        2.14561584929961
H            0.45867608982658        1.45215464023201        0.94334179424656
H            1.97720705747652        3.18772725247192       -0.05446667171926
H            3.12851060313534        5.15992973459325        0.86339215926242
H            4.88957418815449        4.88333090767723        2.56558623339723
H            5.48906557720939        2.61692701162709        3.35367908080998
H            4.34488240005723        0.64956117923284        2.43154013286534
H            4.64309099409668        1.34147455964846       -1.05223376546967
H            7.07366770156323        1.36023915521992       -1.22312135929407
H           10.78937368178339       -3.90666662803012       -0.58475259530432
H           12.79562228095661       -5.35600715952212       -0.86988437875719
H           15.03653157648012       -4.32042216419957       -0.88091039631062
H           15.30486190400848       -1.93606140789268       -0.59926407288366
H           15.47191357325599       -0.02860311821566       -0.22216908684028
H           15.68340371210315        2.34668223146351        0.19787501800108
H           13.66758989054636        3.74260705020943        0.53248427177532
H           11.44920147679681        2.73032719622071        0.38567133352599
H            9.97436663911000        2.49043515188656       -1.89669700661490
H            9.13611957657969        4.80955385731843       -1.74043608766984
H            7.85605155207221        5.52599676895761        0.24364666025662
H            7.42096194938752        3.92979475671764        2.07046425946780
H            8.25333582888834        1.60913488567817        1.91087536957452
H            7.25702725331304       -2.37622800626530        0.83746911769603
H            4.78916051773945       -2.40736717200822        0.98645456413115
H            2.89633850596589       -2.49178871748458       -0.66756342367765
H           -0.97937772216322       -2.97110340178309        1.02000278517809
H           -2.13898843971729       -5.01983709504083        0.31252810391417
H           -1.54740083712877       -6.10370886784021       -1.82429715143548
H            0.22112416666869       -5.13096131791638       -3.24391774856564
H            1.37281885921894       -3.07249492934837       -2.54247187706646
H           -1.37850560044201       -1.10001038169173       -1.90936491078428
H           -3.82501007488777       -0.95668980886757       -1.94483610713564
H           -5.73036796950495       -1.02410120316926        2.00158481952868
H           -8.17843201622516       -0.80838160482026        1.97813990422393

          :  Hamiltonian                  GFN2-xTB          :
         :: gradient norm              0.000064422461 Eh/a0 ::
         :: HOMO-LUMO gap              2.361243938808 eV    ::
         :: SCC energy              -208.725952532590 Eh    ::
         :: -> dispersion             -0.199817220157 Eh    ::
         :: repulsion energy           3.839206622255 Eh    ::

    * Orbital Energies and Occupations

         #    Occupation            Energy/Eh            Energy/eV
      -------------------------------------------------------------
         1        2.0000           -0.6839109             -18.6102
       ...           ...                  ...                  ...
       180        2.0000           -0.4028495             -10.9621
       181        2.0000           -0.4017841             -10.9331
       182        2.0000           -0.3983878             -10.8407
       183        2.0000           -0.3954697             -10.7613
       184        2.0000           -0.3911474             -10.6437
       185        2.0000           -0.3907940             -10.6340
       186        2.0000           -0.3865961             -10.5198
       187        2.0000           -0.3777529             -10.2792
       188        2.0000           -0.3752335             -10.2106
       189        2.0000           -0.3731011             -10.1526
       190        2.0000           -0.3676197             -10.0034
       191        2.0000           -0.3593149              -9.7775
       192        2.0000           -0.3509863              -9.5508 (HOMO)
       193                         -0.2642122              -7.1896 (LUMO)
       194                         -0.2539503              -6.9103
       195                         -0.2476131              -6.7379
       196                         -0.2467258              -6.7138
       197                         -0.2409972              -6.5579
       198                         -0.2397755              -6.5246
       199                         -0.2381482              -6.4803
       200                         -0.2347751              -6.3886
       201                         -0.2277700              -6.1979
       202                         -0.2273207              -6.1857
       203                         -0.2253293              -6.1315
       ...                                ...                  ...
       381                          0.7488185              20.3764
      -------------------------------------------------------------
                  HL-Gap            0.0867741 Eh            2.3612 eV

     #   Z          covCN         q      C6AA      α(0)
     1   6 C        3.761    -0.105    22.547     6.769
     2   6 C        3.903     0.026    20.088     6.371
     3   6 C        3.762    -0.105    22.547     6.769
     4   6 C        3.761    -0.106    22.580     6.774
     5   6 C        2.973    -0.003    28.090     8.694
     6   6 C        2.931    -0.040    28.987     8.830
     7   6 C        2.908    -0.054    29.335     8.881
     8   6 C        3.080     0.043    26.960     8.512
     9   6 C        3.068    -0.021    28.449     8.746
    10   6 C        2.918    -0.044    29.093     8.845
    11   6 C        3.068    -0.021    28.449     8.746
    12   6 C        2.918    -0.044    29.093     8.845
    13   6 C        2.973    -0.003    28.091     8.694
    14   6 C        3.903     0.026    20.088     6.371
    15   6 C        3.762    -0.105    22.547     6.769
    16   6 C        3.761    -0.106    22.580     6.774
    17   6 C        3.761    -0.105    22.547     6.769
    18   6 C        2.931    -0.040    28.988     8.830
    19   6 C        2.908    -0.054    29.336     8.881
    20   6 C        3.081     0.043    26.960     8.512
    21   7 N        2.802    -0.045    22.115     6.985
    22   6 C        2.913     0.063    26.586     8.455
    23   6 C        2.921    -0.044    29.096     8.846
    24   6 C        2.925    -0.034    28.844     8.807
    25   6 C        2.976     0.006    27.883     8.662
    26   6 C        2.977     0.008    27.833     8.654
    27   6 C        2.924    -0.035    28.876     8.812
    28   6 C        2.923    -0.035    28.877     8.812
    29   6 C        2.978     0.012    27.753     8.641
    30   6 C        2.978     0.004    27.940     8.671
    31   6 C        2.931    -0.041    29.012     8.833
    32   6 C        2.979     0.003    27.961     8.674
    33   6 C        2.978     0.014    27.704     8.634
    34   6 C        2.925    -0.034    28.853     8.809
    35   6 C        2.919    -0.030    28.754     8.793
    36   6 C        2.920    -0.031    28.784     8.798
    37   6 C        2.919    -0.029    28.731     8.790
    38   6 C        2.925    -0.032    28.790     8.799
    39   6 C        2.979     0.003    27.945     8.671
    40   6 C        2.978     0.014    27.698     8.633
    41   6 C        2.924    -0.032    28.794     8.800
    42   6 C        2.921    -0.035    28.873     8.812
    43   6 C        2.974     0.000    28.016     8.682
    44   6 C        3.191     0.127    24.763     8.116
    45   7 N        1.895    -0.291    28.402     7.901
    46   6 C        3.207     0.057    26.140     8.326
    47   6 C        2.986     0.003    27.957     8.673
    48   6 C        2.922    -0.031    28.778     8.797
    49   6 C        2.917    -0.030    28.759     8.794
    50   6 C        2.917    -0.033    28.824     8.804
    51   6 C        2.922    -0.035    28.869     8.811
    52   6 C        2.979    -0.002    28.061     8.689
    53   6 C        2.980     0.002    27.981     8.677
    54   6 C        2.922    -0.034    28.843     8.807
    55   6 C        2.916    -0.034    28.836     8.806
    56   6 C        2.917    -0.032    28.798     8.800
    57   6 C        2.919    -0.040    29.002     8.831
    58   6 C        2.978    -0.002    28.068     8.690
    59   6 C        3.073     0.020    27.493     8.597
    60   7 N        2.841    -0.046    22.126     6.986
    61   6 C        2.913     0.069    26.451     8.433
    62   6 C        2.921    -0.037    28.917     8.818
    63   6 C        2.920    -0.027    28.682     8.782
    64   6 C        2.920    -0.030    28.746     8.792
    65   6 C        2.921    -0.026    28.646     8.777
    66   6 C        2.922    -0.037    28.920     8.819
    67   6 C        2.927    -0.029    28.718     8.788
    68   6 C        2.923    -0.033    28.830     8.805
    69   6 C        2.930    -0.040    29.005     8.832
    70   6 C        2.978     0.004    27.937     8.670
    71   6 C        2.978     0.013    27.718     8.636
    72   6 C        2.925    -0.031    28.776     8.797
    73   6 C        2.919    -0.029    28.730     8.790
    74   6 C        2.920    -0.031    28.772     8.796
    75   6 C        2.919    -0.030    28.741     8.791
    76   6 C        2.925    -0.034    28.855     8.809
    77   6 C        2.923    -0.032    28.793     8.800
    78   6 C        2.924    -0.034    28.859     8.810
    79   6 C        2.925    -0.034    28.843     8.807
    80   6 C        2.920    -0.044    29.099     8.846
    81   1 H        0.925     0.035     2.515     2.480
    82   1 H        0.925     0.033     2.547     2.496
    83   1 H        0.925     0.035     2.516     2.480
    84   1 H        0.925     0.035     2.517     2.481
    85   1 H        0.925     0.035     2.514     2.480
    86   1 H        0.925     0.033     2.547     2.496
    87   1 H        0.925     0.035     2.514     2.480
    88   1 H        0.925     0.035     2.515     2.480
    89   1 H        0.925     0.034     2.529     2.487
    90   1 H        0.926     0.027     2.623     2.533
    91   1 H        0.926     0.024     2.671     2.556
    92   1 H        0.926     0.036     2.503     2.474
    93   1 H        0.926     0.036     2.503     2.474
    94   1 H        0.925     0.033     2.547     2.496
    95   1 H        0.925     0.035     2.515     2.480
    96   1 H        0.925     0.035     2.518     2.481
    97   1 H        0.925     0.035     2.515     2.480
    98   1 H        0.925     0.035     2.514     2.479
    99   1 H        0.925     0.034     2.529     2.487
   100   1 H        0.925     0.035     2.516     2.481
   101   1 H        0.925     0.035     2.516     2.480
   102   1 H        0.925     0.033     2.547     2.496
   103   1 H        0.926     0.027     2.625     2.534
   104   1 H        0.926     0.024     2.673     2.557
   105   1 H        0.926     0.040     2.452     2.449
   106   1 H        0.926     0.036     2.509     2.477
   107   1 H        0.926     0.031     2.567     2.505
   108   1 H        0.926     0.030     2.582     2.513
   109   1 H        0.926     0.034     2.532     2.488
   110   1 H        0.926     0.030     2.583     2.513
   111   1 H        0.926     0.029     2.595     2.519
   112   1 H        0.926     0.027     2.630     2.536
   113   1 H        0.926     0.027     2.630     2.536
   114   1 H        0.926     0.029     2.606     2.524
   115   1 H        0.926     0.030     2.585     2.514
   116   1 H        0.926     0.026     2.639     2.540
   117   1 H        0.926     0.050     2.319     2.381
   118   1 H        0.926     0.029     2.594     2.518
   119   1 H        0.926     0.027     2.625     2.534
   120   1 H        0.926     0.030     2.587     2.515
   121   1 H        0.926     0.034     2.532     2.488
   122   1 H        0.926     0.028     2.615     2.529
   123   1 H        0.926     0.026     2.641     2.542
   124   1 H        0.926     0.025     2.656     2.549
   125   1 H        0.926     0.042     2.418     2.432
   126   1 H        0.926     0.040     2.452     2.449
   127   1 H        0.926     0.039     2.467     2.456
   128   1 H        0.926     0.042     2.419     2.432
   129   1 H        0.926     0.039     2.460     2.453
   130   1 H        0.926     0.053     2.286     2.364
   131   1 H        0.926     0.036     2.501     2.473
   132   1 H        0.926     0.036     2.503     2.474
   133   1 H        0.926     0.028     2.611     2.527
   134   1 H        0.926     0.029     2.600     2.521
   135   1 H        0.926     0.030     2.593     2.518
   136   1 H        0.926     0.030     2.588     2.516
   137   1 H        0.926     0.030     2.586     2.515
   138   1 H        0.926     0.030     2.592     2.518
   139   1 H        0.926     0.031     2.567     2.505
   140   1 H        0.926     0.036     2.509     2.477
   141   1 H        0.926     0.040     2.452     2.448

molecular dipole:
                 x           y           z       tot (Debye)
 q only:       -0.478       0.785       0.109
   full:       -0.237       1.227       0.127       3.193

 projected vibrational frequencies (cm⁻¹)
eigval :       -0.00    -0.00    -0.00     0.00     0.00     0.00
eigval :        4.32     5.27     6.01    12.78    16.21    16.81
eigval :       21.14    25.76    28.38    31.04    33.66    35.47
eigval :       37.68    45.13    50.72    52.51    54.39    55.90
eigval :       59.43    63.53    68.54    72.71    74.71    78.16
eigval :       82.52    87.14    92.00    95.55   101.12   108.42
eigval :      116.73   120.12   123.77   136.68   146.31   160.64
eigval :      164.41   171.52   175.34   183.51   194.86   198.66
eigval :      202.98   205.16   216.96   222.19   223.04   225.21
eigval :      230.02   234.93   243.91   245.23   254.04   258.99
eigval :      259.35   265.90   275.03   283.65   287.99   298.10
eigval :      317.48   318.40   321.72   326.53   331.59   340.62
eigval :      345.17   352.60   360.10   361.22   365.56   373.50
eigval :      373.85   375.94   376.90   379.52   381.90   383.88
eigval :      395.34   397.40   403.81   410.21   411.98   418.29
eigval :      429.36   435.60   438.45   442.57   443.50   444.77
eigval :      458.43   465.94   471.61   474.32   476.30   485.48
eigval :      493.77   502.82   508.70   511.07   519.68   523.37
eigval :      530.18   535.28   546.37   551.11   575.26   578.92
eigval :      583.97   584.71   585.36   586.38   589.11   589.66
eigval :      596.71   603.55   607.87   610.07   627.25   631.12
eigval :      632.17   639.71   643.55   648.71   652.48   666.05
eigval :      668.37   670.72   676.31   680.84   683.41   684.10
eigval :      687.76   693.27   696.28   705.30   707.71   710.21
eigval :      716.31   721.93   722.20   732.13   735.55   748.37
eigval :      761.76   762.62   765.68   766.68   778.99   782.62
eigval :      798.62   807.43   821.21   821.42   823.02   832.04
eigval :      835.07   862.69   868.55   870.79   872.57   873.25
eigval :      873.37   873.67   874.37   875.16   877.65   878.47
eigval :      880.61   883.50   892.91   899.24   904.01   904.61
eigval :      907.54   911.05   913.85   914.26   919.32   919.88
eigval :      921.94   923.80   924.38   925.12   927.30   928.17
eigval :      929.02   929.17   930.31   930.49   931.51   932.33
eigval :      932.74   935.33   939.31   941.00   948.76   960.19
eigval :      960.27   960.44   962.82   962.85   962.94   963.41
eigval :      974.86   984.12   996.24  1012.32  1017.52  1026.83
eigval :     1031.15  1035.79  1035.89  1035.95  1040.43  1041.88
eigval :     1069.20  1075.87  1079.91  1082.21  1084.67  1085.96
eigval :     1089.90  1102.68  1108.51  1115.41  1116.79  1121.92
eigval :     1122.86  1130.13  1134.02  1135.84  1140.11  1144.02
eigval :     1144.83  1152.76  1174.26  1177.57  1180.78  1182.42
eigval :     1183.08  1184.18  1186.27  1189.15  1189.78  1199.12
eigval :     1199.76  1202.24  1203.23  1210.95  1214.32  1228.19
eigval :     1228.30  1231.61  1232.52  1238.53  1240.62  1243.73
eigval :     1245.54  1249.17  1253.79  1257.92  1259.55  1261.12
eigval :     1267.54  1271.69  1274.59  1275.79  1282.63  1283.47
eigval :     1284.47  1285.88  1295.48  1305.16  1308.08  1308.89
eigval :     1312.15  1314.07  1315.02  1316.57  1318.09  1319.36
eigval :     1321.16  1330.81  1339.05  1346.69  1348.15  1354.38
eigval :     1359.91  1374.35  1382.80  1388.32  1396.22  1402.21
eigval :     1404.33  1404.75  1406.05  1406.11  1408.22  1411.50
eigval :     1417.98  1419.67  1429.43  1429.54  1430.46  1431.25
eigval :     1434.16  1434.85  1437.91  1443.34  1455.16  1473.25
eigval :     1480.25  1483.58  1483.97  1485.73  1486.10  1492.74
eigval :     1492.76  1495.49  1495.53  1501.80  1502.34  1502.35
eigval :     1506.10  1506.16  1513.05  1514.55  1515.10  1515.30
eigval :     1517.81  1520.61  1521.47  1535.48  1544.39  1555.16
eigval :     1558.90  1564.89  1565.35  1570.33  1571.90  1579.55
eigval :     1582.68  1582.89  1583.16  1584.56  1594.53  1594.69
eigval :     1594.96  1598.29  1600.83  1601.99  1604.87  1604.97
eigval :     1605.03  1618.36  3020.00  3020.16  3021.29  3021.33
eigval :     3026.58  3026.63  3028.59  3029.11  3030.65  3030.74
eigval :     3035.33  3035.60  3037.61  3037.88  3046.66  3046.79
eigval :     3050.10  3050.40  3067.90  3069.14  3069.60  3070.31
eigval :     3071.56  3073.44  3074.59  3074.95  3075.53  3076.23
eigval :     3077.48  3077.85  3077.90  3078.50  3079.53  3080.20
eigval :     3081.48  3081.69  3083.09  3083.37  3083.43  3085.36
eigval :     3085.55  3086.25  3088.26  3089.30  3090.26  3090.93
eigval :     3090.97  3091.56  3092.99  3093.35  3094.29  3096.45
eigval :     3097.19  3101.25  3104.89  3105.24  3109.49  3110.46
eigval :     3113.50  3114.32  3117.79

   temp. (K)  partition function   enthalpy   heat capacity  entropy
                                   cal/mol     cal/K/mol   cal/K/mol   J/K/mol
 298.15  VIB  0.111E+35            41069.587    252.753    260.166
         ROT  0.654E+09              888.752      2.981     43.320
         INT  0.724E+43            41958.340    255.734    303.486
         TR   0.319E+29             1481.254      4.968     46.644
         TOT                       43439.5935   260.7018   350.1300  1464.9439

       T/K    H(0)-H(T)+PV         H(T)/Eh          T*S/Eh         G(T)/Eh
   ------------------------------------------------------------------------
    298.15    0.692254E-01    0.119638E+01    0.166358E+00    0.103002E+01
   ------------------------------------------------------------------------

         :::::::::::::::::::::::::::::::::::::::::::::::::::::
         ::                  THERMODYNAMIC                  ::
         :::::::::::::::::::::::::::::::::::::::::::::::::::::
         :: total free energy        -203.856726578419 Eh   ::
         ::.................................................::
         :: total energy             -204.886745910335 Eh   ::
         :: zero point energy           1.127151990926 Eh   ::
         :: G(RRHO) w/o ZPVE           -0.097132659010 Eh   ::
         :: G(RRHO) contrib.            1.030019331916 Eh   ::
         :::::::::::::::::::::::::::::::::::::::::::::::::::::

           -------------------------------------------------
          | TOTAL ENERGY             -204.886745910335 Eh   |
          | TOTAL ENTHALPY           -203.690368520855 Eh   |
          | TOTAL FREE ENERGY        -203.856726578419 Eh   |
          | GRADIENT NORM               0.000064422082 Eh/α |
          | HOMO-LUMO GAP               2.361244077221 eV   |
           -------------------------------------------------

 * finished run on 2025/09/02 at 20:56:34.009
