   * xtb version 6.7.1 (edcfbbe) compiled by 'albert@albert-system' on 2024-07-22

   ID    Z sym.   atoms
    1    6 C      1-20, 22-44, 46-59, 61-80
    2    7 N      21, 45, 60
    3    1 H      81-141

          program call               : xtb data2507/gas/PTPC/PTPC_gas_T1_crest.xyz --gfn 2 --spinpol --tblite --uhf 2 --ohess vtight --parallel 40 --molden --ceasefiles --namespace data2507/gas/PTPC/PTPC_gas_T1_finalOpt
 * total energy  :  -204.8026474 Eh     change       -0.6003310E-07 Eh
 * total energy  :  -204.8026639 Eh     change       -0.1657331E-04 Eh
 * total energy  :  -204.8026777 Eh     change       -0.1378159E-04 Eh
 * total energy  :  -204.8026840 Eh     change       -0.6311780E-05 Eh
 * total energy  :  -204.8026918 Eh     change       -0.7756645E-05 Eh
 * total energy  :  -204.8026965 Eh     change       -0.4655686E-05 Eh
 * total energy  :  -204.8026985 Eh     change       -0.2063263E-05 Eh
 * total energy  :  -204.8027004 Eh     change       -0.1869392E-05 Eh
 * total energy  :  -204.8027027 Eh     change       -0.2336977E-05 Eh
 * total energy  :  -204.8027057 Eh     change       -0.2938004E-05 Eh
 * total energy  :  -204.8027671 Eh     change       -0.5731775E-06 Eh
 * total energy  :  -204.8027675 Eh     change       -0.4013831E-06 Eh
 * total energy  :  -204.8027678 Eh     change       -0.3404588E-06 Eh
 * total energy  :  -204.8027681 Eh     change       -0.2786895E-06 Eh
 * total energy  :  -204.8027686 Eh     change       -0.5115656E-06 Eh
 * total energy  :  -204.8027691 Eh     change       -0.5349458E-06 Eh
 * total energy  :  -204.8027697 Eh     change       -0.5533736E-06 Eh
 * total energy  :  -204.8027704 Eh     change       -0.7171496E-06 Eh
 * total energy  :  -204.8027704 Eh     change       -0.1072036E-07 Eh
   *** GEOMETRY OPTIMIZATION CONVERGED AFTER 68 ITERATIONS ***

 final structure:
================
141
 xtb: 6.7.1 (edcfbbe)
C          -13.56211674525944       -3.53623622310407        3.56016350064428
C          -13.70672355976301       -3.37032898483495        2.04076346840822
C          -15.11340327665863       -2.83828578310451        1.75300330746028
C          -13.56526020098447       -4.73548603249922        1.35251534507120
C          -12.61460009236878       -2.44063934620817        1.53246449783303
C          -11.27450690513400       -2.80476182871917        1.72147099212795
C          -10.21798186710264       -2.03165814767356        1.28552287172706
C          -10.50677255589849       -0.84786115186687        0.62360180240232
C          -11.84689583573928       -0.44316996593014        0.44738207887361
C          -12.89046470717449       -1.24058088291759        0.89690401598811
C          -11.80315488416768        0.83264155520387       -0.21331022488471
C          -12.78959652746048        1.70207155652109       -0.65827044952214
C          -12.43234931974495        2.87740739070991       -1.29946338736668
C          -13.45811721426231        3.88022652528725       -1.80692495896916
C          -13.21228242567104        5.23741594189934       -1.13250198922046
C          -13.31411289690829        4.02177239789806       -3.32887904781967
C          -14.89729410133202        3.45451370099457       -1.50343911701728
C          -11.07084308309284        3.14391560763092       -1.49782955777832
C          -10.06983805854135        2.29805500832671       -1.06605567988018
C          -10.43860033741956        1.13943098577864       -0.39939402491621
N           -9.66236078813656        0.11678886688598        0.10976560049647
C           -8.26507590843915        0.06360206184718        0.09784824001848
C           -7.60694003676435       -1.08484446493765       -0.33796379189602
C           -6.22942996090712       -1.13527058346500       -0.34450400472050
C           -5.46575866020769       -0.04085948914738        0.06637857476126
C           -4.00427012543470       -0.09844412295910        0.04120696237658
C           -3.32554547833317       -1.27275583532128        0.37826898132551
C           -1.95258390227237       -1.33875737029116        0.33090039610445
C           -1.19107004469455       -0.23215844886721       -0.06484331868641
C            0.26060999468290       -0.29344799640246       -0.14179557979555
C            1.02525538308844        0.76976916173298        0.34327660484909
C            2.40519134488522        0.74478262755813        0.37872836646057
C            3.11488476953792        1.81670043558649        1.08381979515303
C            2.78054963127273        3.15491557845288        0.87516708053468
C            3.44504046388501        4.16080439854578        1.54982595112263
C            4.44339981445235        3.85020126514615        2.45869117929049
C            4.76888194781086        2.52354615579693        2.69189651077150
C            4.11439491681470        1.51608886131626        2.01233063071667
C            3.10090807749572       -0.38452044880258       -0.15607023153969
C            4.52166600811649       -0.40419862173164       -0.29149604428512
C            5.26354049117765        0.78560011139882       -0.54176270260080
C            6.62081555138417        0.79787053732520       -0.56997205558427
C            7.36989580245627       -0.39018936874910       -0.33122836024484
C            8.76696858480987       -0.46753500137636       -0.23666126974257
N            9.43285756473757       -1.62783466229252       -0.34462546559247
C           10.72760433088503       -1.33343620885178       -0.27761135559767
C           11.82979634483271       -2.22910723516290       -0.40106824420136
C           11.62103341127206       -3.58853106531568       -0.64602496058580
C           12.69039149809029       -4.43998252444803       -0.79924918554929
C           13.98202565276499       -3.93041023212740       -0.71441695884848
C           14.19828611835204       -2.59166072133341       -0.46739560738944
C           13.13448422811711       -1.69562633934375       -0.29352063035451
C           13.32753390350329       -0.28626175346348        0.00484562554829
C           14.60300362321383        0.25046336380103        0.20256150660409
C           14.80152135281259        1.57435682236598        0.52784782771773
C           13.70851887012396        2.42357197107081        0.68958789970425
C           12.43957778930106        1.94342492014572        0.49709819750313
C           12.21130232990823        0.60040283026758        0.13432311416377
C           10.92557185429076        0.05805872406339       -0.07722819856349
N            9.66521986555072        0.60033306691567       -0.05980329142339
C            9.29635536656760        1.93594407196068        0.17491040512628
C            9.63664071682048        2.93022994064839       -0.73995946969510
C            9.24210189660630        4.23502298015406       -0.51169465253328
C            8.50847066369923        4.55496173703037        0.62015758019943
C            8.17196614293798        3.56597925933167        1.53015264094501
C            8.56291617224810        2.25835518365699        1.31414923711499
C            6.62689851336042       -1.60738588355907       -0.22232550342406
C            5.26999737922327       -1.61260358077994       -0.21224776542027
C            2.32044948141688       -1.46411835272599       -0.61469416129397
C            0.94564147262290       -1.43479784585381       -0.63912868892611
C            0.22392640207800       -2.55133620574005       -1.26928598297047
C            0.52390697294312       -3.86781462924173       -0.92739034790192
C           -0.14514256231814       -4.91958190502955       -1.52519758516129
C           -1.11569839956720       -4.67296225135141       -2.48162229104422
C           -1.40897438235801       -3.36757707820650       -2.84149350288418
C           -0.74579535516801       -2.31445580003220       -2.24197339587447
C           -1.87102142823189        0.95206233398045       -0.37226203031673
C           -3.24506992587588        1.01609298256896       -0.32344663615325
C           -6.13599742031504        1.10644305774481        0.49478256708139
C           -7.51348819917533        1.15872366798470        0.51937431910731
H          -12.60439729103157       -3.97688956896642        3.82249147588093
H          -14.34986277158087       -4.18157962897334        3.94351976728337
H          -13.63783145163705       -2.56871877746588        4.05222238392171
H          -15.85165422222732       -3.54407514012279        2.12875104366246
H          -15.27992626844405       -1.88424042282277        2.24779998992358
H          -15.27572332780711       -2.72011555363283        0.68411384012685
H          -14.35140372192814       -5.40837864308179        1.68889088641001
H          -13.64620996743559       -4.62182648840724        0.27337414317769
H          -12.60655099538950       -5.19540763566543        1.57512910322953
H          -11.04421611791831       -3.72698843571129        2.23283649434979
H           -9.19962725598075       -2.33963635399136        1.46905177111355
H          -13.90134970356744       -0.90180057334216        0.74294869778797
H          -13.82120451481219        1.43708612823571       -0.49724146009520
H          -13.95081822091555        5.96239604910101       -1.46854595515003
H          -12.22502326355602        5.62518258864456       -1.36731007987630
H          -13.29157486349024        5.13917084338149       -0.05173597429486
H          -13.46468566078711        3.05812280054087       -3.81123109982914
H          -12.32860030541131        4.38824636833944       -3.60224181966845
H          -14.05531578798812        4.71992472829629       -3.71249897552283
H          -15.58527018620834        4.21020325291320       -1.87755539741202
H          -15.05792662858154        3.35502206359468       -0.43238993773741
H          -15.13786684894262        2.51227984713333       -1.99031456818187
H          -10.77825837772545        4.04562101107508       -2.01393145532470
H           -9.03323242029635        2.53138548559333       -1.25727888381881
H           -8.18464551615478       -1.92576232074054       -0.69182088422416
H           -5.73263467615421       -2.02338937950426       -0.70614506427498
H           -3.88703943975004       -2.13454024688895        0.70853255115220
H           -1.45259661757762       -2.24854440529190        0.62728343780967
H            0.51180765616417        1.60916897625710        0.79138153886505
H            2.01407068196533        3.40395204906107        0.15499646576849
H            3.18506947403494        5.19341077922217        1.36560309758470
H            4.95757310746548        4.63943088750302        2.98759693254127
H            5.53331806514489        2.27202359656114        3.41299458159468
H            4.35970374072613        0.48320639028282        2.21138542725283
H            4.72438298968233        1.69147901055863       -0.77436045305922
H            7.13083336774841        1.71107083190247       -0.83041170806229
H           10.60253230161491       -3.93724949099621       -0.71565359560465
H           12.53325679271991       -5.49120758159879       -0.98905229269041
H           14.82814890010673       -4.59006695886220       -0.84304043300727
H           15.21811221427901       -2.24514689784848       -0.41416067264712
H           15.47092040160035       -0.38251643479229        0.11072404750657
H           15.80367423592064        1.94985476536965        0.67136937302395
H           13.86013537444150        3.45539184079542        0.97002735228563
H           11.59811168438689        2.60063054791188        0.64370932395170
H           10.20318802419309        2.66880930683997       -1.62196034111214
H            9.50284117071906        5.00357746629402       -1.22396231595152
H            8.19820583617154        5.57455775464896        0.79087721260277
H            7.60162596370315        3.81410525766446        2.41169018307958
H            8.29945292039876        1.47827855803466        2.01248931906539
H            7.19192341698352       -2.51875211174088       -0.10932225361232
H            4.74402576090120       -2.54497042007368       -0.07094196515468
H            2.82241854009577       -2.31165474677224       -1.05790858290202
H            1.27106461553347       -4.06182415474672       -0.17073377528701
H            0.08980707396665       -5.93577917011825       -1.24274134982010
H           -1.63916062415916       -5.49498202629542       -2.94739483535190
H           -2.15794299822530       -3.16993559024157       -3.59469908565638
H           -0.96925426080548       -1.29871848063908       -2.53403974705605
H           -1.30774154076523        1.81701941290975       -0.69228730842782
H           -3.74569797339639        1.93121144915450       -0.60545337949874
H           -5.56751320324514        1.95545387514731        0.84452046259264
H           -8.01882122757683        2.04009247617395        0.88540056408746

 projected vibrational frequencies (cm⁻¹)
eigval :       -0.00    -0.00    -0.00     0.00     0.00     0.00
eigval :        4.03     6.37     6.84    12.09    14.86    16.61
eigval :       21.00    25.44    28.62    31.05    33.53    36.72
eigval :       40.60    45.56    49.40    53.68    53.94    55.24
eigval :       61.49    64.92    67.40    72.34    75.68    79.40
eigval :       82.54    88.45    90.81    94.51   100.66   105.72
eigval :      119.83   122.98   131.83   137.80   151.88   160.36
eigval :      168.70   170.25   178.63   185.75   191.40   202.56
eigval :      203.69   207.89   215.99   219.36   221.37   224.20
eigval :      230.41   237.42   241.32   243.20   251.66   257.75
eigval :      258.66   261.22   269.27   278.17   283.60   311.91
eigval :      313.84   317.78   321.26   322.42   324.91   333.53
eigval :      341.33   347.41   355.19   359.68   368.87   373.94
eigval :      375.13   377.41   378.17   384.53   386.52   388.64
eigval :      391.32   394.50   400.25   405.99   410.15   410.95
eigval :      415.11   426.57   436.87   441.30   442.80   443.01
eigval :      450.31   456.55   464.24   465.96   468.90   470.21
eigval :      480.67   489.37   500.40   503.54   512.34   515.44
eigval :      519.72   527.44   539.84   552.02   573.37   576.48
eigval :      582.57   584.25   584.42   586.32   586.72   587.12
eigval :      592.17   596.43   605.10   609.09   613.30   619.58
eigval :      628.13   630.06   634.14   640.18   642.71   655.91
eigval :      662.68   665.07   669.76   672.28   673.68   678.38
eigval :      681.79   684.83   688.59   694.50   698.47   705.80
eigval :      708.07   713.85   721.07   727.77   730.30   740.16
eigval :      756.58   758.05   760.37   762.65   775.76   776.75
eigval :      792.74   806.21   809.89   820.02   821.12   823.21
eigval :      832.17   832.54   855.39   860.16   864.15   866.36
eigval :      867.67   869.20   871.00   873.26   873.87   874.25
eigval :      876.54   878.66   882.63   895.61   899.21   901.42
eigval :      902.08   910.73   911.81   913.52   913.89   915.28
eigval :      917.19   917.96   920.59   922.02   923.59   923.65
eigval :      925.17   926.88   928.09   928.28   929.38   929.90
eigval :      929.93   931.44   933.32   933.81   941.38   946.98
eigval :      958.91   960.24   960.31   962.86   962.96   962.99
eigval :      963.27   975.12   985.58   988.00  1004.35  1011.47
eigval :     1023.59  1031.11  1035.56  1035.63  1035.87  1041.72
eigval :     1052.07  1058.13  1076.76  1078.31  1081.46  1083.12
eigval :     1085.11  1089.11  1096.52  1104.93  1116.08  1116.59
eigval :     1121.71  1123.03  1130.03  1137.02  1137.70  1138.62
eigval :     1143.46  1149.26  1160.12  1169.91  1175.24  1180.18
eigval :     1181.61  1182.30  1183.24  1186.10  1188.86  1189.68
eigval :     1197.33  1199.06  1201.14  1206.31  1212.79  1220.72
eigval :     1227.83  1227.93  1231.31  1232.11  1232.69  1237.25
eigval :     1244.37  1245.75  1246.95  1251.81  1254.74  1259.75
eigval :     1265.62  1268.23  1269.01  1271.61  1275.39  1277.56
eigval :     1282.75  1283.14  1285.21  1285.37  1293.73  1306.74
eigval :     1307.58  1311.37  1313.88  1315.92  1318.39  1320.84
eigval :     1322.42  1333.13  1336.99  1337.94  1342.88  1347.79
eigval :     1355.63  1361.31  1377.42  1381.58  1387.81  1393.36
eigval :     1396.07  1400.97  1404.15  1404.54  1405.76  1405.82
eigval :     1411.37  1417.20  1418.68  1422.46  1428.40  1428.59
eigval :     1428.70  1431.63  1432.83  1434.98  1437.84  1441.47
eigval :     1448.33  1458.41  1471.26  1473.39  1478.58  1480.69
eigval :     1484.38  1484.58  1487.04  1492.19  1492.22  1494.68
eigval :     1494.93  1494.98  1501.40  1501.57  1503.59  1505.54
eigval :     1505.56  1514.85  1515.05  1518.54  1520.20  1521.01
eigval :     1526.52  1529.56  1543.11  1551.73  1553.03  1557.84
eigval :     1568.51  1568.65  1569.58  1570.90  1578.24  1580.27
eigval :     1583.70  1586.27  1588.34  1591.90  1597.19  1598.48
eigval :     1599.03  1612.71  3020.87  3020.99  3022.33  3022.36
eigval :     3026.81  3026.85  3029.20  3029.46  3030.77  3030.83
eigval :     3035.40  3035.64  3037.82  3038.05  3047.05  3047.10
eigval :     3050.34  3050.46  3067.28  3068.71  3068.77  3069.82
eigval :     3071.85  3072.66  3073.64  3076.26  3077.77  3077.98
eigval :     3078.65  3079.52  3079.81  3080.49  3080.61  3081.25
eigval :     3082.75  3083.57  3084.40  3084.78  3086.36  3086.57
eigval :     3087.04  3087.39  3088.12  3089.41  3090.80  3091.25
eigval :     3092.43  3093.13  3093.36  3093.85  3094.35  3096.17
eigval :     3097.62  3105.33  3106.81  3110.02  3110.57  3112.77
eigval :     3115.16  3118.69  3122.63

   temp. (K)  partition function   enthalpy   heat capacity  entropy
                                   cal/mol     cal/K/mol   cal/K/mol   J/K/mol
 298.15  VIB  0.101E+35            41297.063    254.727    261.067
         ROT  0.656E+09              888.752      2.981     43.325
         INT  0.663E+43            42185.815    257.708    304.392
         TR   0.319E+29             1481.254      4.968     46.644
         TOT                       43667.0690   262.6764   351.0358  1468.7339

       T/K    H(0)-H(T)+PV         H(T)/Eh          T*S/Eh         G(T)/Eh
   ------------------------------------------------------------------------
    298.15    0.695879E-01    0.119241E+01    0.166788E+00    0.102562E+01
   ------------------------------------------------------------------------

         :::::::::::::::::::::::::::::::::::::::::::::::::::::
         ::                  THERMODYNAMIC                  ::
         :::::::::::::::::::::::::::::::::::::::::::::::::::::
         :: total free energy        -203.777145600778 Eh   ::
         ::.................................................::
         :: total energy             -204.802770401689 Eh   ::
         :: zero point energy           1.122825346330 Eh   ::
         :: G(RRHO) w/o ZPVE           -0.097200545419 Eh   ::
         :: G(RRHO) contrib.            1.025624800911 Eh   ::
         :::::::::::::::::::::::::::::::::::::::::::::::::::::

           -------------------------------------------------
          | TOTAL ENERGY             -204.802770401689 Eh   |
          | TOTAL ENTHALPY           -203.610357151475 Eh   |
          | TOTAL FREE ENERGY        -203.777145600778 Eh   |
          | GRADIENT NORM               0.000066784982 Eh/α |
           -------------------------------------------------

 * finished run on 2025/09/02 at 21:23:37.957
