   * xtb version 6.7.1 (edcfbbe) compiled by 'albert@albert-system' on 2024-07-22

   ID    Z sym.   atoms
    1    6 C      1-20, 22-44, 46-59, 61-80
    2    7 N      21, 45, 60
    3    1 H      81-141

          program call               : xtb data2507/gas/PTPC/PTPC.xyz --gfn 2 --ohess vtight --parallel 40 --molden --ceasefiles --namespace data2507/gas/PTPC/PTPC_gas_S0_preOpt
          :  Hamiltonian                  GFN2-xTB          :
 * total energy  :  -204.8441512 Eh     change       -0.5414677E-08 Eh
 * total energy  :  -204.8644105 Eh     change       -0.2025931E-01 Eh
 * total energy  :  -204.8701852 Eh     change       -0.5774704E-02 Eh
 * total energy  :  -204.8723417 Eh     change       -0.2156476E-02 Eh
 * total energy  :  -204.8742458 Eh     change       -0.1904103E-02 Eh
 * total energy  :  -204.8757906 Eh     change       -0.1544879E-02 Eh
 * total energy  :  -204.8772779 Eh     change       -0.1487293E-02 Eh
 * total energy  :  -204.8786875 Eh     change       -0.1409614E-02 Eh
 * total energy  :  -204.8798557 Eh     change       -0.1168156E-02 Eh
 * total energy  :  -204.8807228 Eh     change       -0.8671013E-03 Eh
 * total energy  :  -204.8846755 Eh     change       -0.6399409E-06 Eh
 * total energy  :  -204.8846761 Eh     change       -0.6141578E-06 Eh
 * total energy  :  -204.8846767 Eh     change       -0.5987766E-06 Eh
 * total energy  :  -204.8846773 Eh     change       -0.6198488E-06 Eh
 * total energy  :  -204.8846780 Eh     change       -0.6535795E-06 Eh
 * total energy  :  -204.8846787 Eh     change       -0.7184403E-06 Eh
 * total energy  :  -204.8846795 Eh     change       -0.7894467E-06 Eh
 * total energy  :  -204.8846803 Eh     change       -0.8585841E-06 Eh
 * total energy  :  -204.8846803 Eh     change       -0.5888182E-08 Eh
   *** GEOMETRY OPTIMIZATION CONVERGED AFTER 185 ITERATIONS ***

 final structure:
================
141
 xtb: 6.7.1 (edcfbbe)
C          -12.47673367170844       -4.31435632829729        2.48318831895075
C          -12.61768567322663       -3.81922374114170        1.03680775845646
C          -14.02875916360319       -3.24949445494207        0.86692275435279
C          -12.46050136585939       -4.99794282072405        0.06577960598155
C          -11.53332563139154       -2.78960324205524        0.75320372569465
C          -10.19043648520742       -3.17074064703386        0.87888521527648
C           -9.14027742224577       -2.30595207851920        0.64867569793007
C           -9.43879183691898       -1.00199550162006        0.28485011625757
C          -10.78132100728054       -0.59933487256072        0.12557080715264
C          -11.81862019279763       -1.49146222579741        0.36433242500331
C          -10.74709132595348        0.77201477201332       -0.30156942897606
C          -11.74002532697304        1.69810409213765       -0.59387806585276
C          -11.39148541864921        2.98561179307208       -0.96618708237965
C          -12.42430510640168        4.05082031969700       -1.30535529153353
C          -12.19611480010150        4.53347579912100       -2.74479937954045
C          -13.86097666228744        3.53129691223713       -1.20204134309593
C          -12.27352254872720        5.22837275132114       -0.33187218889550
C          -10.03180450307588        3.32122104982294       -1.02156098001875
C           -9.02473004760902        2.42223356916947       -0.73641590517537
C           -9.38533241841438        1.12951372316988       -0.38906382357400
N           -8.60144003003360        0.05017829616666       -0.03037777706822
C           -7.20320519921901        0.02885266969248        0.00998144779927
C           -6.46106968529922        0.48711947657855       -1.07556838783723
C           -5.08217763582012        0.47123711104216       -1.02960594717251
C           -4.40789568383938       -0.00162680568436        0.09463205013310
C           -2.94006069023148       -0.00509284975026        0.14187955543636
C           -2.26495332759428        0.38036322765285        1.29782932861387
C           -0.88541019516705        0.39340552623591        1.33773171953388
C           -0.13776782439204        0.00262026821178        0.23029128056511
C            1.33281963161634        0.03306202731514        0.27414012246832
C            1.97106282091004        1.18661221624847        0.71207431811066
C            3.35436475434010        1.30981208575260        0.71937465805362
C            3.95881789668944        2.58355144899591        1.14571362601360
C            4.91054997194809        3.22356020203583        0.35625896465572
C            5.46647278597751        4.42149889588190        0.76289725512891
C            5.07978692546705        4.99874929221436        1.96108369481708
C            4.12548950582106        4.37589684474639        2.74724361958910
C            3.56535593140716        3.17880804871078        2.34082373229798
C            4.13180957448731        0.22998056244703        0.27964673302924
C            5.60240265856471        0.27690540374868        0.28812689274866
C            6.31940153830508       -0.10456604128141       -0.84272586746403
C            7.69898698039077       -0.06556460701609       -0.85694049226881
C            8.40067092553876        0.34323982426216        0.27531907655751
C            9.85104246140996        0.42338984793700        0.32204247801093
N           10.49328061732757        1.36302159610866        0.96924609921340
C           11.81474676072198        1.12050717707287        0.77039572737986
C           12.92067860180520        1.88621877423235        1.23336585233568
C           12.73115456875313        3.04971551060111        1.98635783959555
C           13.80952835517445        3.79338781789525        2.39532054321276
C           15.09520660900600        3.38155311989197        2.04981857849390
C           15.29303088308036        2.23622772515550        1.31469202832555
C           14.21723973311918        1.44335544302937        0.88615545171376
C           14.39370232587589        0.20987812492133        0.13924959538112
C           15.66853667001640       -0.29619517851325       -0.15144202574629
C           15.84789235258042       -1.48507485926378       -0.81780461832491
C           14.74586826005730       -2.23760821326127       -1.21074067194830
C           13.47955414403618       -1.77410624761681       -0.95279755538093
C           13.27428413570821       -0.54901417002238       -0.30190471703634
C           11.98479229381378       -0.01981975346012       -0.01326072079494
N           10.71065635621250       -0.45367653957388       -0.30499796566920
C           10.30951351204380       -1.55881861058369       -1.07997658208040
C            9.57683924007967       -2.58232421805251       -0.49054749335800
C            9.14734495183795       -3.64796064281670       -1.26066793927156
C            9.44665850901670       -3.69739494728082       -2.61192366861745
C           10.17766995634948       -2.67644970435688       -3.19826676619663
C           10.60743540704850       -1.60406374281457       -2.43898590124918
C            7.68374767708148        0.73170328423477        1.40828015129250
C            6.30657451841316        0.69533854892184        1.41588358927166
C            3.49369295221126       -0.92634392759611       -0.15183553233629
C            2.11037239491914       -1.04985711868370       -0.15762140630378
C            1.50227142580012       -2.32362651047156       -0.57778299251410
C            0.53431437514295       -2.94516101031888        0.20698040357658
C           -0.02590735394915       -4.14424175694299       -0.19027491955929
C            0.37158825345734       -4.74140625196568       -1.37515984189818
C            1.34089970752593       -4.13660652285670       -2.15703513628707
C            1.90560741416866       -2.93860221808130       -1.75963587041132
C           -0.81120774659193       -0.38378511570323       -0.92596526663377
C           -2.18980380150488       -0.38236176948226       -0.97031812444433
C           -5.15906895439503       -0.46246742822044        1.17411934753620
C           -6.53837250973040       -0.44845337125909        1.13661863105610
H          -12.56637765434370       -3.47977676492886        3.17561884911820
H          -11.51453608021244       -4.79107502893663        2.64797115724942
H          -13.25765820435644       -5.03728775534919        2.71045327505106
H          -14.76139625986513       -4.02283515650099        1.08980427970776
H          -14.19943237458762       -2.41883345884141        1.54787494773229
H          -14.19518583199260       -2.91456456551322       -0.15428460750979
H          -12.53947394441367       -4.65003676675825       -0.96218827642602
H          -11.49729275494533       -5.48584159722668        0.18614199725150
H          -13.24038441624945       -5.73613722067096        0.24183277828443
H           -9.95274769139586       -4.18447061853860        1.16378341202460
H           -8.11895713329786       -2.64492720662714        0.73863342273993
H          -12.83188607707212       -1.14950291330456        0.23465799127632
H          -12.76958093209344        1.39032010881054       -0.51795091121968
H          -12.28262074590691        3.69937509395298       -3.43821916402612
H          -11.21033394375915        4.97418465927867       -2.86434123459184
H          -12.93841419326357        5.28307209926476       -3.01167041531550
H          -14.08707160264752        3.20509091784608       -0.18950458885447
H          -14.02845632076471        2.70538547061223       -1.88952376212115
H          -14.55461018884557        4.32926023653960       -1.46013314298065
H          -13.01926147431678        5.99111979496776       -0.54686562947045
H          -11.29014023643265        5.68373355601683       -0.40844391520616
H          -12.41215834064060        4.88832746472993        0.69239992296274
H           -9.74557528026702        4.32577298545567       -1.29401548490583
H           -7.98941696884284        2.72700099744629       -0.77259312333570
H           -6.97338924406885        0.84324089525690       -1.95690477033565
H           -4.51701598191905        0.84365013854445       -1.87139111307445
H           -2.82879444676755        0.69454134297147        2.16435458118637
H           -0.37628503006809        0.69359937340434        2.24278967726023
H            1.37007347630522        2.03265929184894        1.01494534729179
H            5.20698385399619        2.78232894533965       -0.58401397934121
H            6.20582641181113        4.90648733196353        0.14278247686619
H            5.51932774637100        5.93220806471296        2.27999682559332
H            3.81786590984085        4.82313811022940        3.68150540854860
H            2.83060513001727        2.68667921731493        2.96255318960524
H            5.78581255884632       -0.40848181067547       -1.73216027784899
H            8.22489932473667       -0.32902947796551       -1.76219577196672
H           11.71849061514336        3.33747660787860        2.22261414404496
H           13.66848733728428        4.69336399929381        2.97558149573735
H           15.94717506928065        3.96803708572748        2.36268594185260
H           16.30604665738323        1.95947116353871        1.06896287253990
H           16.54509557202197        0.24871225246904        0.15973325738481
H           16.84620410544646       -1.84218939340682       -1.02392293236830
H           14.88423775399346       -3.18419732044359       -1.71208191515556
H           12.62927104722627       -2.37141508459082       -1.24148240405043
H            9.34674533596604       -2.53243919982239        0.56332666874004
H            8.57842962425318       -4.44269577449415       -0.80222968300990
H            9.11017450933596       -4.53100799024964       -3.20952632918636
H           10.41039901447047       -2.71197309416428       -4.25200252273889
H           11.17485526811117       -0.80048542006707       -2.88575397644388
H            8.23194021451348        1.06087599444248        2.27699937599839
H            5.76580174949927        0.98427559525016        2.30471584943998
H            4.09538046191333       -1.77191587443975       -0.45512653508753
H            0.22928153931871       -2.48849384282315        1.13705605628476
H           -0.77638088213142       -4.61580865868709        0.42727219799616
H           -0.07101821673698       -5.67601914379097       -1.68678811319797
H            1.65658936248773       -4.59909568673048       -3.08119834309718
H            2.65227721799534       -2.46130156012711       -2.37867680049163
H           -0.24567211129444       -0.67600401394056       -1.79859774721188
H           -2.69515797843809       -0.69651959863030       -1.87194369867804
H           -4.65441785458266       -0.84632206358726        2.04865962897628
H           -7.11071055005890       -0.79274186688279        1.98514000078106

          :  Hamiltonian                  GFN2-xTB          :
         :: gradient norm              0.000058045101 Eh/a0 ::
         :: HOMO-LUMO gap              2.371692905874 eV    ::
         :: SCC energy              -208.723449798317 Eh    ::
         :: -> dispersion             -0.197501926689 Eh    ::
         :: repulsion energy           3.838769454976 Eh    ::

    * Orbital Energies and Occupations

         #    Occupation            Energy/Eh            Energy/eV
      -------------------------------------------------------------
         1        2.0000           -0.6842619             -18.6197
       ...           ...                  ...                  ...
       180        2.0000           -0.4016139             -10.9285
       181        2.0000           -0.4013674             -10.9218
       182        2.0000           -0.3978562             -10.8262
       183        2.0000           -0.3960995             -10.7784
       184        2.0000           -0.3922113             -10.6726
       185        2.0000           -0.3909945             -10.6395
       186        2.0000           -0.3862648             -10.5108
       187        2.0000           -0.3779318             -10.2840
       188        2.0000           -0.3736254             -10.1669
       189        2.0000           -0.3731459             -10.1538
       190        2.0000           -0.3674642              -9.9992
       191        2.0000           -0.3595056              -9.7826
       192        2.0000           -0.3508194              -9.5463 (HOMO)
       193                         -0.2636613              -7.1746 (LUMO)
       194                         -0.2540661              -6.9135
       195                         -0.2473430              -6.7305
       196                         -0.2470460              -6.7225
       197                         -0.2419793              -6.5846
       198                         -0.2403197              -6.5394
       199                         -0.2385216              -6.4905
       200                         -0.2346411              -6.3849
       201                         -0.2276077              -6.1935
       202                         -0.2256839              -6.1412
       203                         -0.2255413              -6.1373
       ...                                ...                  ...
       381                          0.7490414              20.3825
      -------------------------------------------------------------
                  HL-Gap            0.0871581 Eh            2.3717 eV

     #   Z          covCN         q      C6AA      α(0)
     1   6 C        3.762    -0.105    22.547     6.769
     2   6 C        3.903     0.026    20.088     6.371
     3   6 C        3.761    -0.106    22.580     6.774
     4   6 C        3.761    -0.105    22.547     6.769
     5   6 C        2.973    -0.003    28.092     8.694
     6   6 C        2.931    -0.040    28.988     8.830
     7   6 C        2.908    -0.054    29.336     8.881
     8   6 C        3.081     0.043    26.960     8.512
     9   6 C        3.068    -0.021    28.449     8.746
    10   6 C        2.918    -0.044    29.093     8.845
    11   6 C        3.068    -0.021    28.449     8.746
    12   6 C        2.918    -0.044    29.093     8.845
    13   6 C        2.973    -0.003    28.090     8.694
    14   6 C        3.903     0.026    20.088     6.371
    15   6 C        3.762    -0.105    22.547     6.769
    16   6 C        3.761    -0.106    22.580     6.774
    17   6 C        3.761    -0.105    22.548     6.769
    18   6 C        2.931    -0.040    28.987     8.830
    19   6 C        2.908    -0.054    29.335     8.881
    20   6 C        3.081     0.043    26.960     8.512
    21   7 N        2.802    -0.045    22.116     6.985
    22   6 C        2.913     0.063    26.587     8.455
    23   6 C        2.921    -0.044    29.095     8.845
    24   6 C        2.925    -0.034    28.843     8.807
    25   6 C        2.976     0.006    27.882     8.661
    26   6 C        2.977     0.008    27.834     8.654
    27   6 C        2.924    -0.035    28.876     8.812
    28   6 C        2.923    -0.035    28.872     8.812
    29   6 C        2.978     0.012    27.752     8.641
    30   6 C        2.978     0.004    27.939     8.670
    31   6 C        2.931    -0.041    29.009     8.833
    32   6 C        2.978     0.004    27.928     8.669
    33   6 C        2.978     0.012    27.736     8.639
    34   6 C        2.925    -0.031    28.763     8.795
    35   6 C        2.919    -0.028    28.701     8.785
    36   6 C        2.920    -0.030    28.754     8.793
    37   6 C        2.919    -0.030    28.744     8.792
    38   6 C        2.925    -0.034    28.859     8.810
    39   6 C        2.978     0.003    27.952     8.672
    40   6 C        2.978     0.014    27.690     8.632
    41   6 C        2.925    -0.035    28.869     8.811
    42   6 C        2.920    -0.035    28.880     8.813
    43   6 C        2.974     0.000    28.016     8.682
    44   6 C        3.192     0.127    24.751     8.114
    45   7 N        1.895    -0.291    28.397     7.900
    46   6 C        3.208     0.057    26.130     8.323
    47   6 C        2.986     0.003    27.956     8.673
    48   6 C        2.922    -0.031    28.778     8.797
    49   6 C        2.917    -0.030    28.758     8.794
    50   6 C        2.917    -0.033    28.824     8.804
    51   6 C        2.922    -0.035    28.870     8.811
    52   6 C        2.979    -0.002    28.061     8.689
    53   6 C        2.980     0.002    27.981     8.677
    54   6 C        2.922    -0.034    28.842     8.807
    55   6 C        2.916    -0.034    28.836     8.806
    56   6 C        2.917    -0.032    28.798     8.800
    57   6 C        2.919    -0.040    29.003     8.831
    58   6 C        2.978    -0.002    28.067     8.690
    59   6 C        3.073     0.019    27.499     8.598
    60   7 N        2.841    -0.046    22.127     6.986
    61   6 C        2.913     0.069    26.446     8.433
    62   6 C        2.922    -0.037    28.932     8.821
    63   6 C        2.920    -0.026    28.644     8.777
    64   6 C        2.920    -0.030    28.752     8.793
    65   6 C        2.920    -0.027    28.681     8.782
    66   6 C        2.921    -0.037    28.913     8.818
    67   6 C        2.927    -0.028    28.701     8.786
    68   6 C        2.922    -0.030    28.746     8.792
    69   6 C        2.931    -0.041    29.012     8.833
    70   6 C        2.978     0.003    27.956     8.673
    71   6 C        2.978     0.013    27.714     8.635
    72   6 C        2.925    -0.031    28.774     8.797
    73   6 C        2.919    -0.029    28.729     8.790
    74   6 C        2.920    -0.031    28.780     8.797
    75   6 C        2.919    -0.030    28.753     8.793
    76   6 C        2.925    -0.035    28.859     8.810
    77   6 C        2.923    -0.032    28.792     8.799
    78   6 C        2.924    -0.034    28.859     8.810
    79   6 C        2.925    -0.034    28.844     8.807
    80   6 C        2.920    -0.044    29.098     8.846
    81   1 H        0.925     0.033     2.547     2.496
    82   1 H        0.925     0.035     2.515     2.480
    83   1 H        0.925     0.035     2.518     2.482
    84   1 H        0.925     0.034     2.529     2.487
    85   1 H        0.925     0.035     2.514     2.479
    86   1 H        0.925     0.035     2.515     2.480
    87   1 H        0.925     0.033     2.547     2.496
    88   1 H        0.925     0.035     2.516     2.480
    89   1 H        0.925     0.035     2.517     2.481
    90   1 H        0.926     0.027     2.625     2.534
    91   1 H        0.926     0.024     2.674     2.557
    92   1 H        0.926     0.036     2.503     2.474
    93   1 H        0.926     0.036     2.503     2.474
    94   1 H        0.925     0.033     2.547     2.496
    95   1 H        0.925     0.035     2.514     2.480
    96   1 H        0.925     0.035     2.518     2.481
    97   1 H        0.925     0.035     2.515     2.480
    98   1 H        0.925     0.035     2.515     2.480
    99   1 H        0.925     0.034     2.529     2.487
   100   1 H        0.925     0.035     2.516     2.481
   101   1 H        0.925     0.035     2.515     2.480
   102   1 H        0.925     0.033     2.546     2.495
   103   1 H        0.926     0.027     2.623     2.533
   104   1 H        0.926     0.024     2.672     2.556
   105   1 H        0.926     0.040     2.452     2.449
   106   1 H        0.926     0.036     2.508     2.476
   107   1 H        0.926     0.032     2.565     2.504
   108   1 H        0.926     0.030     2.586     2.515
   109   1 H        0.926     0.035     2.523     2.484
   110   1 H        0.926     0.028     2.620     2.531
   111   1 H        0.926     0.032     2.564     2.504
   112   1 H        0.926     0.031     2.576     2.510
   113   1 H        0.926     0.030     2.592     2.518
   114   1 H        0.926     0.028     2.609     2.526
   115   1 H        0.926     0.031     2.575     2.509
   116   1 H        0.926     0.026     2.640     2.541
   117   1 H        0.926     0.050     2.317     2.380
   118   1 H        0.926     0.029     2.594     2.518
   119   1 H        0.926     0.027     2.624     2.533
   120   1 H        0.926     0.030     2.586     2.515
   121   1 H        0.926     0.034     2.532     2.488
   122   1 H        0.926     0.028     2.615     2.529
   123   1 H        0.926     0.026     2.641     2.541
   124   1 H        0.926     0.025     2.657     2.549
   125   1 H        0.926     0.040     2.452     2.449
   126   1 H        0.926     0.040     2.450     2.448
   127   1 H        0.926     0.039     2.463     2.454
   128   1 H        0.926     0.040     2.450     2.448
   129   1 H        0.926     0.043     2.414     2.429
   130   1 H        0.926     0.051     2.307     2.375
   131   1 H        0.926     0.035     2.512     2.478
   132   1 H        0.926     0.032     2.552     2.498
   133   1 H        0.926     0.029     2.605     2.524
   134   1 H        0.926     0.029     2.599     2.521
   135   1 H        0.926     0.029     2.598     2.521
   136   1 H        0.926     0.029     2.605     2.524
   137   1 H        0.926     0.028     2.612     2.527
   138   1 H        0.926     0.029     2.598     2.521
   139   1 H        0.926     0.031     2.570     2.507
   140   1 H        0.926     0.036     2.509     2.477
   141   1 H        0.926     0.040     2.452     2.449

molecular dipole:
                 x           y           z       tot (Debye)
 q only:       -0.390      -0.676      -0.425
   full:       -0.119      -1.033      -0.692       3.176

 projected vibrational frequencies (cm⁻¹)
eigval :       -0.00    -0.00    -0.00    -0.00     0.00     0.00
eigval :        3.95     5.32     5.75     9.40    10.65    16.82
eigval :       21.44    23.91    30.90    31.23    33.60    34.20
eigval :       34.68    44.85    45.48    51.35    52.26    55.47
eigval :       58.30    62.87    63.60    67.23    74.27    78.92
eigval :       86.09    87.82    90.14    94.77   100.62   103.29
eigval :      114.78   122.69   128.30   138.30   147.73   160.61
eigval :      163.31   169.57   175.32   182.95   195.27   198.47
eigval :      202.96   205.30   216.40   221.67   222.73   223.70
eigval :      227.47   232.86   242.96   248.87   253.50   257.45
eigval :      258.99   265.83   277.39   283.91   292.40   306.29
eigval :      317.49   319.37   321.81   325.88   331.28   339.96
eigval :      341.52   350.26   359.94   360.20   367.96   373.25
eigval :      375.27   376.08   376.61   380.99   382.22   383.81
eigval :      393.73   395.66   398.46   409.38   411.79   415.77
eigval :      434.10   436.22   438.69   442.26   443.43   443.89
eigval :      459.27   465.94   469.39   474.56   475.96   482.25
eigval :      489.84   503.68   511.40   513.77   520.15   524.09
eigval :      535.24   536.88   543.90   549.29   575.08   578.91
eigval :      583.95   584.99   585.36   586.96   587.77   589.50
eigval :      597.49   601.70   609.13   610.80   627.30   631.20
eigval :      631.96   639.70   643.09   647.60   652.44   667.02
eigval :      668.26   674.20   676.02   677.85   682.92   684.66
eigval :      687.74   693.47   701.77   702.58   706.88   707.92
eigval :      717.01   720.43   723.58   732.14   735.47   747.44
eigval :      759.96   763.69   766.47   767.03   779.62   782.64
eigval :      798.38   807.29   820.58   821.72   823.03   832.05
eigval :      835.01   862.71   868.59   872.43   872.57   873.31
eigval :      873.67   874.37   874.93   876.14   876.38   877.67
eigval :      880.44   883.11   893.67   901.27   903.33   904.55
eigval :      907.66   911.05   913.86   914.37   918.84   919.69
eigval :      921.96   923.88   924.29   927.40   928.11   928.39
eigval :      928.60   928.91   929.77   930.04   931.97   932.02
eigval :      932.60   935.22   939.27   940.99   948.87   960.20
eigval :      960.27   960.46   962.82   962.86   962.94   963.41
eigval :      975.05   983.94   996.09  1012.35  1017.53  1026.91
eigval :     1031.13  1035.77  1035.89  1035.97  1040.60  1041.88
eigval :     1068.96  1075.73  1079.26  1082.00  1084.65  1085.97
eigval :     1089.76  1103.83  1108.48  1115.47  1116.78  1121.82
eigval :     1121.89  1130.12  1134.29  1135.77  1140.86  1143.93
eigval :     1144.88  1152.69  1174.13  1177.58  1180.48  1182.26
eigval :     1182.47  1183.08  1186.18  1189.12  1189.35  1198.19
eigval :     1199.56  1201.28  1203.25  1210.67  1214.40  1228.21
eigval :     1228.33  1231.61  1232.53  1238.60  1241.43  1243.47
eigval :     1245.59  1248.97  1253.77  1258.10  1260.28  1262.09
eigval :     1267.50  1272.24  1274.52  1275.82  1282.33  1282.73
eigval :     1284.44  1285.88  1295.53  1304.39  1307.86  1308.89
eigval :     1312.23  1313.67  1315.20  1316.73  1317.93  1319.76
eigval :     1320.86  1330.78  1339.08  1346.69  1348.18  1353.18
eigval :     1359.98  1374.31  1382.14  1386.94  1395.29  1402.37
eigval :     1404.74  1405.87  1406.06  1406.12  1408.09  1411.60
eigval :     1418.00  1419.75  1429.43  1429.54  1430.34  1431.19
eigval :     1433.84  1433.96  1437.83  1443.42  1455.29  1473.58
eigval :     1479.92  1483.64  1484.05  1485.70  1486.15  1492.74
eigval :     1492.76  1495.49  1495.54  1501.90  1502.35  1502.78
eigval :     1506.10  1506.17  1513.80  1514.60  1515.09  1515.29
eigval :     1517.79  1520.62  1521.48  1535.72  1544.21  1555.18
eigval :     1559.00  1565.04  1565.41  1570.81  1571.94  1578.94
eigval :     1582.48  1582.65  1582.75  1584.30  1594.22  1594.60
eigval :     1595.00  1598.40  1600.72  1601.60  1604.95  1605.08
eigval :     1605.13  1618.44  3020.02  3020.18  3021.27  3021.32
eigval :     3026.58  3026.61  3028.58  3029.11  3030.65  3030.72
eigval :     3035.32  3035.57  3037.61  3037.88  3046.78  3046.87
eigval :     3050.28  3050.51  3068.06  3068.41  3069.59  3071.56
eigval :     3072.04  3073.61  3075.06  3075.07  3075.37  3076.13
eigval :     3076.38  3077.36  3077.86  3079.44  3079.52  3080.24
eigval :     3081.61  3081.72  3083.11  3083.58  3084.19  3085.66
eigval :     3086.37  3086.74  3087.90  3089.29  3090.18  3090.92
eigval :     3091.57  3093.10  3093.29  3094.11  3094.26  3094.79
eigval :     3095.59  3096.51  3101.66  3104.85  3107.03  3110.46
eigval :     3113.17  3114.35  3117.81

   temp. (K)  partition function   enthalpy   heat capacity  entropy
                                   cal/mol     cal/K/mol   cal/K/mol   J/K/mol
 298.15  VIB  0.376E+35            41114.651    252.388    261.218
         ROT  0.659E+09              888.752      2.981     43.335
         INT  0.248E+44            42003.403    255.369    304.553
         TR   0.319E+29             1481.254      4.968     46.644
         TOT                       43484.6569   260.3371   351.1968  1469.4076

       T/K    H(0)-H(T)+PV         H(T)/Eh          T*S/Eh         G(T)/Eh
   ------------------------------------------------------------------------
    298.15    0.692972E-01    0.119635E+01    0.166865E+00    0.102948E+01
   ------------------------------------------------------------------------

         :::::::::::::::::::::::::::::::::::::::::::::::::::::
         ::                  THERMODYNAMIC                  ::
         :::::::::::::::::::::::::::::::::::::::::::::::::::::
         :: total free energy        -203.855200094215 Eh   ::
         ::.................................................::
         :: total energy             -204.884680343350 Eh   ::
         :: zero point energy           1.127047988227 Eh   ::
         :: G(RRHO) w/o ZPVE           -0.097567739093 Eh   ::
         :: G(RRHO) contrib.            1.029480249135 Eh   ::
         :::::::::::::::::::::::::::::::::::::::::::::::::::::

           -------------------------------------------------
          | TOTAL ENERGY             -204.884680343350 Eh   |
          | TOTAL ENTHALPY           -203.688335143318 Eh   |
          | TOTAL FREE ENERGY        -203.855200094215 Eh   |
          | GRADIENT NORM               0.000058046576 Eh/α |
          | HOMO-LUMO GAP               2.371692793718 eV   |
           -------------------------------------------------

 * finished run on 2025/09/02 at 20:30:13.392
