   * xtb version 6.7.1 (edcfbbe) compiled by 'albert@albert-system' on 2024-07-22

   ID    Z sym.   atoms
    1    6 C      1-6, 8-13, 15-22, 24-29, 31-37
    2   16 S      7, 30
    3    7 N      14, 23, 38
    4    1 H      39-59

          program call               : xtb data2507/gas/Fens/Fens_gas_T1_crest.xyz --gfn 2 --spinpol --tblite --uhf 2 --ohess vtight --parallel 40 --molden --ceasefiles --namespace data2507/gas/Fens/Fens_gas_T1_finalOpt
 * total energy  :   -96.6079209 Eh     change       -0.1476015E-07 Eh
 * total energy  :   -96.6079580 Eh     change       -0.3704094E-04 Eh
 * total energy  :   -96.6079727 Eh     change       -0.1471745E-04 Eh
 * total energy  :   -96.6079751 Eh     change       -0.2365704E-05 Eh
 * total energy  :   -96.6079768 Eh     change       -0.1724401E-05 Eh
 * total energy  :   -96.6079780 Eh     change       -0.1248899E-05 Eh
 * total energy  :   -96.6079795 Eh     change       -0.1450279E-05 Eh
 * total energy  :   -96.6079805 Eh     change       -0.9752319E-06 Eh
 * total energy  :   -96.6079811 Eh     change       -0.6153740E-06 Eh
 * total energy  :   -96.6079816 Eh     change       -0.4960928E-06 Eh
 * total energy  :   -96.6079821 Eh     change       -0.5407059E-06 Eh
 * total energy  :   -96.6079825 Eh     change       -0.4315887E-06 Eh
 * total energy  :   -96.6079829 Eh     change       -0.4123189E-06 Eh
 * total energy  :   -96.6079832 Eh     change       -0.2374411E-06 Eh
 * total energy  :   -96.6079833 Eh     change       -0.1093668E-06 Eh
 * total energy  :   -96.6079833 Eh     change       -0.3071992E-07 Eh
   *** GEOMETRY OPTIMIZATION CONVERGED AFTER 16 ITERATIONS ***

 final structure:
================
59
 xtb: 6.7.1 (edcfbbe)
C            0.62279554749471        3.63054741194175       -1.92703636377203
C           -0.16906181379947        2.58055314665109       -2.35965495175419
C            0.21481515572126        1.27488919035363       -2.12846029006875
C            1.40002546041033        0.96488016602971       -1.45080574362907
C            2.20245275126973        2.03888533672225       -1.05274808763740
C            1.81133379631276        3.35008547456498       -1.28128360405944
S            3.76933460157889        1.82155314270577       -0.27175845784768
C            3.78085332016572        0.08519367901489        0.04114604772405
C            4.83482579079388       -0.38321334039750        0.81267402303129
C            4.93332965615955       -1.72184583434123        1.13766413425857
C            3.95174350255480       -2.59221312408043        0.69412843285289
C            2.89987101790888       -2.12893074005124       -0.06957554092921
C            2.78864961595511       -0.78150970395343       -0.42939574520901
N            1.72365297561201       -0.36718946282680       -1.21879519796557
C            0.65441302288980       -1.28908419513256       -1.39648033176670
C            0.61952423150784       -2.28088485787751       -2.34907205988326
C           -0.49007041729917       -3.13026335780043       -2.40165226793799
C           -1.55509668052320       -2.97044148636258       -1.48439485492444
C           -2.68644753682918       -3.78832892362678       -1.39239894457807
C           -3.66102186485274       -3.55833304611682       -0.42111476755382
C           -3.56376645968129       -2.49585910289136        0.45318895155459
C           -2.46569205327391       -1.63520382062926        0.36430819352887
N           -2.28312572816356       -0.43685183532371        1.11790008995034
C           -2.99857243344022        0.69270314040114        0.73047030119330
C           -4.31267151282292        0.54842760427512        0.27149501708393
C           -5.07461382932101        1.63602926912502       -0.10045356861771
C           -4.54774959228878        2.91731181885328       -0.03412537351691
C           -3.24634588513680        3.08416209344105        0.39023178179835
C           -2.47431348937765        1.99072454747206        0.76707319664245
S           -0.80532449474804        2.35332810124264        1.19693590820827
C           -0.24150625981239        0.79988806989322        1.77421985399593
C            1.05084345395420        0.75434153083241        2.28301415821201
C            1.58004351418815       -0.42761294339954        2.75647374535294
C            0.78819439710727       -1.57136445219044        2.76306227834263
C           -0.48919408256797       -1.53360810129697        2.25814570097939
C           -1.02506659980731       -0.36041482913207        1.69588281625170
C           -1.42784864163347       -1.89661311860388       -0.55798086372742
N           -0.34932419322745       -1.11915206283615       -0.51694421739193
H            0.32589196460359        4.65344251637726       -2.09587178347051
H           -1.09515300610691        2.77354765729867       -2.87963593658636
H           -0.41106239805133        0.47241878901917       -2.48384322217100
H            2.46012066479414        4.14534059794925       -0.94667410171866
H            5.57567530588598        0.32482187405169        1.15264525021498
H            5.75997541226139       -2.07640433487563        1.73295746557902
H            4.00044030133580       -3.64100582458253        0.94413207980878
H            2.13854058064198       -2.81884198758955       -0.39578897962643
H            1.44119560865833       -2.39355284250804       -3.03975068835865
H           -0.54465034911056       -3.90550056523615       -3.14923685984082
H           -2.77819415865862       -4.63330572374682       -2.05823976151475
H           -4.50275565838333       -4.23105605240738       -0.34894931321373
H           -4.30276141496936       -2.34691711661681        1.22653650432400
H           -4.73016979663767       -0.44118486450387        0.19456466367807
H           -6.08495303565441        1.48142779321598       -0.44687677916609
H           -5.13911566986461        3.77234139065242       -0.32144425749054
H           -2.79645414053261        4.06475689850637        0.42784747229589
H            1.63386826149130        1.66346947076607        2.28729525142393
H            2.59298093470072       -0.45951060424808        3.12569061245661
H            1.17898591491824       -2.49496893213214        3.16141244677386
H           -1.09928321210040       -2.42387589423806        2.25230202791165

 projected vibrational frequencies (cm⁻¹)
eigval :       -0.00    -0.00     0.00     0.00     0.00     0.00
eigval :       10.74    16.55    22.65    30.94    37.04    51.44
eigval :       62.45    65.54    94.49   101.13   108.66   128.11
eigval :      144.69   165.39   181.15   183.50   208.70   224.36
eigval :      227.94   234.10   243.91   271.84   281.53   323.79
eigval :      333.64   349.12   354.09   372.42   380.17   383.64
eigval :      391.26   412.07   415.23   418.41   424.25   426.57
eigval :      434.62   461.90   475.50   480.75   484.30   488.70
eigval :      493.85   507.87   530.29   537.42   551.73   558.26
eigval :      565.75   593.90   599.21   610.05   641.81   645.33
eigval :      650.47   652.32   654.52   661.98   681.44   699.99
eigval :      701.47   706.78   713.31   720.44   757.50   769.69
eigval :      771.23   772.30   774.33   802.36   818.86   831.89
eigval :      832.87   855.31   861.97   863.40   864.84   869.33
eigval :      890.33   899.24   900.91   902.60   903.04   905.22
eigval :      906.78   915.70   916.41   917.39   918.16   975.73
eigval :     1023.18  1045.23  1048.73  1058.08  1076.26  1091.00
eigval :     1093.65  1101.54  1102.92  1103.43  1105.88  1150.87
eigval :     1152.41  1159.11  1159.42  1171.83  1174.43  1178.50
eigval :     1180.34  1182.84  1199.70  1206.52  1211.84  1232.20
eigval :     1237.18  1241.10  1241.95  1258.71  1270.58  1286.70
eigval :     1292.03  1296.78  1305.72  1325.47  1327.73  1332.85
eigval :     1338.37  1358.61  1362.32  1379.48  1397.57  1404.29
eigval :     1411.67  1416.90  1422.52  1432.12  1446.95  1451.18
eigval :     1463.06  1483.58  1500.15  1526.99  1535.63  1550.58
eigval :     1551.52  1564.15  1565.53  1569.20  1577.37  1585.89
eigval :     3071.23  3077.80  3080.72  3086.27  3087.33  3087.59
eigval :     3089.05  3089.15  3089.92  3091.04  3091.65  3093.19
eigval :     3095.01  3099.21  3103.36  3104.89  3105.45  3106.75
eigval :     3113.19  3113.58  3128.65

   temp. (K)  partition function   enthalpy   heat capacity  entropy
                                   cal/mol     cal/K/mol   cal/K/mol   J/K/mol
 298.15  VIB  0.430E+13            17123.744    111.645    104.146
         ROT  0.239E+08              888.752      2.981     36.743
         INT  0.103E+21            18012.496    114.626    140.889
         TR   0.116E+29             1481.254      4.968     44.633
         TOT                       19493.7501   119.5941   185.5222   776.2247

       T/K    H(0)-H(T)+PV         H(T)/Eh          T*S/Eh         G(T)/Eh
   ------------------------------------------------------------------------
    298.15    0.310653E-01    0.463713E+00    0.881476E-01    0.375565E+00
   ------------------------------------------------------------------------

         :::::::::::::::::::::::::::::::::::::::::::::::::::::
         ::                  THERMODYNAMIC                  ::
         :::::::::::::::::::::::::::::::::::::::::::::::::::::
         :: total free energy         -96.232418348455 Eh   ::
         ::.................................................::
         :: total energy              -96.607983334565 Eh   ::
         :: zero point energy           0.432647279429 Eh   ::
         :: G(RRHO) w/o ZPVE           -0.057082293320 Eh   ::
         :: G(RRHO) contrib.            0.375564986110 Eh   ::
         :::::::::::::::::::::::::::::::::::::::::::::::::::::

           -------------------------------------------------
          | TOTAL ENERGY              -96.607983334565 Eh   |
          | TOTAL ENTHALPY            -96.144270787015 Eh   |
          | TOTAL FREE ENERGY         -96.232418348455 Eh   |
          | GRADIENT NORM               0.000124311876 Eh/α |
           -------------------------------------------------

 * finished run on 2025/08/22 at 15:03:04.241
