   * xtb version 6.7.1 (edcfbbe) compiled by 'albert@albert-system' on 2024-07-22

   ID    Z sym.   atoms
    1    6 C      1-6, 8-13, 15-22, 24-29, 31-37
    2   16 S      7, 30
    3    7 N      14, 23, 38
    4    1 H      39-59

          program call               : xtb data2507/gas/Fens/Fens_gas_S0_finalOpt.xtbopt.xyz --gfn 2 --spinpol --tblite --uhf 2 --ohess vtight --parallel 40 --molden --ceasefiles --namespace data2507/gas/Fens/Fens_gas_T1_preOpt
 * total energy  :   -96.5986607 Eh     change        0.1071399E-07 Eh
 * total energy  :   -96.6023942 Eh     change       -0.3733427E-02 Eh
 * total energy  :   -96.6037521 Eh     change       -0.1357902E-02 Eh
 * total energy  :   -96.6040287 Eh     change       -0.2766055E-03 Eh
 * total energy  :   -96.6043849 Eh     change       -0.3561906E-03 Eh
 * total energy  :   -96.6046320 Eh     change       -0.2470829E-03 Eh
 * total energy  :   -96.6049314 Eh     change       -0.2994441E-03 Eh
 * total energy  :   -96.6052481 Eh     change       -0.3166693E-03 Eh
 * total energy  :   -96.6054966 Eh     change       -0.2485291E-03 Eh
 * total energy  :   -96.6056882 Eh     change       -0.1915538E-03 Eh
 * total energy  :   -96.6070657 Eh     change       -0.7625369E-06 Eh
 * total energy  :   -96.6070662 Eh     change       -0.5642317E-06 Eh
 * total energy  :   -96.6070668 Eh     change       -0.5997730E-06 Eh
 * total energy  :   -96.6070674 Eh     change       -0.5884597E-06 Eh
 * total energy  :   -96.6070680 Eh     change       -0.6107653E-06 Eh
 * total energy  :   -96.6070687 Eh     change       -0.6162062E-06 Eh
 * total energy  :   -96.6070693 Eh     change       -0.6086443E-06 Eh
 * total energy  :   -96.6070693 Eh     change        0.2229768E-08 Eh
 * total energy  :   -96.6070693 Eh     change       -0.1165196E-07 Eh
   *** GEOMETRY OPTIMIZATION CONVERGED AFTER 69 ITERATIONS ***

 final structure:
================
59
 xtb: 6.7.1 (edcfbbe)
C            0.27553340792727        3.26680012056274       -0.94298391808918
C           -0.14339734781266        2.12163845921370       -1.60347548452505
C            0.52089516912917        0.92578219218192       -1.42011572981148
C            1.61094369377237        0.84979689424304       -0.55151237143530
C            2.03835375515542        2.01455230971378        0.08717698768210
C            1.37667832245485        3.21471166254243       -0.10608746830805
S            3.42710780643862        1.94303014548266        1.18195458518996
C            4.35236763874973        0.70808378780574        0.31147193755188
C            5.73615336294504        0.77063686742783        0.30713082723209
C            6.46902443043873       -0.17748436236731       -0.38365634113165
C            5.81125288749766       -1.16077267800453       -1.10669376803386
C            4.43111370259306       -1.22142605505112       -1.11024076074177
C            3.67903836246686       -0.31366433325499       -0.36494705556877
N            2.28187872913371       -0.36153227778237       -0.34064812930220
C            1.52923269934483       -1.50152065798442       -0.09279633312492
C            2.02605472623581       -2.78042590599441        0.09210140006703
C            1.13356429816365       -3.81859800308019        0.35029591238636
C           -0.25099035643905       -3.56918528693888        0.45777847978182
C           -1.22053990971401       -4.53650011509562        0.73733179258854
C           -2.56809883125992       -4.18457830316380        0.87494242685280
C           -2.97006632369694       -2.87721447320865        0.75377250278194
C           -2.01895194953733       -1.86955853972232        0.50176054262463
N           -2.41847466381189       -0.52340285731435        0.33704570625523
C           -3.18323837876657       -0.20616520659847       -0.77550482741322
C           -3.49432974934660       -1.20160921918883       -1.71373749103664
C           -4.29177017664390       -0.94525597783896       -2.80868029097731
C           -4.79982570664088        0.32662238486171       -3.02683219354838
C           -4.46363706669816        1.33744556136243       -2.15004592164141
C           -3.66181561531918        1.08345657873821       -1.04374773889933
S           -3.26493455163001        2.47655211720896       -0.04568974874316
C           -2.03439969612367        1.80591935822666        1.01461282510265
C           -1.33892203847470        2.72361730748225        1.79037769218558
C           -0.42838305852457        2.29769197904813        2.73568998043453
C           -0.27757692222806        0.93622774481204        2.95389309272315
C           -0.97329254034677        0.02274352081406        2.19329195129578
C           -1.82161487524408        0.42739025512453        1.14970232282992
C           -0.65125920617325       -2.20248235481509        0.33378707433678
N            0.21851288780930       -1.23269463392021        0.08937494387228
H           -0.24592704149742        4.20020272605996       -1.08787842764285
H           -0.98893102322115        2.16266405099934       -2.27454425754626
H            0.20538613708369        0.03904824675254       -1.94623315559534
H            1.72343881758127        4.09580244191202        0.41124965435032
H            6.22630413044380        1.56191327742468        0.85290226791269
H            7.54697456637109       -0.13642147965775       -0.37391537418157
H            6.37618170749555       -1.88014933715246       -1.67995780118526
H            3.92099377526398       -1.96310422960924       -1.70482480089255
H            3.08270435329970       -2.98339745407144        0.04645710971063
H            1.49903077418743       -4.82748422110515        0.46351929494758
H           -0.91335750758626       -5.56146836273143        0.88056732923097
H           -3.29473900684328       -4.95115483763184        1.09917853811571
H           -4.00473541850575       -2.59479139471876        0.88001844609187
H           -3.08995662938571       -2.19105043910201       -1.57696731526283
H           -4.51054073224717       -1.74391287492353       -3.50066806971367
H           -5.42941252027803        0.53198098929045       -3.87792723800402
H           -4.81305785074228        2.34661315471389       -2.30741457159689
H           -1.53215975364512        3.77478765634616        1.64078879040428
H            0.12858380409648        3.01524104979409        3.31671618299911
H            0.38452714661658        0.58251361910804        3.72910565404139
H           -0.87653354402772       -1.02663384468696        2.41350075401981

 projected vibrational frequencies (cm⁻¹)
eigval :       -0.00    -0.00    -0.00    -0.00     0.00     0.00
eigval :       16.62    19.13    31.43    38.39    47.94    55.80
eigval :       67.73    83.52    97.70   109.73   120.36   131.39
eigval :      157.80   171.60   180.32   184.58   195.11   217.43
eigval :      230.16   235.62   262.12   283.88   292.01   299.20
eigval :      335.43   347.11   352.45   362.99   369.55   378.22
eigval :      392.74   411.62   418.30   420.18   430.86   432.11
eigval :      433.61   469.78   475.43   480.69   483.65   489.13
eigval :      491.20   500.94   514.38   528.11   546.23   553.94
eigval :      572.83   585.18   597.92   601.59   639.23   649.54
eigval :      650.64   651.17   656.31   676.99   681.99   692.13
eigval :      702.14   705.75   712.56   732.41   758.42   768.90
eigval :      772.42   774.35   777.66   803.28   817.13   818.82
eigval :      828.64   856.09   860.10   864.41   865.69   882.60
eigval :      885.38   896.37   898.78   902.41   904.68   904.69
eigval :      909.80   917.47   917.98   920.73   927.75   976.41
eigval :     1024.13  1043.19  1045.61  1056.61  1075.75  1087.33
eigval :     1087.71  1098.03  1100.32  1101.43  1130.89  1149.90
eigval :     1151.30  1155.77  1160.46  1172.36  1174.63  1175.44
eigval :     1177.49  1181.13  1202.05  1209.69  1214.16  1230.19
eigval :     1235.72  1240.31  1242.48  1272.84  1283.05  1290.77
eigval :     1309.55  1315.76  1316.95  1325.22  1327.95  1330.57
eigval :     1337.57  1358.31  1376.55  1384.68  1396.61  1412.09
eigval :     1412.97  1416.95  1419.33  1428.74  1435.20  1451.71
eigval :     1455.24  1473.06  1490.98  1510.80  1532.74  1537.55
eigval :     1542.89  1548.68  1552.04  1552.95  1572.48  1576.27
eigval :     3073.96  3078.47  3079.73  3085.12  3086.40  3090.41
eigval :     3091.22  3091.93  3092.25  3093.76  3094.07  3094.91
eigval :     3100.96  3101.91  3105.07  3105.81  3106.63  3107.83
eigval :     3111.60  3118.36  3124.11

   temp. (K)  partition function   enthalpy   heat capacity  entropy
                                   cal/mol     cal/K/mol   cal/K/mol   J/K/mol
 298.15  VIB  0.661E+12            17008.100    112.431    102.423
         ROT  0.278E+08              888.752      2.981     37.043
         INT  0.184E+20            17896.852    115.412    139.465
         TR   0.116E+29             1481.254      4.968     44.633
         TOT                       19378.1059   120.3803   184.0984   770.2678

       T/K    H(0)-H(T)+PV         H(T)/Eh          T*S/Eh         G(T)/Eh
   ------------------------------------------------------------------------
    298.15    0.308810E-01    0.463676E+00    0.874711E-01    0.376205E+00
   ------------------------------------------------------------------------

         :::::::::::::::::::::::::::::::::::::::::::::::::::::
         ::                  THERMODYNAMIC                  ::
         :::::::::::::::::::::::::::::::::::::::::::::::::::::
         :: total free energy         -96.230864030715 Eh   ::
         ::.................................................::
         :: total energy              -96.607069279568 Eh   ::
         :: zero point energy           0.432795373871 Eh   ::
         :: G(RRHO) w/o ZPVE           -0.056590125018 Eh   ::
         :: G(RRHO) contrib.            0.376205248853 Eh   ::
         :::::::::::::::::::::::::::::::::::::::::::::::::::::

           -------------------------------------------------
          | TOTAL ENERGY              -96.607069279568 Eh   |
          | TOTAL ENTHALPY            -96.143392928207 Eh   |
          | TOTAL FREE ENERGY         -96.230864030715 Eh   |
          | GRADIENT NORM               0.000084386205 Eh/α |
           -------------------------------------------------

 * finished run on 2025/08/22 at 14:58:55.374
