   * xtb version 6.7.1 (edcfbbe) compiled by 'albert@albert-system' on 2024-07-22

   ID    Z sym.   atoms
    1    6 C      1-6, 8-13, 15-22, 24-29, 31-37
    2   16 S      7, 30
    3    7 N      14, 23, 38
    4    1 H      39-59

          program call               : xtb data2507/gas/Fens/Fens_gas_S0_crest.xyz --gfn 2 --ohess vtight --parallel 40 --molden --ceasefiles --namespace data2507/gas/Fens/Fens_gas_S0_finalOpt
          :  Hamiltonian                  GFN2-xTB          :
 * total energy  :   -96.6834133 Eh     change       -0.1901086E-08 Eh
 * total energy  :   -96.6834142 Eh     change       -0.9044497E-06 Eh
 * total energy  :   -96.6834158 Eh     change       -0.1586510E-05 Eh
 * total energy  :   -96.6834177 Eh     change       -0.1886704E-05 Eh
 * total energy  :   -96.6834188 Eh     change       -0.1089396E-05 Eh
 * total energy  :   -96.6834195 Eh     change       -0.7398112E-06 Eh
 * total energy  :   -96.6834205 Eh     change       -0.9454116E-06 Eh
 * total energy  :   -96.6834218 Eh     change       -0.1304131E-05 Eh
 * total energy  :   -96.6834229 Eh     change       -0.1063966E-05 Eh
 * total energy  :   -96.6834233 Eh     change       -0.4688262E-06 Eh
 * total energy  :   -96.6834235 Eh     change       -0.1904927E-06 Eh
 * total energy  :   -96.6834236 Eh     change       -0.9272021E-07 Eh
   *** GEOMETRY OPTIMIZATION CONVERGED AFTER 12 ITERATIONS ***

 final structure:
================
59
 xtb: 6.7.1 (edcfbbe)
C            0.26010125628882        3.40450071405910       -0.68922664102317
C           -0.25101253148222        2.37195589960131       -1.45851491535113
C            0.34152509065555        1.12317769058864       -1.43370381405748
C            1.45421698392529        0.89713853075382       -0.63471441096977
C            1.98409317247232        1.94795146371330        0.10494924646024
C            1.38491637764652        3.19757576083795        0.08633119305599
S            3.45146057383476        1.69098590643330        1.06771706472357
C            4.24219073594155        0.52082970249125       -0.00241828416257
C            5.62427022641767        0.51352406231541       -0.11548322865883
C            6.24319056886592       -0.39505976258523       -0.95395320464398
C            5.48108218101591       -1.27532493107624       -1.70544769983929
C            4.10183876411571       -1.26502020458517       -1.60161825940120
C            3.47055244739181       -0.39052465424216       -0.72351569784017
N            2.07105063546187       -0.37720560259340       -0.58533137552434
C            1.32503834910256       -1.46491925957400       -0.21662580613970
C            1.90352916111692       -2.74326791049409        0.02393669189365
C            1.09489030830051       -3.76134641003368        0.43125176292882
C           -0.28610933642440       -3.53534871969012        0.64715962653797
C           -1.19453891488525       -4.50669664231389        1.10272792003157
C           -2.50025946110864       -4.17224880197364        1.34846203713350
C           -2.95256963962767       -2.85680341658714        1.16328267462069
C           -2.09648211331697       -1.88931061066648        0.70770027052955
N           -2.51941702731495       -0.54144872327257        0.51961243901279
C           -2.97891136302789       -0.21762754233585       -0.75689936983648
C           -3.05646699718171       -1.19805663531969       -1.74792056264179
C           -3.53516913519688       -0.91268471768088       -3.01389829085634
C           -3.93845058286894        0.36911028547205       -3.33803288483029
C           -3.85827742708146        1.35880889873444       -2.37483558908471
C           -3.39652142008895        1.07023677883456       -1.10142558224544
S           -3.38422188742502        2.39670959584827        0.06934265774764
C           -2.19055083228489        1.78012476668443        1.22017466851686
C           -1.56076674575088        2.71330695074680        2.02527971961540
C           -0.69517876798419        2.31038754797294        3.02516381796259
C           -0.49629586037092        0.95811500146796        3.22942042121888
C           -1.11445384503322        0.02668068621505        2.41589624475247
C           -1.94410642639218        0.41284006969360        1.36224446788160
C           -0.74630444051097       -2.21541970744557        0.41881200775184
N            0.04646061753233       -1.23371055699181       -0.02690354759695
H           -0.21310783079254        4.37407560538846       -0.69971095674817
H           -1.11692462888461        2.53627023453769       -2.08090019903485
H           -0.06302423861701        0.31309868284306       -2.01895434772588
H            1.80451772532945        3.99215723498278        0.68366354769776
H            6.20120205118795        1.21772229996837        0.46343751759552
H            7.31931175494715       -0.40608550119549       -1.03145271699790
H            5.96023075198922       -1.96919284107472       -2.37912043575594
H            3.50141333008718       -1.93598644181862       -2.19792115084750
H            2.96563768122519       -2.89032369054534       -0.08861406663535
H            1.50282453925461       -4.74481062720816        0.62054617573061
H           -0.84363927770289       -5.51603666310056        1.26421765243960
H           -3.19451197128190       -4.91948784523045        1.70199941974429
H           -3.97911628503249       -2.60203677831379        1.38062434046424
H           -2.73991988557423       -2.20437988183313       -1.52230122941375
H           -3.58717843319503       -1.70275428733508       -3.74810861169896
H           -4.31181629828380        0.59974321290574       -4.32353707253976
H           -4.16898801888569        2.36950508701375       -2.59350561647646
H           -1.77424198353530        3.75942394235946        1.86678029386239
H           -0.20375570760203        3.04240998427026        3.64658147419528
H            0.14585613164942        0.61632121794287        4.02730636965623
H           -0.95206233631130       -1.02172068916014        2.60972872241639

          :  Hamiltonian                  GFN2-xTB          :
         :: gradient norm              0.000091407053 Eh/a0 ::
         :: HOMO-LUMO gap              1.544260495999 eV    ::
         :: SCC energy               -98.373684421132 Eh    ::
         :: -> dispersion             -0.102037825696 Eh    ::
         :: repulsion energy           1.690260809474 Eh    ::

    * Orbital Energies and Occupations

         #    Occupation            Energy/Eh            Energy/eV
      -------------------------------------------------------------
         1        2.0000           -0.7232920             -19.6818
       ...           ...                  ...                  ...
        78        2.0000           -0.4211867             -11.4611
        79        2.0000           -0.4203008             -11.4370
        80        2.0000           -0.4175651             -11.3625
        81        2.0000           -0.4148801             -11.2895
        82        2.0000           -0.4126853             -11.2297
        83        2.0000           -0.4045874             -11.0094
        84        2.0000           -0.4014459             -10.9239
        85        2.0000           -0.3996236             -10.8743
        86        2.0000           -0.3820641             -10.3965
        87        2.0000           -0.3736596             -10.1678
        88        2.0000           -0.3690199             -10.0415
        89        2.0000           -0.3580213              -9.7423
        90        2.0000           -0.3328944              -9.0585 (HOMO)
        91                         -0.2761439              -7.5143 (LUMO)
        92                         -0.2476726              -6.7395
        93                         -0.2461250              -6.6974
        94                         -0.2382115              -6.4821
        95                         -0.2340377              -6.3685
        96                         -0.2325451              -6.3279
        97                         -0.2255633              -6.1379
        98                         -0.2222663              -6.0482
        99                         -0.2171548              -5.9091
       100                         -0.2061461              -5.6095
       101                         -0.2022892              -5.5046
       ...                                ...                  ...
       183                          0.6902934              18.7838
      -------------------------------------------------------------
                  HL-Gap            0.0567505 Eh            1.5443 eV

     #   Z          covCN         q      C6AA      α(0)
     1   6 C        2.921    -0.028    28.700     8.785
     2   6 C        2.920    -0.028    28.692     8.784
     3   6 C        2.923    -0.033    28.816     8.803
     4   6 C        2.976     0.064    26.552     8.452
     5   6 C        2.973     0.037    27.166     8.549
     6   6 C        2.961    -0.036    28.903     8.818
     7  16 S        2.114    -0.134   146.707    20.386
     8   6 C        2.971     0.037    27.168     8.550
     9   6 C        2.960    -0.037    28.908     8.819
    10   6 C        2.920    -0.032    28.805     8.801
    11   6 C        2.919    -0.033    28.825     8.804
    12   6 C        2.922    -0.045    29.114     8.848
    13   6 C        2.965     0.057    26.722     8.479
    14   7 N        2.764    -0.068    22.551     7.053
    15   6 C        2.900     0.159    24.569     8.127
    16   6 C        2.910    -0.061    29.524     8.910
    17   6 C        2.923    -0.018    28.469     8.750
    18   6 C        2.982    -0.011    28.281     8.723
    19   6 C        2.915    -0.038    28.933     8.820
    20   6 C        2.917    -0.036    28.884     8.813
    21   6 C        2.917    -0.040    28.989     8.829
    22   6 C        2.940     0.055    26.768     8.485
    23   7 N        2.748    -0.066    22.526     7.049
    24   6 C        2.953     0.066    26.531     8.448
    25   6 C        2.928    -0.055    29.366     8.887
    26   6 C        2.919    -0.035    28.874     8.812
    27   6 C        2.918    -0.041    29.027     8.835
    28   6 C        2.983    -0.041    29.015     8.836
    29   6 C        2.972     0.034    27.225     8.559
    30  16 S        2.137    -0.159   147.780    20.460
    31   6 C        2.974     0.033    27.266     8.565
    32   6 C        2.986    -0.041    29.010     8.835
    33   6 C        2.919    -0.041    29.007     8.832
    34   6 C        2.920    -0.034    28.839     8.806
    35   6 C        2.929    -0.051    29.256     8.870
    36   6 C        2.951     0.067    26.495     8.443
    37   6 C        2.972     0.087    26.063     8.374
    38   7 N        1.861    -0.286    28.258     7.879
    39   1 H        0.926     0.047     2.356     2.400
    40   1 H        0.926     0.048     2.350     2.397
    41   1 H        0.926     0.051     2.310     2.377
    42   1 H        0.926     0.049     2.333     2.388
    43   1 H        0.926     0.051     2.303     2.373
    44   1 H        0.926     0.044     2.399     2.422
    45   1 H        0.926     0.042     2.424     2.435
    46   1 H        0.926     0.043     2.406     2.426
    47   1 H        0.926     0.035     2.516     2.480
    48   1 H        0.925     0.035     2.512     2.478
    49   1 H        0.926     0.036     2.507     2.476
    50   1 H        0.926     0.038     2.471     2.458
    51   1 H        0.926     0.045     2.384     2.415
    52   1 H        0.926     0.028     2.610     2.527
    53   1 H        0.926     0.031     2.574     2.509
    54   1 H        0.926     0.033     2.545     2.495
    55   1 H        0.926     0.041     2.436     2.440
    56   1 H        0.926     0.040     2.444     2.445
    57   1 H        0.926     0.034     2.536     2.490
    58   1 H        0.926     0.032     2.554     2.499
    59   1 H        0.926     0.028     2.615     2.529

molecular dipole:
                 x           y           z       tot (Debye)
 q only:        0.893      -0.607      -0.476
   full:        1.183      -1.419      -0.555       4.904

 projected vibrational frequencies (cm⁻¹)
eigval :       -0.00    -0.00     0.00     0.00     0.00     0.00
eigval :       11.21    25.92    28.43    34.08    42.92    56.54
eigval :       65.74    80.72    93.84   105.79   115.00   132.80
eigval :      156.78   166.23   174.72   184.50   202.15   218.87
eigval :      229.22   234.38   263.99   283.93   294.90   304.12
eigval :      332.52   345.61   354.53   370.07   371.84   383.08
eigval :      401.34   411.77   414.05   420.97   425.56   426.02
eigval :      433.67   472.47   485.19   491.78   493.93   497.47
eigval :      501.71   512.91   527.27   536.50   548.56   565.78
eigval :      589.01   592.16   607.91   644.69   648.68   653.94
eigval :      654.47   658.15   659.08   680.95   692.01   697.92
eigval :      703.67   715.42   734.93   771.25   771.35   778.69
eigval :      781.96   787.07   811.93   826.51   830.83   860.09
eigval :      862.75   875.72   880.00   882.47   892.37   898.26
eigval :      900.85   906.40   907.86   911.50   912.90   914.60
eigval :      914.87   917.23   920.78   929.43   931.72   987.07
eigval :     1028.57  1041.97  1043.92  1062.13  1086.58  1088.50
eigval :     1089.82  1103.87  1105.43  1105.95  1148.79  1153.79
eigval :     1155.59  1158.78  1163.47  1174.54  1176.24  1180.26
eigval :     1181.69  1187.25  1210.21  1216.25  1229.56  1231.72
eigval :     1240.97  1246.36  1255.93  1283.20  1290.09  1309.59
eigval :     1313.57  1318.84  1320.55  1322.95  1335.50  1337.61
eigval :     1363.23  1386.39  1411.48  1415.08  1418.51  1422.95
eigval :     1430.78  1447.15  1454.19  1460.68  1471.48  1477.56
eigval :     1492.33  1543.75  1558.43  1564.67  1571.52  1572.63
eigval :     1574.35  1577.28  1583.35  1588.99  1596.92  1599.64
eigval :     3064.43  3073.17  3081.48  3082.68  3084.06  3087.49
eigval :     3087.67  3089.65  3091.42  3091.46  3097.34  3097.82
eigval :     3098.52  3099.42  3100.66  3103.13  3104.63  3105.01
eigval :     3106.19  3106.56  3112.29

   temp. (K)  partition function   enthalpy   heat capacity  entropy
                                   cal/mol     cal/K/mol   cal/K/mol   J/K/mol
 298.15  VIB  0.986E+12            16856.669    110.650    102.048
         ROT  0.271E+08              888.752      2.981     36.994
         INT  0.267E+20            17745.421    113.631    139.041
         TR   0.116E+29             1481.254      4.968     44.633
         TOT                       19226.6749   118.5988   183.6742   768.4929

       T/K    H(0)-H(T)+PV         H(T)/Eh          T*S/Eh         G(T)/Eh
   ------------------------------------------------------------------------
    298.15    0.306397E-01    0.467089E+00    0.872695E-01    0.379820E+00
   ------------------------------------------------------------------------

         :::::::::::::::::::::::::::::::::::::::::::::::::::::
         ::                  THERMODYNAMIC                  ::
         :::::::::::::::::::::::::::::::::::::::::::::::::::::
         :: total free energy         -96.303603811645 Eh   ::
         ::.................................................::
         :: total energy              -96.683423611656 Eh   ::
         :: zero point energy           0.436449688031 Eh   ::
         :: G(RRHO) w/o ZPVE           -0.056629888020 Eh   ::
         :: G(RRHO) contrib.            0.379819800012 Eh   ::
         :::::::::::::::::::::::::::::::::::::::::::::::::::::

           -------------------------------------------------
          | TOTAL ENERGY              -96.683423611656 Eh   |
          | TOTAL ENTHALPY            -96.216334266837 Eh   |
          | TOTAL FREE ENERGY         -96.303603811645 Eh   |
          | GRADIENT NORM               0.000091390892 Eh/α |
          | HOMO-LUMO GAP               1.544260350988 eV   |
           -------------------------------------------------

 * finished run on 2025/08/22 at 14:58:46.642
