   * xtb version 6.7.1 (edcfbbe) compiled by 'albert@albert-system' on 2024-07-22

   ID    Z sym.   atoms
    1    6 C      1-6, 8-13, 15-22, 24-29, 31-37
    2   16 S      7, 30
    3    7 N      14, 23, 38
    4    1 H      39-59

          program call               : xtb data2507/gas/Fens/Fens.xyz --gfn 2 --ohess vtight --parallel 40 --molden --ceasefiles --namespace data2507/gas/Fens/Fens_gas_S0_preOpt
          :  Hamiltonian                  GFN2-xTB          :
 * total energy  :   -96.6438201 Eh     change       -0.1175806E-08 Eh
 * total energy  :   -96.6615942 Eh     change       -0.1777411E-01 Eh
 * total energy  :   -96.6686325 Eh     change       -0.7038295E-02 Eh
 * total energy  :   -96.6702546 Eh     change       -0.1622050E-02 Eh
 * total energy  :   -96.6712089 Eh     change       -0.9542833E-03 Eh
 * total energy  :   -96.6717293 Eh     change       -0.5204730E-03 Eh
 * total energy  :   -96.6721500 Eh     change       -0.4207001E-03 Eh
 * total energy  :   -96.6725612 Eh     change       -0.4111475E-03 Eh
 * total energy  :   -96.6729028 Eh     change       -0.3415860E-03 Eh
 * total energy  :   -96.6732560 Eh     change       -0.3531845E-03 Eh
 * total energy  :   -96.6833304 Eh     change       -0.6875697E-06 Eh
 * total energy  :   -96.6833310 Eh     change       -0.6792912E-06 Eh
 * total energy  :   -96.6833317 Eh     change       -0.6746828E-06 Eh
 * total energy  :   -96.6833324 Eh     change       -0.6672885E-06 Eh
 * total energy  :   -96.6833330 Eh     change       -0.6636316E-06 Eh
 * total energy  :   -96.6833337 Eh     change       -0.6563897E-06 Eh
 * total energy  :   -96.6833344 Eh     change       -0.6530668E-06 Eh
 * total energy  :   -96.6833350 Eh     change       -0.6461283E-06 Eh
 * total energy  :   -96.6833350 Eh     change       -0.8406204E-08 Eh
   *** GEOMETRY OPTIMIZATION CONVERGED AFTER 420 ITERATIONS ***

 final structure:
================
59
 xtb: 6.7.1 (edcfbbe)
C            0.39386980176917        2.89977496049936       -2.29041196723500
C            0.11183161903634        1.55563056778543       -2.47050028398675
C            0.66870176365005        0.60600994330031       -1.63396704745756
C            1.51428433135472        0.99686237880841       -0.60445056852863
C            1.82801077802128        2.34362540378682       -0.45787704709987
C            1.26274908645022        3.29558885862734       -1.29146728221967
S            2.97742912587899        2.84892688992280        0.79568562455539
C            4.02043526863036        1.41736600875336        0.76070065765036
C            5.38142992323276        1.54745269051635        0.99256482060305
C            6.19602619081122        0.43067321788779        0.96287501107383
C            5.65752522602515       -0.81265185793261        0.67150866149038
C            4.30189789119728       -0.94455066341915        0.43161337319544
C            3.46478707809835        0.16387265629168        0.50566350432548
N            2.08165993622463        0.04811977933364        0.28072351408317
C            1.26247105255078       -0.79661343475389        0.98146844547673
C            1.74520118172861       -1.60385087569254        2.05063672205218
C            0.85887533246427       -2.37221943923103        2.74293070761907
C           -0.51881529807433       -2.34304130210781        2.41730736728142
C           -1.51350403699438       -3.07344594006809        3.09045631435569
C           -2.83017985464265       -2.93931871027030        2.73664028767132
C           -3.21055839878877       -2.06955908318494        1.70341261261902
C           -2.26528430278696       -1.35064854558181        1.02071819335736
N           -2.62538892803499       -0.46355910472485       -0.03494244324717
C           -2.57934053383903       -0.99738198706843       -1.32273869375828
C           -2.22273483069087       -2.33216607028272       -1.52323724813473
C           -2.18884017640161       -2.88981364635136       -2.78870822172948
C           -2.49560008702894       -2.12657104353404       -3.89961233334855
C           -2.84615555756183       -0.79976789136762       -3.72405474376610
C           -2.90053493648761       -0.24606482206793       -2.45604992641715
S           -3.42844915279999        1.43858372289303       -2.33012050812177
C           -2.70268400428841        1.86541788346027       -0.77355615223080
C           -2.46438097997279        3.20848473627744       -0.54029648943838
C           -1.99417975973057        3.63582458792936        0.68762822561719
C           -1.79326014995950        2.70252183339085        1.68700887773580
C           -2.01724139259158        1.35905574871745        1.44911241679510
C           -2.44203689318993        0.90045090021532        0.20181881718497
C           -0.89302526946635       -1.48285391008116        1.35576542278161
N           -0.00970700921626       -0.75723899739463        0.65886241509771
H           -0.05352404709378        3.63993901368351       -2.93541000166521
H           -0.54579094106485        1.24200065849908       -3.26618274978096
H            0.43980881280838       -0.43939870013056       -1.76306488818283
H            1.50761178242977        4.33621963052871       -1.14488753399866
H            5.78650233690133        2.52511969062925        1.20223999262353
H            7.25300381167689        0.53300872441983        1.15384171804207
H            6.29460913021984       -1.68261158757011        0.62528323066045
H            3.87777754210610       -1.90769791537968        0.18895411624333
H            2.78840303839186       -1.57916037287541        2.32225096699066
H            1.19267967693211       -2.99314882415494        3.56293670916598
H           -1.22245818827428       -3.73489824459313        3.89404356978186
H           -3.59229787882147       -3.49848860608759        3.25796063344710
H           -4.25267329880316       -1.96413658320983        1.44112059970300
H           -1.97195854489637       -2.94691176268216       -0.67295968267720
H           -1.91610261497581       -3.92874656571578       -2.89945256583192
H           -2.46800427412016       -2.55408246726824       -4.88968052965949
H           -3.10047352803189       -0.17871245968669       -4.56981711521345
H           -2.67101024519048        3.91452361594355       -1.33016441679198
H           -1.80884296861937        4.68380553906618        0.86351684562873
H           -1.45795421752261        3.01518051938844        2.66455881532095
H           -1.86458941862762        0.65526825403526        2.25179625035705

          :  Hamiltonian                  GFN2-xTB          :
         :: gradient norm              0.000068836116 Eh/a0 ::
         :: HOMO-LUMO gap              1.551988826877 eV    ::
         :: SCC energy               -98.373671299598 Eh    ::
         :: -> dispersion             -0.101156714258 Eh    ::
         :: repulsion energy           1.690336289294 Eh    ::

    * Orbital Energies and Occupations

         #    Occupation            Energy/Eh            Energy/eV
      -------------------------------------------------------------
         1        2.0000           -0.7236223             -19.6908
       ...           ...                  ...                  ...
        78        2.0000           -0.4216486             -11.4736
        79        2.0000           -0.4204455             -11.4409
        80        2.0000           -0.4178380             -11.3700
        81        2.0000           -0.4150110             -11.2930
        82        2.0000           -0.4128852             -11.2352
        83        2.0000           -0.4047238             -11.0131
        84        2.0000           -0.4018029             -10.9336
        85        2.0000           -0.3999238             -10.8825
        86        2.0000           -0.3824852             -10.4080
        87        2.0000           -0.3739833             -10.1766
        88        2.0000           -0.3693391             -10.0502
        89        2.0000           -0.3581891              -9.7468
        90        2.0000           -0.3334415              -9.0734 (HOMO)
        91                         -0.2764069              -7.5214 (LUMO)
        92                         -0.2479240              -6.7464
        93                         -0.2463841              -6.7045
        94                         -0.2384380              -6.4882
        95                         -0.2342124              -6.3732
        96                         -0.2325134              -6.3270
        97                         -0.2258158              -6.1448
        98                         -0.2224973              -6.0545
        99                         -0.2176641              -5.9229
       100                         -0.2061833              -5.6105
       101                         -0.2026491              -5.5144
       ...                                ...                  ...
       183                          0.6894343              18.7605
      -------------------------------------------------------------
                  HL-Gap            0.0570346 Eh            1.5520 eV

     #   Z          covCN         q      C6AA      α(0)
     1   6 C        2.921    -0.029    28.719     8.788
     2   6 C        2.920    -0.028    28.702     8.785
     3   6 C        2.923    -0.033    28.824     8.804
     4   6 C        2.974     0.064    26.567     8.455
     5   6 C        2.973     0.037    27.172     8.550
     6   6 C        2.962    -0.037    28.913     8.820
     7  16 S        2.114    -0.135   146.739    20.388
     8   6 C        2.971     0.037    27.170     8.550
     9   6 C        2.960    -0.037    28.908     8.819
    10   6 C        2.920    -0.032    28.807     8.802
    11   6 C        2.919    -0.033    28.823     8.804
    12   6 C        2.923    -0.045    29.112     8.848
    13   6 C        2.966     0.057    26.722     8.479
    14   7 N        2.763    -0.067    22.530     7.050
    15   6 C        2.900     0.158    24.575     8.128
    16   6 C        2.910    -0.061    29.512     8.908
    17   6 C        2.923    -0.018    28.470     8.750
    18   6 C        2.983    -0.011    28.280     8.723
    19   6 C        2.915    -0.037    28.929     8.820
    20   6 C        2.917    -0.035    28.879     8.812
    21   6 C        2.917    -0.040    28.984     8.828
    22   6 C        2.939     0.055    26.769     8.485
    23   7 N        2.748    -0.067    22.531     7.050
    24   6 C        2.954     0.066    26.527     8.448
    25   6 C        2.928    -0.055    29.361     8.886
    26   6 C        2.919    -0.035    28.872     8.811
    27   6 C        2.918    -0.041    29.024     8.835
    28   6 C        2.981    -0.041    29.012     8.835
    29   6 C        2.972     0.034    27.231     8.560
    30  16 S        2.135    -0.160   147.817    20.463
    31   6 C        2.974     0.033    27.262     8.565
    32   6 C        2.984    -0.041    29.007     8.835
    33   6 C        2.919    -0.041    29.015     8.833
    34   6 C        2.920    -0.034    28.844     8.807
    35   6 C        2.928    -0.051    29.259     8.871
    36   6 C        2.952     0.067    26.501     8.443
    37   6 C        2.971     0.087    26.065     8.374
    38   7 N        1.859    -0.285    28.241     7.877
    39   1 H        0.926     0.046     2.366     2.405
    40   1 H        0.926     0.049     2.338     2.391
    41   1 H        0.926     0.053     2.285     2.364
    42   1 H        0.926     0.049     2.334     2.389
    43   1 H        0.926     0.051     2.304     2.374
    44   1 H        0.926     0.044     2.400     2.423
    45   1 H        0.926     0.042     2.423     2.434
    46   1 H        0.926     0.043     2.411     2.428
    47   1 H        0.926     0.035     2.519     2.482
    48   1 H        0.925     0.035     2.510     2.478
    49   1 H        0.926     0.036     2.505     2.475
    50   1 H        0.926     0.039     2.468     2.457
    51   1 H        0.926     0.045     2.382     2.413
    52   1 H        0.926     0.028     2.615     2.529
    53   1 H        0.926     0.031     2.575     2.510
    54   1 H        0.926     0.033     2.544     2.494
    55   1 H        0.926     0.041     2.433     2.439
    56   1 H        0.926     0.041     2.439     2.442
    57   1 H        0.926     0.033     2.538     2.491
    58   1 H        0.926     0.032     2.554     2.499
    59   1 H        0.926     0.028     2.608     2.525

molecular dipole:
                 x           y           z       tot (Debye)
 q only:        0.994      -0.564       0.229
   full:        1.302      -1.195       0.706       4.836

 projected vibrational frequencies (cm⁻¹)
eigval :       -0.00    -0.00    -0.00    -0.00     0.00     0.00
eigval :        9.62    24.12    28.68    33.49    41.97    56.88
eigval :       65.43    78.52    93.38   106.32   114.31   133.44
eigval :      156.96   164.59   174.57   183.56   201.69   218.28
eigval :      228.42   234.01   264.59   283.61   295.08   304.10
eigval :      332.71   347.06   353.28   369.66   372.10   383.23
eigval :      401.37   410.90   413.76   421.26   424.82   425.54
eigval :      433.75   472.06   485.49   491.71   494.10   497.28
eigval :      502.38   512.33   526.73   536.05   548.24   566.28
eigval :      588.46   592.25   607.68   644.74   648.58   653.92
eigval :      654.27   658.89   659.64   680.81   692.15   697.87
eigval :      703.64   715.32   734.99   770.61   771.20   778.68
eigval :      782.06   787.16   812.00   826.37   831.52   859.83
eigval :      861.75   875.92   880.15   882.22   892.45   898.26
eigval :      900.52   906.45   907.70   911.47   913.06   914.47
eigval :      914.85   917.20   920.96   929.39   931.07   987.07
eigval :     1028.48  1041.60  1043.50  1062.20  1086.74  1088.79
eigval :     1089.89  1103.70  1105.23  1105.87  1148.80  1153.84
eigval :     1155.59  1158.92  1163.60  1174.22  1176.14  1180.21
eigval :     1181.58  1187.20  1210.14  1216.12  1229.75  1231.58
eigval :     1241.02  1246.05  1255.85  1284.28  1290.62  1310.22
eigval :     1313.49  1319.14  1320.61  1322.74  1335.29  1337.14
eigval :     1363.53  1385.22  1412.13  1415.22  1418.45  1423.34
eigval :     1430.37  1447.17  1454.26  1460.08  1472.29  1477.20
eigval :     1491.94  1543.82  1558.46  1564.64  1571.44  1572.62
eigval :     1574.06  1577.32  1583.36  1589.20  1596.96  1599.81
eigval :     3064.56  3073.23  3081.46  3082.79  3083.88  3087.79
eigval :     3088.10  3089.58  3091.44  3091.56  3097.91  3098.04
eigval :     3098.60  3099.57  3100.88  3101.81  3104.68  3105.60
eigval :     3106.63  3106.71  3114.67

   temp. (K)  partition function   enthalpy   heat capacity  entropy
                                   cal/mol     cal/K/mol   cal/K/mol   J/K/mol
 298.15  VIB  0.131E+13            16871.772    110.610    102.337
         ROT  0.276E+08              888.752      2.981     37.030
         INT  0.361E+20            17760.525    113.591    139.366
         TR   0.116E+29             1481.254      4.968     44.633
         TOT                       19241.7785   118.5590   183.9994   769.8534

       T/K    H(0)-H(T)+PV         H(T)/Eh          T*S/Eh         G(T)/Eh
   ------------------------------------------------------------------------
    298.15    0.306637E-01    0.467087E+00    0.874240E-01    0.379663E+00
   ------------------------------------------------------------------------

         :::::::::::::::::::::::::::::::::::::::::::::::::::::
         ::                  THERMODYNAMIC                  ::
         :::::::::::::::::::::::::::::::::::::::::::::::::::::
         :: total free energy         -96.303671711499 Eh   ::
         ::.................................................::
         :: total energy              -96.683335010304 Eh   ::
         :: zero point energy           0.436423612090 Eh   ::
         :: G(RRHO) w/o ZPVE           -0.056760313286 Eh   ::
         :: G(RRHO) contrib.            0.379663298805 Eh   ::
         :::::::::::::::::::::::::::::::::::::::::::::::::::::

           -------------------------------------------------
          | TOTAL ENERGY              -96.683335010304 Eh   |
          | TOTAL ENTHALPY            -96.216247672372 Eh   |
          | TOTAL FREE ENERGY         -96.303671711499 Eh   |
          | GRADIENT NORM               0.000068844174 Eh/α |
          | HOMO-LUMO GAP               1.551989440231 eV   |
           -------------------------------------------------

 * finished run on 2025/08/22 at 14:56:08.054
