   * xtb version 6.7.1 (edcfbbe) compiled by 'albert@albert-system' on 2024-07-22

   ID    Z sym.   atoms
    1    6 C      1-35
    2    1 H      36-57

          program call               : xtb data2507/toluene/2SBFN/2SBFN_toluene_T1_crest.xyz --gfn 2 --uhf 2 --gbsa toluene --ohess vtight --parallel 40 --molden --ceasefiles --namespace data2507/toluene/2SBFN/2SBFN_toluene_T1_finalOpt
      * Solvation model:               GBSA
        Solvent                        toluene
        Solvent mass                       9.2140E+01 g/mol
          :  Hamiltonian                  GFN2-xTB          :
 * total energy  :   -86.1313607 Eh     change       -0.2506766E-08 Eh
 * total energy  :   -86.1313768 Eh     change       -0.1606897E-04 Eh
 * total energy  :   -86.1313790 Eh     change       -0.2184549E-05 Eh
 * total energy  :   -86.1313807 Eh     change       -0.1683431E-05 Eh
 * total energy  :   -86.1313821 Eh     change       -0.1387022E-05 Eh
 * total energy  :   -86.1313833 Eh     change       -0.1214274E-05 Eh
 * total energy  :   -86.1313841 Eh     change       -0.8260963E-06 Eh
 * total energy  :   -86.1313846 Eh     change       -0.5357532E-06 Eh
 * total energy  :   -86.1313851 Eh     change       -0.4242692E-06 Eh
 * total energy  :   -86.1313854 Eh     change       -0.3366257E-06 Eh
 * total energy  :   -86.1313857 Eh     change       -0.2979356E-06 Eh
 * total energy  :   -86.1313860 Eh     change       -0.3158053E-06 Eh
 * total energy  :   -86.1313863 Eh     change       -0.2885327E-06 Eh
 * total energy  :   -86.1313865 Eh     change       -0.1767007E-06 Eh
 * total energy  :   -86.1313865 Eh     change       -0.2281301E-07 Eh
   *** GEOMETRY OPTIMIZATION CONVERGED AFTER 15 ITERATIONS ***

 final structure:
================
57
 xtb: 6.7.1 (edcfbbe)
C           -2.79733936057203        2.70927727401185        3.17022161397255
C           -2.48300200239887        1.40627667879687        3.52778763182005
C           -2.26298214581212        0.43613710141995        2.55868870912888
C           -2.36367769562296        0.79760474426984        1.23262006542801
C           -2.68061921972329        2.11408542295013        0.86536205042033
C           -2.89822870364571        3.07700371112340        1.83766121539070
C           -2.72045149688226        2.19084941650997       -0.58694453854632
C           -2.98481102521171        3.25091921490554       -1.43923459299739
C           -2.95532873982259        3.02649135449015       -2.80666332951112
C           -2.66737449818641        1.76863751488624       -3.31597882827669
C           -2.40148734057026        0.70154652938287       -2.46778580382273
C           -2.42954852974061        0.92084905065936       -1.10748933245419
C           -2.17618111235206       -0.06607329597119        0.00765500441573
C           -3.09638107046338       -1.26284815366367       -0.02752022765572
C           -4.46689496310412       -1.28894313322745        0.01545275737098
C           -5.11486054357901       -2.52347375784309       -0.02494492042511
C           -4.38549472264128       -3.70882340503381       -0.10795342437697
C           -3.00840381453652       -3.69747896857189       -0.15302375230609
C           -2.34160646939756       -2.46374662962954       -0.11269578245855
C           -0.96314639050049       -2.13996665899332       -0.13979787554140
C            0.19957400401299       -2.93558749248473       -0.21127899290622
C            1.42352197965057       -2.34034585952041       -0.19682660369727
C            1.59696183570215       -0.91465795494751       -0.13185571763231
C            2.88173705967835       -0.32463150709579       -0.13649540648346
C            3.07867814968950        1.05679398819427       -0.41935153862426
C            4.31245294328979        1.62036365217623       -0.45414219073551
C            5.49545210462962        0.86325829043897       -0.18216698863958
C            6.76461086999522        1.42165726249814       -0.20265144156991
C            7.89085994723042        0.64727647264068        0.07497316624037
C            7.74875942769903       -0.70256592736041        0.37895215093585
C            6.50230240941886       -1.28533882972619        0.40579872408247
C            5.33578473514342       -0.52337060893197        0.12325010994119
C            4.06850986113765       -1.08693062585820        0.13820250787674
C            0.40151322272746       -0.12257162595426       -0.07109137697317
C           -0.81405995105264       -0.71909598341905       -0.06967195377189
H           -2.96543762765207        3.44675353165993        3.94196603789898
H           -2.40943900599338        1.14237488634882        4.57285922137058
H           -2.01844527266912       -0.57884701032630        2.83784533453910
H           -3.14347669479529        4.09282752911144        1.56465861582116
H           -3.20956430093656        4.23215153717930       -1.04788485035292
H           -3.15911406905588        3.84172316620399       -3.48610572268784
H           -2.65031253228076        1.61663790318966       -4.38549923895994
H           -2.17808770251790       -0.27816632946710       -2.86551771695052
H           -5.03664055481280       -0.37285587379831        0.08030895595279
H           -6.19343472119214       -2.56101392038433        0.00930750685573
H           -4.91425801266104       -4.65102698483351       -0.13755575921108
H           -2.44744802417946       -4.61779382895174       -0.21719552503971
H            0.11173656247441       -4.01004540083130       -0.28094753474864
H            2.29923935908223       -2.96363599136707       -0.28217439474101
H            2.22426645215176        1.67092105400451       -0.65915492916749
H            4.42609209087533        2.66689412325283       -0.70054472889264
H            6.87859196339715        2.47147633732079       -0.43443767610226
H            8.87179434046808        1.09817737289258        0.05483797791225
H            8.62522736475807       -1.29652115066948        0.59648526639061
H            6.39222494080191       -2.33430166782154        0.64039032325094
H            3.98259492528806       -2.12551515693123        0.41480245093160
H            0.46716413295926        0.95075745629512        0.01457421011274

          :  Hamiltonian                  GFN2-xTB          :
         :: gradient norm              0.000113317348 Eh/a0 ::
         :: HOMO-LUMO gap              0.723732004934 eV    ::
         :: SCC energy               -87.808367614917 Eh    ::
         :: -> dispersion             -0.079199201004 Eh    ::
         :: -> Gsolv                  -0.035044159389 Eh    ::
         :: repulsion energy           1.676981122294 Eh    ::

    * Orbital Energies and Occupations

         #    Occupation            Energy/Eh            Energy/eV
      -------------------------------------------------------------
         1        2.0000           -0.6626831             -18.0325
       ...           ...                  ...                  ...
        70        2.0000           -0.4203065             -11.4371
        71        2.0000           -0.4186366             -11.3917
        72        2.0000           -0.4143928             -11.2762
        73        2.0000           -0.4129844             -11.2379
        74        2.0000           -0.4061387             -11.0516
        75        2.0000           -0.4032602             -10.9733
        76        2.0000           -0.3993782             -10.8676
        77        2.0000           -0.3972568             -10.8099
        78        2.0000           -0.3944784             -10.7343
        79        2.0000           -0.3832053             -10.4275
        80        2.0000           -0.3797670             -10.3340
        81        1.0000           -0.3605654              -9.8115
        82        1.0000           -0.2793571              -7.6017 (HOMO)
        83        0.0000           -0.2527604              -6.8780 (LUMO)
        84        0.0000           -0.2522159              -6.8631
        85                         -0.2267513              -6.1702
        86                         -0.2261074              -6.1527
        87                         -0.2243209              -6.1041
        88                         -0.2221516              -6.0451
        89                         -0.2141023              -5.8260
        90                         -0.1956843              -5.3248
        91                         -0.1902914              -5.1781
        92                         -0.1815582              -4.9404
        93                         -0.1440084              -3.9187
       ...                                ...                  ...
       162                          0.7378735              20.0786
      -------------------------------------------------------------
                  HL-Gap            0.0265967 Eh            0.7237 eV

     #   Z          covCN         q      C6AA      α(0)
     1   6 C        2.921    -0.033    28.824     8.804
     2   6 C        2.922    -0.032    28.803     8.801
     3   6 C        2.913    -0.033    28.832     8.805
     4   6 C        3.055     0.005    27.862     8.657
     5   6 C        3.035     0.000    27.986     8.677
     6   6 C        2.914    -0.035    28.862     8.810
     7   6 C        3.035     0.000    27.985     8.677
     8   6 C        2.914    -0.035    28.863     8.810
     9   6 C        2.921    -0.033    28.824     8.804
    10   6 C        2.922    -0.032    28.805     8.801
    11   6 C        2.913    -0.033    28.833     8.805
    12   6 C        3.055     0.005    27.861     8.656
    13   6 C        3.973     0.009    20.356     6.410
    14   6 C        3.055     0.007    27.802     8.647
    15   6 C        2.910    -0.034    28.844     8.807
    16   6 C        2.921    -0.033    28.822     8.804
    17   6 C        2.916    -0.031    28.773     8.796
    18   6 C        2.911    -0.037    28.913     8.817
    19   6 C        3.029     0.003    27.936     8.670
    20   6 C        3.033    -0.002    28.042     8.686
    21   6 C        2.904    -0.035    28.872     8.810
    22   6 C        2.917    -0.037    28.914     8.818
    23   6 C        2.969     0.006    27.874     8.660
    24   6 C        2.964     0.008    27.838     8.654
    25   6 C        2.913    -0.034    28.858     8.809
    26   6 C        2.911    -0.038    28.949     8.823
    27   6 C        2.982     0.011    27.773     8.645
    28   6 C        2.916    -0.037    28.919     8.818
    29   6 C        2.915    -0.033    28.822     8.803
    30   6 C        2.911    -0.031    28.762     8.794
    31   6 C        2.918    -0.039    28.979     8.828
    32   6 C        2.975     0.012    27.735     8.639
    33   6 C        2.919    -0.046    29.132     8.851
    34   6 C        2.911    -0.041    29.028     8.835
    35   6 C        3.040     0.006    27.839     8.654
    36   1 H        0.926     0.033     2.541     2.493
    37   1 H        0.926     0.033     2.549     2.497
    38   1 H        0.926     0.027     2.628     2.535
    39   1 H        0.926     0.034     2.529     2.487
    40   1 H        0.926     0.034     2.529     2.487
    41   1 H        0.926     0.033     2.541     2.493
    42   1 H        0.926     0.033     2.548     2.496
    43   1 H        0.926     0.027     2.626     2.534
    44   1 H        0.926     0.027     2.633     2.537
    45   1 H        0.926     0.033     2.549     2.497
    46   1 H        0.926     0.033     2.543     2.494
    47   1 H        0.926     0.034     2.532     2.488
    48   1 H        0.926     0.034     2.531     2.488
    49   1 H        0.926     0.038     2.479     2.462
    50   1 H        0.926     0.032     2.552     2.498
    51   1 H        0.926     0.030     2.579     2.512
    52   1 H        0.926     0.031     2.579     2.511
    53   1 H        0.926     0.030     2.582     2.513
    54   1 H        0.926     0.030     2.583     2.513
    55   1 H        0.926     0.031     2.575     2.509
    56   1 H        0.926     0.035     2.513     2.479
    57   1 H        0.926     0.029     2.600     2.522

molecular dipole:
                 x           y           z       tot (Debye)
 q only:       -0.124      -0.027      -0.003
   full:       -0.137      -0.019      -0.003       0.352

 projected vibrational frequencies (cm⁻¹)
eigval :       -0.00    -0.00    -0.00     0.00     0.00     0.00
eigval :       16.76    23.60    29.66    41.28    46.41    55.45
eigval :       74.83    86.96   111.96   130.94   140.47   157.64
eigval :      167.42   181.44   204.33   217.23   225.99   246.00
eigval :      266.85   295.62   304.79   344.44   351.22   374.96
eigval :      388.09   407.59   410.71   413.92   433.21   440.54
eigval :      448.33   456.67   463.02   469.52   490.85   502.68
eigval :      519.57   529.58   541.20   544.70   576.94   578.77
eigval :      590.68   599.66   615.98   622.74   651.83   670.38
eigval :      689.12   693.05   697.44   706.66   726.13   732.63
eigval :      743.92   753.07   754.80   756.93   768.67   785.01
eigval :      786.04   794.90   807.66   835.07   839.58   842.30
eigval :      851.78   880.07   880.84   881.15   885.91   892.86
eigval :      895.67   903.37   908.38   909.19   911.74   913.09
eigval :      914.91   916.74   926.93   928.12   933.28   988.20
eigval :     1007.00  1018.13  1059.76  1068.45  1072.27  1074.22
eigval :     1077.66  1110.74  1127.81  1140.76  1142.13  1149.34
eigval :     1164.92  1168.25  1173.35  1176.57  1180.46  1188.38
eigval :     1195.13  1207.54  1217.08  1220.80  1223.94  1243.12
eigval :     1252.38  1258.28  1260.16  1272.81  1281.22  1284.45
eigval :     1301.67  1325.43  1330.63  1341.84  1355.33  1364.29
eigval :     1371.44  1379.61  1392.43  1420.81  1427.25  1428.11
eigval :     1437.15  1441.16  1446.50  1460.31  1469.39  1470.80
eigval :     1495.49  1504.62  1529.20  1545.37  1552.11  1575.75
eigval :     1582.88  1593.68  1599.44  1602.15  1610.92  3064.04
eigval :     3065.26  3067.32  3068.22  3069.18  3069.75  3071.56
eigval :     3071.78  3073.02  3073.91  3075.53  3079.15  3080.41
eigval :     3082.97  3086.32  3087.36  3088.17  3089.32  3090.36
eigval :     3094.75  3097.76  3105.69

   temp. (K)  partition function   enthalpy   heat capacity  entropy
                                   cal/mol     cal/K/mol   cal/K/mol   J/K/mol
 298.15  VIB  0.314E+11            14899.584    100.056     89.683
         ROT  0.301E+08              888.752      2.981     37.204
         INT  0.947E+18            15788.336    103.037    126.886
         TR   0.901E+28             1481.254      4.968     44.132
         TOT                       17269.5902   108.0047   171.0180   715.5395

       T/K    H(0)-H(T)+PV         H(T)/Eh          T*S/Eh         G(T)/Eh
   ------------------------------------------------------------------------
    298.15    0.275208E-01    0.464071E+00    0.812562E-01    0.382815E+00
   ------------------------------------------------------------------------

         :::::::::::::::::::::::::::::::::::::::::::::::::::::
         ::                  THERMODYNAMIC                  ::
         :::::::::::::::::::::::::::::::::::::::::::::::::::::
         :: total free energy         -85.748571793868 Eh   ::
         ::.................................................::
         :: total energy              -86.131386493135 Eh   ::
         :: zero point energy           0.436550046985 Eh   ::
         :: G(RRHO) w/o ZPVE           -0.053735347719 Eh   ::
         :: G(RRHO) contrib.            0.382814699267 Eh   ::
         :::::::::::::::::::::::::::::::::::::::::::::::::::::

           -------------------------------------------------
          | TOTAL ENERGY              -86.131386493135 Eh   |
          | TOTAL ENTHALPY            -85.667315602455 Eh   |
          | TOTAL FREE ENERGY         -85.748571793868 Eh   |
          | GRADIENT NORM               0.000113255070 Eh/α |
          | HOMO-LUMO GAP               0.723733726894 eV   |
           -------------------------------------------------

 * finished run on 2025/09/10 at 08:57:09.647
