   * xtb version 6.7.1 (edcfbbe) compiled by 'albert@albert-system' on 2024-07-22

   ID    Z sym.   atoms
    1    6 C      1-35
    2    1 H      36-57

          program call               : xtb data2507/toluene/2SBFN/2SBFN_toluene_S0_finalOpt.xtbopt.xyz --gfn 2 --uhf 2 --gbsa toluene --ohess vtight --parallel 40 --molden --ceasefiles --namespace data2507/toluene/2SBFN/2SBFN_toluene_T1_preOpt
      * Solvation model:               GBSA
        Solvent                        toluene
        Solvent mass                       9.2140E+01 g/mol
          :  Hamiltonian                  GFN2-xTB          :
 * total energy  :   -86.1190014 Eh     change       -0.3203482E-08 Eh
 * total energy  :   -86.1264839 Eh     change       -0.7482492E-02 Eh
 * total energy  :   -86.1287187 Eh     change       -0.2234770E-02 Eh
 * total energy  :   -86.1291501 Eh     change       -0.4314668E-03 Eh
 * total energy  :   -86.1295886 Eh     change       -0.4384564E-03 Eh
 * total energy  :   -86.1298430 Eh     change       -0.2544130E-03 Eh
 * total energy  :   -86.1300887 Eh     change       -0.2457258E-03 Eh
 * total energy  :   -86.1303005 Eh     change       -0.2117908E-03 Eh
 * total energy  :   -86.1304871 Eh     change       -0.1865833E-03 Eh
 * total energy  :   -86.1306622 Eh     change       -0.1750845E-03 Eh
 * total energy  :   -86.1313924 Eh     change       -0.5641928E-06 Eh
 * total energy  :   -86.1313926 Eh     change       -0.2064768E-06 Eh
 * total energy  :   -86.1313929 Eh     change       -0.2882079E-06 Eh
 * total energy  :   -86.1313931 Eh     change       -0.1739877E-06 Eh
 * total energy  :   -86.1313932 Eh     change       -0.1360140E-06 Eh
 * total energy  :   -86.1313934 Eh     change       -0.1629865E-06 Eh
 * total energy  :   -86.1313935 Eh     change       -0.1830229E-06 Eh
 * total energy  :   -86.1313937 Eh     change       -0.1487611E-06 Eh
 * total energy  :   -86.1313938 Eh     change       -0.9588322E-07 Eh
   *** GEOMETRY OPTIMIZATION CONVERGED AFTER 51 ITERATIONS ***

 final structure:
================
57
 xtb: 6.7.1 (edcfbbe)
C           -2.79175047795423        2.64722404188360        3.25349438858612
C           -2.48422987555156        1.33335758808304        3.57547560095609
C           -2.26562513352756        0.38963240769366        2.58034242516933
C           -2.36053540701807        0.78845061440531        1.26458188238218
C           -2.67062472568970        2.11603162731390        0.93323543973411
C           -2.88691728549672        3.05242820727637        1.93143886383796
C           -2.70474030630786        2.23357508599700       -0.51650871534933
C           -2.96096736176730        3.31836698107889       -1.33971631891338
C           -2.92602242711328        3.13253905324682       -2.71278703133144
C           -2.64043094949169        1.88844402022932       -3.25614299562537
C           -2.38331596258085        0.79668013455686       -2.43722876529437
C           -2.41756974389197        0.97728641504915       -1.07137285306574
C           -2.17549077673957       -0.04224327338233        0.01628970261566
C           -3.10781687050858       -1.22850445205101       -0.05070274387631
C           -4.47884505444399       -1.24085558080958       -0.01984272216417
C           -5.13921179501067       -2.46754415442661       -0.08872450992334
C           -4.42136113315946       -3.65879838943319       -0.18667254989319
C           -3.04391201249956       -3.66112565265980       -0.22038702693288
C           -2.36476968302724       -2.43530005854918       -0.15315758110048
C           -0.98303445045390       -2.12496079276446       -0.16876608086702
C            0.17166394872327       -2.93100212166238       -0.25246791249148
C            1.40146381204929       -2.34822958223055       -0.23004105890634
C            1.58887570951781       -0.92542844202142       -0.14490804519868
C            2.87939155224206       -0.34797302802920       -0.14836230828518
C            3.08858319448976        1.03441490042530       -0.41713141368095
C            4.32787135986967        1.58575248541469       -0.45335274974960
C            5.50467124769933        0.81373457207273       -0.19661880218324
C            6.77939554208582        1.35926045944281       -0.21891244962211
C            7.89921227189735        0.57042367200612        0.04374801072808
C            7.74508658095499       -0.78100565602229        0.33447675347303
C            6.49286479320724       -1.35125433805728        0.36256129135157
C            5.33264842866481       -0.57438749722957        0.09498892462680
C            4.05981030198526       -1.12519390127828        0.11131905875534
C            0.40154536847702       -0.12264332071382       -0.06749839923146
C           -0.81994858049506       -0.70703434268181       -0.07360890740618
H           -2.95880912609310        3.36357416627207        4.04512726469031
H           -2.41496306784053        1.04007810999643        4.61297764213969
H           -2.02684767527726       -0.63386472409573        2.83193493760506
H           -3.12670861830923        4.07661333720279        1.68624465071876
H           -3.18375452006108        4.28908910110717       -0.92188226061961
H           -3.12381734061645        3.96717363772272       -3.37004301459721
H           -2.61815997743655        1.76674241151891       -4.32943384842104
H           -2.16138460558518       -0.17207720601716       -2.86157268218247
H           -5.03948940921528       -0.32012710159411        0.05731970019415
H           -6.21839274748698       -2.49449955010412       -0.06477138130317
H           -4.95954578536160       -4.59473497435807       -0.23741135909112
H           -2.49201375182979       -4.58596966434541       -0.29683092565882
H            0.07304848255934       -4.00331237517423       -0.33874920201762
H            2.27089841496152       -2.97872893506134       -0.32595138822991
H            2.23892995723047        1.65952577856868       -0.64529133231733
H            4.45083289943095        2.63359805263437       -0.68948729415476
H            6.90298509295879        2.41023657973026       -0.44035968493743
H            8.88458062926837        1.01146775910251        0.02247996461153
H            8.61666558086935       -1.38608692976074        0.54073614440291
H            6.37328427268992       -2.40144127299609        0.58681975944119
H            3.96482196409272       -2.16578728872205        0.37722397086371
H            0.47840171040252        0.94838666727946        0.03607411176422

          :  Hamiltonian                  GFN2-xTB          :
         :: gradient norm              0.000074360767 Eh/a0 ::
         :: HOMO-LUMO gap              0.723047152261 eV    ::
         :: SCC energy               -87.808311153412 Eh    ::
         :: -> dispersion             -0.079199653286 Eh    ::
         :: -> Gsolv                  -0.035051981177 Eh    ::
         :: repulsion energy           1.676917363078 Eh    ::

    * Orbital Energies and Occupations

         #    Occupation            Energy/Eh            Energy/eV
      -------------------------------------------------------------
         1        2.0000           -0.6626751             -18.0323
       ...           ...                  ...                  ...
        70        2.0000           -0.4203025             -11.4370
        71        2.0000           -0.4186240             -11.3913
        72        2.0000           -0.4144049             -11.2765
        73        2.0000           -0.4129827             -11.2378
        74        2.0000           -0.4061498             -11.0519
        75        2.0000           -0.4032568             -10.9732
        76        2.0000           -0.3993749             -10.8675
        77        2.0000           -0.3972589             -10.8100
        78        2.0000           -0.3944885             -10.7346
        79        2.0000           -0.3832010             -10.4274
        80        2.0000           -0.3797635             -10.3339
        81        1.0000           -0.3605680              -9.8116
        82        1.0000           -0.2793370              -7.6011 (HOMO)
        83        0.0000           -0.2527655              -6.8781 (LUMO)
        84        0.0000           -0.2522204              -6.8633
        85                         -0.2267849              -6.1711
        86                         -0.2260896              -6.1522
        87                         -0.2243302              -6.1043
        88                         -0.2221161              -6.0441
        89                         -0.2141206              -5.8265
        90                         -0.1956851              -5.3249
        91                         -0.1902924              -5.1781
        92                         -0.1815714              -4.9408
        93                         -0.1440177              -3.9189
       ...                                ...                  ...
       162                          0.7378308              20.0774
      -------------------------------------------------------------
                  HL-Gap            0.0265715 Eh            0.7230 eV

     #   Z          covCN         q      C6AA      α(0)
     1   6 C        2.921    -0.033    28.824     8.804
     2   6 C        2.922    -0.032    28.804     8.801
     3   6 C        2.913    -0.033    28.833     8.805
     4   6 C        3.055     0.005    27.860     8.656
     5   6 C        3.035     0.000    27.986     8.677
     6   6 C        2.914    -0.035    28.862     8.810
     7   6 C        3.035     0.000    27.985     8.677
     8   6 C        2.914    -0.035    28.863     8.810
     9   6 C        2.921    -0.033    28.824     8.804
    10   6 C        2.922    -0.032    28.805     8.801
    11   6 C        2.913    -0.033    28.833     8.805
    12   6 C        3.055     0.005    27.862     8.657
    13   6 C        3.973     0.009    20.356     6.410
    14   6 C        3.055     0.007    27.801     8.647
    15   6 C        2.910    -0.034    28.845     8.807
    16   6 C        2.921    -0.033    28.822     8.804
    17   6 C        2.916    -0.031    28.773     8.796
    18   6 C        2.911    -0.037    28.913     8.817
    19   6 C        3.029     0.003    27.936     8.670
    20   6 C        3.033    -0.002    28.042     8.686
    21   6 C        2.904    -0.035    28.872     8.810
    22   6 C        2.917    -0.037    28.913     8.818
    23   6 C        2.969     0.006    27.874     8.660
    24   6 C        2.965     0.008    27.838     8.654
    25   6 C        2.913    -0.034    28.857     8.809
    26   6 C        2.911    -0.038    28.949     8.823
    27   6 C        2.982     0.011    27.773     8.645
    28   6 C        2.916    -0.037    28.920     8.818
    29   6 C        2.915    -0.033    28.822     8.803
    30   6 C        2.911    -0.031    28.762     8.794
    31   6 C        2.918    -0.039    28.979     8.828
    32   6 C        2.975     0.012    27.735     8.639
    33   6 C        2.919    -0.046    29.132     8.851
    34   6 C        2.911    -0.041    29.028     8.835
    35   6 C        3.040     0.006    27.839     8.654
    36   1 H        0.926     0.033     2.541     2.493
    37   1 H        0.926     0.033     2.549     2.496
    38   1 H        0.926     0.027     2.628     2.535
    39   1 H        0.926     0.034     2.529     2.487
    40   1 H        0.926     0.034     2.529     2.487
    41   1 H        0.926     0.033     2.541     2.493
    42   1 H        0.926     0.033     2.548     2.496
    43   1 H        0.926     0.027     2.626     2.534
    44   1 H        0.926     0.027     2.633     2.538
    45   1 H        0.926     0.033     2.549     2.497
    46   1 H        0.926     0.033     2.543     2.494
    47   1 H        0.926     0.034     2.532     2.488
    48   1 H        0.926     0.034     2.531     2.488
    49   1 H        0.926     0.038     2.478     2.462
    50   1 H        0.926     0.032     2.552     2.498
    51   1 H        0.926     0.030     2.579     2.512
    52   1 H        0.926     0.031     2.579     2.511
    53   1 H        0.926     0.030     2.582     2.513
    54   1 H        0.926     0.030     2.583     2.513
    55   1 H        0.926     0.031     2.575     2.509
    56   1 H        0.926     0.035     2.513     2.479
    57   1 H        0.926     0.029     2.600     2.522

molecular dipole:
                 x           y           z       tot (Debye)
 q only:       -0.125      -0.026      -0.002
   full:       -0.138      -0.018      -0.003       0.354

 projected vibrational frequencies (cm⁻¹)
eigval :       -0.00    -0.00    -0.00     0.00     0.00     0.00
eigval :       17.95    24.85    30.06    41.95    50.39    56.13
eigval :       75.58    87.73   112.40   131.95   141.05   158.85
eigval :      167.61   181.44   204.85   217.99   227.35   246.07
eigval :      267.12   296.55   304.77   344.41   351.23   376.12
eigval :      389.11   406.86   411.87   414.05   433.24   440.46
eigval :      448.88   457.29   463.11   469.83   490.87   502.64
eigval :      519.77   530.44   541.42   544.67   576.95   578.99
eigval :      590.59   599.75   616.83   622.73   651.87   671.50
eigval :      689.30   693.59   697.28   706.63   725.27   732.95
eigval :      743.85   752.94   754.44   756.21   768.54   784.84
eigval :      785.84   794.61   807.98   836.14   839.11   842.45
eigval :      852.14   880.59   880.73   881.34   886.00   892.81
eigval :      895.08   903.80   908.38   909.39   911.70   912.65
eigval :      914.63   915.04   926.63   927.67   933.37   988.07
eigval :     1007.06  1018.13  1059.55  1068.14  1073.05  1074.58
eigval :     1078.05  1110.79  1127.94  1140.66  1142.05  1148.95
eigval :     1164.89  1168.22  1173.58  1175.47  1178.79  1188.54
eigval :     1195.09  1207.42  1217.17  1220.66  1223.97  1243.11
eigval :     1252.30  1258.01  1260.03  1272.43  1281.30  1283.53
eigval :     1301.80  1325.34  1330.82  1342.02  1355.38  1363.81
eigval :     1371.48  1379.57  1392.36  1420.82  1426.75  1428.04
eigval :     1437.14  1441.17  1446.55  1460.17  1468.90  1470.85
eigval :     1495.56  1504.69  1529.11  1545.48  1551.97  1575.73
eigval :     1582.65  1593.42  1599.46  1602.12  1610.86  3064.20
eigval :     3065.37  3067.39  3068.71  3069.26  3069.79  3071.56
eigval :     3072.54  3073.17  3073.86  3075.60  3079.70  3080.96
eigval :     3083.03  3086.62  3087.56  3087.98  3089.53  3090.32
eigval :     3094.07  3097.25  3105.52

   temp. (K)  partition function   enthalpy   heat capacity  entropy
                                   cal/mol     cal/K/mol   cal/K/mol   J/K/mol
 298.15  VIB  0.240E+11            14876.344    100.170     89.444
         ROT  0.301E+08              888.752      2.981     37.205
         INT  0.723E+18            15765.097    103.151    126.648
         TR   0.901E+28             1481.254      4.968     44.132
         TOT                       17246.3505   108.1189   170.7800   714.5435

       T/K    H(0)-H(T)+PV         H(T)/Eh          T*S/Eh         G(T)/Eh
   ------------------------------------------------------------------------
    298.15    0.274838E-01    0.464075E+00    0.811431E-01    0.382932E+00
   ------------------------------------------------------------------------

         :::::::::::::::::::::::::::::::::::::::::::::::::::::
         ::                  THERMODYNAMIC                  ::
         :::::::::::::::::::::::::::::::::::::::::::::::::::::
         :: total free energy         -85.748461412689 Eh   ::
         ::.................................................::
         :: total energy              -86.131393790069 Eh   ::
         :: zero point energy           0.436591657660 Eh   ::
         :: G(RRHO) w/o ZPVE           -0.053659280280 Eh   ::
         :: G(RRHO) contrib.            0.382932377380 Eh   ::
         :::::::::::::::::::::::::::::::::::::::::::::::::::::

           -------------------------------------------------
          | TOTAL ENERGY              -86.131393790069 Eh   |
          | TOTAL ENTHALPY            -85.667318323468 Eh   |
          | TOTAL FREE ENERGY         -85.748461412689 Eh   |
          | GRADIENT NORM               0.000074501244 Eh/α |
          | HOMO-LUMO GAP               0.723046776870 eV   |
           -------------------------------------------------

 * finished run on 2025/09/10 at 08:54:48.494
