   * xtb version 6.7.1 (edcfbbe) compiled by 'albert@albert-system' on 2024-07-22

   ID    Z sym.   atoms
    1    6 C      1-35
    2    1 H      36-57

          program call               : xtb data2507/toluene/2SBFN/2SBFN_toluene_S0_crest.xyz --gfn 2 --gbsa toluene --ohess vtight --parallel 40 --molden --ceasefiles --namespace data2507/toluene/2SBFN/2SBFN_toluene_S0_finalOpt
      * Solvation model:               GBSA
        Solvent                        toluene
        Solvent mass                       9.2140E+01 g/mol
          :  Hamiltonian                  GFN2-xTB          :
 * total energy  :   -86.2245567 Eh     change       -0.1521286E-08 Eh
 * total energy  :   -86.2245757 Eh     change       -0.1899323E-04 Eh
 * total energy  :   -86.2245782 Eh     change       -0.2506742E-05 Eh
 * total energy  :   -86.2245794 Eh     change       -0.1266776E-05 Eh
 * total energy  :   -86.2245792 Eh     change        0.1812374E-06 Eh
 * total energy  :   -86.2245803 Eh     change       -0.1081401E-05 Eh
 * total energy  :   -86.2245809 Eh     change       -0.6241814E-06 Eh
 * total energy  :   -86.2245813 Eh     change       -0.3996483E-06 Eh
 * total energy  :   -86.2245817 Eh     change       -0.3108582E-06 Eh
 * total energy  :   -86.2245819 Eh     change       -0.2088951E-06 Eh
 * total energy  :   -86.2245820 Eh     change       -0.1332706E-06 Eh
 * total energy  :   -86.2245821 Eh     change       -0.1274554E-06 Eh
 * total energy  :   -86.2245823 Eh     change       -0.1241045E-06 Eh
 * total energy  :   -86.2245823 Eh     change       -0.9501169E-07 Eh
   *** GEOMETRY OPTIMIZATION CONVERGED AFTER 14 ITERATIONS ***

 final structure:
================
57
 xtb: 6.7.1 (edcfbbe)
C           -2.65449218808270        2.57256008968408        3.32429247050741
C           -2.36148776032937        1.24765179501100        3.61198178446375
C           -2.17860055306553        0.32199184655522        2.59282163913501
C           -2.29441739585131        0.75024137856587        1.28814727088664
C           -2.58950210669561        2.08909959157468        0.99126678947062
C           -2.76992643598330        3.00719655595360        2.01316652510915
C           -2.65319106483292        2.23765941133135       -0.45478820720267
C           -2.90811376763494        3.34358654761966       -1.24962829389545
C           -2.90627384193103        3.18622070513406       -2.62675789068111
C           -2.65399073723365        1.94938103062979       -3.20174599482670
C           -2.39820547665751        0.83636210200635       -2.41122450302270
C           -2.40018674295364        0.98886116755798       -1.04164788042618
C           -2.15332723766561       -0.05730650875700        0.01930589903645
C           -3.10877631517284       -1.22570764115253       -0.04875378681120
C           -4.48484726031933       -1.21100754978877        0.01860118529087
C           -5.16463022156439       -2.41986571056416       -0.05851107852691
C           -4.47462424271678       -3.61492961160947       -0.19958640053417
C           -3.09059159246920       -3.63361535662386       -0.26973401529761
C           -2.40573605154218       -2.43125417799390       -0.19395052475298
C           -0.98408670257260       -2.13260653259284       -0.23840483518033
C            0.12421171739459       -2.95317306464919       -0.37657079441492
C            1.38205555812673       -2.37765301026506       -0.39363442644812
C            1.55650354370232       -0.99718140112621       -0.27835897116532
C            2.90552158920833       -0.41368002330697       -0.31354938836061
C            3.13781965268494        0.78444202245836       -1.02637334002608
C            4.38375357651187        1.33813530208634       -1.08178726976757
C            5.47726047060361        0.73487641421271       -0.42414000511203
C            6.77687595562483        1.28038465660601       -0.46230469395470
C            7.81169149291666        0.66581806487429        0.18668651187475
C            7.59326181982051       -0.52220204836138        0.90308141714394
C            6.34472351393388       -1.07547395497813        0.95920663637757
C            5.25541047534692       -0.46683338912406        0.29890544988998
C            3.95915635284274       -1.01606160972571        0.33386507541988
C            0.43558359405535       -0.17424105599187       -0.13692123674928
C           -0.81531721092991       -0.74513645488575       -0.11681186481949
H           -2.79415176573786        3.27453634479821        4.13391087595722
H           -2.27571862600481        0.93101533663647        4.64136603324667
H           -1.95179285094911       -0.71032724013690        2.81799569847266
H           -2.99860917836380        4.03989925207681        1.79452402798778
H           -3.10483940808986        4.30893688802793       -0.80699610988923
H           -3.10366460862813        4.03795352332582       -3.26186756838140
H           -2.65704819467470        1.84971692503572       -4.27754723993092
H           -2.20242001388286       -0.12692768302532       -2.86025791064643
H           -5.02314112596117       -0.28053032990528        0.12945368087684
H           -6.24377988477663       -2.42880170355041       -0.00718639805431
H           -5.02473402609524       -4.54334523809485       -0.25607225661632
H           -2.55812881203198       -4.56678831953223       -0.38029491061332
H            0.01142805275047       -4.02283230011934       -0.47510579631365
H            2.25123926398298       -3.00629872041146       -0.52265559913423
H            2.31428229719365        1.24863450679472       -1.54995400544187
H            4.55168633689430        2.25054292485526       -1.63711753478482
H            6.94014561909523        2.19492861948443       -1.01540882961840
H            8.80538293344960        1.08905478651785        0.15307484665339
H            8.42254511775521       -0.99465997360960        1.40999496350051
H            6.17255740780966       -1.99000104297025        1.50956906833099
H            3.79947401722569       -1.92148408571292        0.90249429548975
H            0.55230099267053        0.89422932215093       -0.02585349232034

          :  Hamiltonian                  GFN2-xTB          :
         :: gradient norm              0.000034637845 Eh/a0 ::
         :: HOMO-LUMO gap              2.865414017011 eV    ::
         :: SCC energy               -87.921156768989 Eh    ::
         :: -> dispersion             -0.079251180944 Eh    ::
         :: -> Gsolv                  -0.035033420382 Eh    ::
         :: repulsion energy           1.696574420468 Eh    ::

    * Orbital Energies and Occupations

         #    Occupation            Energy/Eh            Energy/eV
      -------------------------------------------------------------
         1        2.0000           -0.6625643             -18.0293
       ...           ...                  ...                  ...
        69        2.0000           -0.4214706             -11.4688
        70        2.0000           -0.4204929             -11.4422
        71        2.0000           -0.4146538             -11.2833
        72        2.0000           -0.4139709             -11.2647
        73        2.0000           -0.4113646             -11.1938
        74        2.0000           -0.4106937             -11.1755
        75        2.0000           -0.4016342             -10.9290
        76        2.0000           -0.3985646             -10.8455
        77        2.0000           -0.3952623             -10.7556
        78        2.0000           -0.3946560             -10.7391
        79        2.0000           -0.3835572             -10.4371
        80        2.0000           -0.3797589             -10.3338
        81        2.0000           -0.3704558             -10.0806 (HOMO)
        82                         -0.2651538              -7.2152 (LUMO)
        83                         -0.2524660              -6.8699
        84                         -0.2505245              -6.8171
        85                         -0.2268686              -6.1734
        86                         -0.2258475              -6.1456
        87                         -0.2256046              -6.1390
        88                         -0.2244618              -6.1079
        89                         -0.2163598              -5.8874
        90                         -0.1932548              -5.2587
        91                         -0.1900062              -5.1703
        92                         -0.1822205              -4.9585
       ...                                ...                  ...
       162                          0.7327062              19.9380
      -------------------------------------------------------------
                  HL-Gap            0.1053020 Eh            2.8654 eV

     #   Z          covCN         q      C6AA      α(0)
     1   6 C        2.921    -0.033    28.831     8.805
     2   6 C        2.923    -0.032    28.809     8.802
     3   6 C        2.913    -0.034    28.837     8.806
     4   6 C        3.055     0.006    27.842     8.653
     5   6 C        3.035     0.000    27.992     8.678
     6   6 C        2.914    -0.035    28.864     8.810
     7   6 C        3.035     0.000    27.989     8.678
     8   6 C        2.914    -0.035    28.864     8.810
     9   6 C        2.921    -0.033    28.831     8.805
    10   6 C        2.922    -0.033    28.812     8.803
    11   6 C        2.913    -0.034    28.838     8.806
    12   6 C        3.055     0.006    27.844     8.654
    13   6 C        3.978     0.009    20.345     6.409
    14   6 C        3.056     0.006    27.844     8.654
    15   6 C        2.913    -0.034    28.839     8.806
    16   6 C        2.922    -0.033    28.814     8.803
    17   6 C        2.921    -0.033    28.831     8.805
    18   6 C        2.914    -0.035    28.870     8.811
    19   6 C        3.035     0.001    27.982     8.676
    20   6 C        3.036    -0.002    28.037     8.685
    21   6 C        2.913    -0.035    28.880     8.812
    22   6 C        2.926    -0.038    28.951     8.824
    23   6 C        2.979     0.007    27.854     8.657
    24   6 C        2.973     0.009    27.825     8.652
    25   6 C        2.920    -0.035    28.866     8.810
    26   6 C        2.916    -0.037    28.921     8.819
    27   6 C        2.987     0.010    27.789     8.647
    28   6 C        2.918    -0.036    28.897     8.815
    29   6 C        2.916    -0.032    28.790     8.799
    30   6 C        2.915    -0.031    28.782     8.797
    31   6 C        2.918    -0.036    28.907     8.817
    32   6 C        2.985     0.011    27.765     8.644
    33   6 C        2.924    -0.042    29.043     8.838
    34   6 C        2.918    -0.038    28.945     8.822
    35   6 C        3.052     0.005    27.859     8.656
    36   1 H        0.926     0.033     2.546     2.495
    37   1 H        0.926     0.032     2.553     2.499
    38   1 H        0.926     0.027     2.629     2.536
    39   1 H        0.926     0.034     2.534     2.489
    40   1 H        0.926     0.034     2.535     2.490
    41   1 H        0.926     0.033     2.547     2.496
    42   1 H        0.926     0.032     2.554     2.499
    43   1 H        0.926     0.027     2.630     2.536
    44   1 H        0.926     0.027     2.634     2.538
    45   1 H        0.926     0.032     2.555     2.500
    46   1 H        0.926     0.033     2.548     2.496
    47   1 H        0.926     0.034     2.534     2.489
    48   1 H        0.926     0.034     2.526     2.485
    49   1 H        0.926     0.035     2.519     2.482
    50   1 H        0.926     0.032     2.560     2.502
    51   1 H        0.925     0.032     2.555     2.499
    52   1 H        0.926     0.032     2.565     2.504
    53   1 H        0.926     0.031     2.579     2.511
    54   1 H        0.926     0.031     2.577     2.510
    55   1 H        0.926     0.032     2.562     2.503
    56   1 H        0.926     0.034     2.534     2.489
    57   1 H        0.926     0.029     2.604     2.523

molecular dipole:
                 x           y           z       tot (Debye)
 q only:        0.019       0.002      -0.002
   full:        0.003       0.008      -0.001       0.021

 projected vibrational frequencies (cm⁻¹)
eigval :       -0.00    -0.00     0.00     0.00     0.00     0.00
eigval :       19.74    27.60    34.63    45.01    50.49    55.22
eigval :       80.49    88.52   123.37   130.28   144.30   160.15
eigval :      175.21   183.49   209.31   234.80   240.39   249.54
eigval :      283.67   310.80   329.51   347.59   369.97   387.69
eigval :      395.19   414.06   415.73   428.22   441.72   450.30
eigval :      454.02   472.70   482.99   498.73   500.18   506.64
eigval :      526.35   538.52   549.55   570.36   588.95   592.47
eigval :      604.19   610.01   631.24   647.74   656.00   688.73
eigval :      689.70   706.75   711.45   726.49   739.83   753.19
eigval :      756.03   761.71   769.70   774.58   786.11   801.13
eigval :      822.64   839.88   851.39   872.87   876.95   879.41
eigval :      881.42   881.47   884.29   896.29   899.33   910.96
eigval :      911.41   912.21   914.02   916.48   923.90   926.27
eigval :      927.16   927.88   928.13   930.75   970.73  1007.67
eigval :     1010.35  1072.33  1073.14  1076.09  1077.04  1078.38
eigval :     1082.72  1133.29  1142.38  1143.58  1154.22  1166.60
eigval :     1175.14  1176.04  1177.02  1177.83  1180.63  1193.72
eigval :     1207.93  1209.69  1223.31  1226.23  1233.25  1246.35
eigval :     1259.22  1260.02  1260.33  1276.65  1283.72  1298.93
eigval :     1321.42  1324.95  1331.85  1360.09  1364.59  1369.83
eigval :     1398.23  1418.38  1426.46  1427.61  1430.12  1433.25
eigval :     1444.50  1459.69  1460.53  1470.19  1480.24  1502.25
eigval :     1560.35  1572.74  1583.70  1591.21  1593.71  1594.85
eigval :     1600.12  1602.46  1602.94  1607.20  1609.66  3062.60
eigval :     3063.50  3065.34  3068.13  3068.36  3069.10  3070.41
eigval :     3071.67  3072.15  3072.93  3073.77  3074.00  3076.35
eigval :     3078.99  3079.44  3079.71  3080.79  3084.87  3085.62
eigval :     3087.45  3088.29  3089.63

   temp. (K)  partition function   enthalpy   heat capacity  entropy
                                   cal/mol     cal/K/mol   cal/K/mol   J/K/mol
 298.15  VIB  0.933E+10            14476.873     98.142     86.886
         ROT  0.298E+08              888.752      2.981     37.181
         INT  0.278E+18            15365.626    101.123    124.067
         TR   0.901E+28             1481.254      4.968     44.132
         TOT                       16846.8798   106.0908   168.1988   703.7439

       T/K    H(0)-H(T)+PV         H(T)/Eh          T*S/Eh         G(T)/Eh
   ------------------------------------------------------------------------
    298.15    0.268472E-01    0.467670E+00    0.799167E-01    0.387753E+00
   ------------------------------------------------------------------------

         :::::::::::::::::::::::::::::::::::::::::::::::::::::
         ::                  THERMODYNAMIC                  ::
         :::::::::::::::::::::::::::::::::::::::::::::::::::::
         :: total free energy         -85.836828899762 Eh   ::
         ::.................................................::
         :: total energy              -86.224582346863 Eh   ::
         :: zero point energy           0.440822927820 Eh   ::
         :: G(RRHO) w/o ZPVE           -0.053069480719 Eh   ::
         :: G(RRHO) contrib.            0.387753447101 Eh   ::
         :::::::::::::::::::::::::::::::::::::::::::::::::::::

           -------------------------------------------------
          | TOTAL ENERGY              -86.224582346863 Eh   |
          | TOTAL ENTHALPY            -85.756912207263 Eh   |
          | TOTAL FREE ENERGY         -85.836828899762 Eh   |
          | GRADIENT NORM               0.000034640235 Eh/α |
          | HOMO-LUMO GAP               2.865414078455 eV   |
           -------------------------------------------------

 * finished run on 2025/09/10 at 08:54:44.201
