   * xtb version 6.7.1 (edcfbbe) compiled by 'albert@albert-system' on 2024-07-22

   ID    Z sym.   atoms
    1    6 C      1-35
    2    1 H      36-57

          program call               : xtb data2507/toluene/2SBFN/2SBFN.xyz --gfn 2 --gbsa toluene --ohess vtight --parallel 40 --molden --ceasefiles --namespace data2507/toluene/2SBFN/2SBFN_toluene_S0_preOpt
      * Solvation model:               GBSA
        Solvent                        toluene
        Solvent mass                       9.2140E+01 g/mol
          :  Hamiltonian                  GFN2-xTB          :
 * total energy  :   -86.2153690 Eh     change       -0.1324494E-08 Eh
 * total energy  :   -86.2224958 Eh     change       -0.7126861E-02 Eh
 * total energy  :   -86.2237714 Eh     change       -0.1275542E-02 Eh
 * total energy  :   -86.2239888 Eh     change       -0.2174788E-03 Eh
 * total energy  :   -86.2241061 Eh     change       -0.1172176E-03 Eh
 * total energy  :   -86.2241432 Eh     change       -0.3716527E-04 Eh
 * total energy  :   -86.2242107 Eh     change       -0.6748320E-04 Eh
 * total energy  :   -86.2242452 Eh     change       -0.3452675E-04 Eh
 * total energy  :   -86.2242997 Eh     change       -0.5443557E-04 Eh
 * total energy  :   -86.2243641 Eh     change       -0.6444701E-04 Eh
 * total energy  :   -86.2245330 Eh     change       -0.4913249E-06 Eh
 * total energy  :   -86.2245334 Eh     change       -0.3498863E-06 Eh
 * total energy  :   -86.2245336 Eh     change       -0.2619528E-06 Eh
 * total energy  :   -86.2245339 Eh     change       -0.2715920E-06 Eh
 * total energy  :   -86.2245341 Eh     change       -0.2610416E-06 Eh
 * total energy  :   -86.2245344 Eh     change       -0.2284303E-06 Eh
 * total energy  :   -86.2245346 Eh     change       -0.1819878E-06 Eh
 * total energy  :   -86.2245347 Eh     change       -0.1443240E-06 Eh
 * total energy  :   -86.2245348 Eh     change       -0.9257072E-07 Eh
   *** GEOMETRY OPTIMIZATION CONVERGED AFTER 40 ITERATIONS ***

 final structure:
================
57
 xtb: 6.7.1 (edcfbbe)
C           -2.01375059948277        3.60419342418125        2.31219216794961
C           -1.92921510645402        2.40528837881587        3.00474390057597
C           -1.96327364531281        1.19091466500328        2.33141700571343
C           -2.08343170726974        1.20398469678558        0.95866572207021
C           -2.16881055947332        2.41356058065149        0.25319055388018
C           -2.13402427770705        3.62128133407837        0.93135247144190
C           -2.28350244993730        2.11248271073285       -1.16571408753221
C           -2.39423391046198        2.94218559262313       -2.26988654980152
C           -2.48560410355688        2.36569820334529       -3.52706626747129
C           -2.46626433403482        0.98742288504981       -3.68150867600416
C           -2.35638053779359        0.14966113072128       -2.57915871542281
C           -2.26683860843435        0.71923327117453       -1.32761260787888
C           -2.14061114029029        0.02963803283531        0.01042854900811
C           -3.27277558449600       -0.92715597157786        0.30294217905765
C           -4.62405521658981       -0.66366650490088        0.35921614113092
C           -5.49138672810225       -1.70962716438021        0.64769608888283
C           -5.00937512135655       -2.99027188166187        0.87493067261979
C           -3.65100040712525       -3.25945390263221        0.81895745717770
C           -2.77976900448287       -2.22084868161320        0.53158471878161
C           -1.33197992112107       -2.19072715364751        0.40761953265220
C           -0.37747067199896       -3.18732124179842        0.53478512106554
C            0.95536978382440       -2.86082823103066        0.35842684552189
C            1.35475534690914       -1.55604155176711        0.06430334657114
C            2.78073115271116       -1.23374778117846       -0.09272497617196
C            3.63320528615984       -2.10815011570188       -0.80355365678295
C            4.96139749080556       -1.83015537477424       -0.94734333269444
C            5.52514201205442       -0.66581831817559       -0.38278484487426
C            6.89535272681338       -0.35540290726002       -0.50285766848582
C            7.40592295705688        0.78083738057753        0.06101675394961
C            6.56858336734981        1.65933933709550        0.76772584663683
C            5.23573279441594        1.38715129655756        0.90001146035755
C            4.67747449331213        0.22179496863435        0.33141052324848
C            3.30933301063746       -0.08839472719681        0.45542823797921
C            0.38838540045728       -0.55461558706156       -0.06385618485553
C           -0.93718006694326       -0.87876588191067        0.10539622728357
H           -1.98539023682179        4.53682703311121        2.85734134934146
H           -1.83568427568066        2.41557093025498        4.08111693598889
H           -1.89759757486580        0.25736053020785        2.87180942828666
H           -2.19885558489330        4.55741203046460        0.39654715293723
H           -2.40853910230442        4.01603171645137       -2.15522568351275
H           -2.57248572441445        2.99772811091851       -4.39928051215627
H           -2.53801185680448        0.55969131911324       -4.67100063813405
H           -2.34197908587046       -0.92404887000746       -2.70052259954785
H           -5.00097739829228        0.33369619459953        0.18296948074363
H           -6.55436000446946       -1.52257930036833        0.69619245895783
H           -5.70302885203712       -3.78832911503266        1.09799248338028
H           -3.28045579826549       -4.25826950878034        0.99664722325863
H           -0.66513603330925       -4.20131685825283        0.77072264773244
H            1.70855834026048       -3.62686144970886        0.47434573200592
H            3.21284300969983       -2.99612364955557       -1.25320909425691
H            5.60389310723784       -2.50254920042563       -1.49891073410757
H            7.53590288708128       -1.03420389752102       -1.04857859077650
H            8.45728083055484        1.01216242722051       -0.03296625152989
H            6.98892819378952        2.55300954629380        1.20647219668663
H            4.58743683338501        2.06114931363314        1.44266590743316
H            2.67598170340214        0.58444185328856        1.01703215345736
H            0.68122550253722        0.45552893350264       -0.31153600176856

          :  Hamiltonian                  GFN2-xTB          :
         :: gradient norm              0.000036322081 Eh/a0 ::
         :: HOMO-LUMO gap              2.875981743934 eV    ::
         :: SCC energy               -87.921149701726 Eh    ::
         :: -> dispersion             -0.079185066652 Eh    ::
         :: -> Gsolv                  -0.035040763491 Eh    ::
         :: repulsion energy           1.696614907609 Eh    ::

    * Orbital Energies and Occupations

         #    Occupation            Energy/Eh            Energy/eV
      -------------------------------------------------------------
         1        2.0000           -0.6625333             -18.0284
       ...           ...                  ...                  ...
        69        2.0000           -0.4214021             -11.4669
        70        2.0000           -0.4204548             -11.4412
        71        2.0000           -0.4146472             -11.2831
        72        2.0000           -0.4132280             -11.2445
        73        2.0000           -0.4115019             -11.1975
        74        2.0000           -0.4111226             -11.1872
        75        2.0000           -0.4015646             -10.9271
        76        2.0000           -0.3985134             -10.8441
        77        2.0000           -0.3952645             -10.7557
        78        2.0000           -0.3946752             -10.7397
        79        2.0000           -0.3835442             -10.4368
        80        2.0000           -0.3797509             -10.3335
        81        2.0000           -0.3705419             -10.0830 (HOMO)
        82                         -0.2648515              -7.2070 (LUMO)
        83                         -0.2524605              -6.8698
        84                         -0.2506255              -6.8199
        85                         -0.2268312              -6.1724
        86                         -0.2258578              -6.1459
        87                         -0.2255935              -6.1387
        88                         -0.2245319              -6.1098
        89                         -0.2163592              -5.8874
        90                         -0.1930918              -5.2543
        91                         -0.1900009              -5.1702
        92                         -0.1824499              -4.9647
       ...                                ...                  ...
       162                          0.7314516              19.9038
      -------------------------------------------------------------
                  HL-Gap            0.1056904 Eh            2.8760 eV

     #   Z          covCN         q      C6AA      α(0)
     1   6 C        2.921    -0.033    28.832     8.805
     2   6 C        2.922    -0.033    28.813     8.803
     3   6 C        2.913    -0.034    28.839     8.806
     4   6 C        3.055     0.006    27.843     8.654
     5   6 C        3.035     0.000    27.989     8.678
     6   6 C        2.914    -0.035    28.864     8.810
     7   6 C        3.036     0.000    27.991     8.678
     8   6 C        2.914    -0.035    28.864     8.810
     9   6 C        2.921    -0.033    28.830     8.805
    10   6 C        2.923    -0.032    28.809     8.802
    11   6 C        2.914    -0.034    28.837     8.806
    12   6 C        3.055     0.006    27.841     8.653
    13   6 C        3.977     0.009    20.346     6.409
    14   6 C        3.055     0.006    27.845     8.654
    15   6 C        2.913    -0.034    28.839     8.806
    16   6 C        2.922    -0.033    28.814     8.803
    17   6 C        2.921    -0.033    28.831     8.805
    18   6 C        2.914    -0.035    28.870     8.811
    19   6 C        3.035     0.001    27.982     8.676
    20   6 C        3.036    -0.002    28.038     8.685
    21   6 C        2.913    -0.036    28.884     8.813
    22   6 C        2.926    -0.038    28.940     8.822
    23   6 C        2.979     0.007    27.854     8.657
    24   6 C        2.973     0.008    27.825     8.653
    25   6 C        2.920    -0.035    28.881     8.813
    26   6 C        2.916    -0.037    28.924     8.819
    27   6 C        2.987     0.010    27.790     8.647
    28   6 C        2.917    -0.036    28.899     8.815
    29   6 C        2.916    -0.032    28.791     8.799
    30   6 C        2.915    -0.031    28.781     8.797
    31   6 C        2.918    -0.036    28.903     8.816
    32   6 C        2.985     0.011    27.765     8.644
    33   6 C        2.924    -0.041    29.024     8.835
    34   6 C        2.919    -0.038    28.955     8.824
    35   6 C        3.052     0.005    27.853     8.655
    36   1 H        0.926     0.033     2.547     2.496
    37   1 H        0.926     0.032     2.554     2.499
    38   1 H        0.926     0.027     2.630     2.536
    39   1 H        0.926     0.034     2.535     2.490
    40   1 H        0.926     0.034     2.534     2.489
    41   1 H        0.926     0.033     2.547     2.495
    42   1 H        0.926     0.032     2.553     2.498
    43   1 H        0.926     0.027     2.629     2.536
    44   1 H        0.926     0.027     2.633     2.537
    45   1 H        0.926     0.032     2.555     2.500
    46   1 H        0.926     0.033     2.548     2.496
    47   1 H        0.926     0.034     2.534     2.489
    48   1 H        0.926     0.034     2.527     2.486
    49   1 H        0.926     0.035     2.517     2.481
    50   1 H        0.926     0.034     2.536     2.490
    51   1 H        0.925     0.033     2.545     2.495
    52   1 H        0.926     0.032     2.560     2.502
    53   1 H        0.926     0.031     2.577     2.510
    54   1 H        0.926     0.031     2.578     2.511
    55   1 H        0.925     0.031     2.571     2.508
    56   1 H        0.925     0.032     2.562     2.503
    57   1 H        0.926     0.028     2.610     2.526

molecular dipole:
                 x           y           z       tot (Debye)
 q only:        0.029      -0.024      -0.013
   full:        0.015      -0.015      -0.010       0.059

 projected vibrational frequencies (cm⁻¹)
eigval :       -0.00     0.00     0.00     0.00     0.00     0.00
eigval :       18.02    24.03    30.11    45.28    50.55    52.66
eigval :       79.58    89.80   121.87   128.59   141.20   163.41
eigval :      168.84   191.16   210.49   233.23   243.20   246.60
eigval :      284.47   310.30   326.57   345.91   368.00   388.52
eigval :      392.65   411.73   413.88   419.55   444.67   448.08
eigval :      452.96   474.42   484.00   498.12   499.71   506.81
eigval :      527.68   539.47   548.53   571.03   588.30   592.03
eigval :      604.06   608.97   631.05   648.14   656.63   688.65
eigval :      690.05   708.29   711.99   723.55   741.25   753.08
eigval :      755.66   761.73   768.99   776.86   785.82   801.40
eigval :      824.23   840.65   851.10   870.52   877.53   877.76
eigval :      878.10   878.57   890.34   896.26   901.74   909.72
eigval :      910.46   911.41   912.76   916.41   923.29   925.97
eigval :      927.54   927.90   928.74   930.54   969.10  1007.64
eigval :     1009.56  1072.51  1072.75  1076.52  1077.26  1078.27
eigval :     1084.25  1133.57  1142.38  1142.52  1153.95  1169.78
eigval :     1175.61  1176.74  1176.94  1178.63  1180.30  1193.69
eigval :     1207.95  1211.80  1223.50  1226.03  1230.92  1246.67
eigval :     1258.92  1260.42  1261.02  1274.65  1283.85  1297.65
eigval :     1320.69  1325.01  1332.22  1360.58  1364.62  1371.49
eigval :     1397.21  1417.75  1426.08  1427.57  1430.07  1432.85
eigval :     1448.18  1458.66  1460.48  1470.26  1478.80  1503.51
eigval :     1560.00  1573.61  1583.72  1591.90  1593.21  1594.70
eigval :     1600.11  1602.56  1603.17  1607.16  1609.44  3063.03
eigval :     3063.12  3065.34  3068.09  3068.16  3068.91  3069.19
eigval :     3071.95  3072.31  3072.59  3073.03  3073.50  3078.23
eigval :     3079.18  3079.78  3080.20  3080.55  3084.42  3085.39
eigval :     3087.30  3088.55  3089.57

   temp. (K)  partition function   enthalpy   heat capacity  entropy
                                   cal/mol     cal/K/mol   cal/K/mol   J/K/mol
 298.15  VIB  0.141E+11            14507.386     98.030     87.211
         ROT  0.287E+08              888.752      2.981     37.105
         INT  0.405E+18            15396.138    101.011    124.316
         TR   0.901E+28             1481.254      4.968     44.132
         TOT                       16877.3918   105.9795   168.4473   704.7837

       T/K    H(0)-H(T)+PV         H(T)/Eh          T*S/Eh         G(T)/Eh
   ------------------------------------------------------------------------
    298.15    0.268958E-01    0.467646E+00    0.800348E-01    0.387611E+00
   ------------------------------------------------------------------------

         :::::::::::::::::::::::::::::::::::::::::::::::::::::
         ::                  THERMODYNAMIC                  ::
         :::::::::::::::::::::::::::::::::::::::::::::::::::::
         :: total free energy         -85.836923353769 Eh   ::
         ::.................................................::
         :: total energy              -86.224534792207 Eh   ::
         :: zero point energy           0.440750372088 Eh   ::
         :: G(RRHO) w/o ZPVE           -0.053138933649 Eh   ::
         :: G(RRHO) contrib.            0.387611438438 Eh   ::
         :::::::::::::::::::::::::::::::::::::::::::::::::::::

           -------------------------------------------------
          | TOTAL ENERGY              -86.224534792207 Eh   |
          | TOTAL ENTHALPY            -85.756888584252 Eh   |
          | TOTAL FREE ENERGY         -85.836923353769 Eh   |
          | GRADIENT NORM               0.000036335345 Eh/α |
          | HOMO-LUMO GAP               2.875981766719 eV   |
           -------------------------------------------------

 * finished run on 2025/09/10 at 08:52:39.879
