   * xtb version 6.7.1 (edcfbbe) compiled by 'albert@albert-system' on 2024-07-22

   ID    Z sym.   atoms
    1    6 C      1-7, 9-17, 19-25
    2    7 N      8, 18
    3    1 H      26-47

          program call               : xtb data2507/toluene/ICZ/ICZ_toluene_S0_crest.xyz --gfn 2 --gbsa toluene --ohess vtight --parallel 40 --molden --ceasefiles --namespace data2507/toluene/ICZ/ICZ_toluene_S0_finalOpt
      * Solvation model:               GBSA
        Solvent                        toluene
        Solvent mass                       9.2140E+01 g/mol
          :  Hamiltonian                  GFN2-xTB          :
 * total energy  :   -66.4162397 Eh     change       -0.2833119E-08 Eh
 * total energy  :   -66.4162819 Eh     change       -0.4221676E-04 Eh
 * total energy  :   -66.4163192 Eh     change       -0.3722923E-04 Eh
 * total energy  :   -66.4163392 Eh     change       -0.2006084E-04 Eh
 * total energy  :   -66.4163703 Eh     change       -0.3110607E-04 Eh
 * total energy  :   -66.4163963 Eh     change       -0.2597598E-04 Eh
 * total energy  :   -66.4164313 Eh     change       -0.3500599E-04 Eh
 * total energy  :   -66.4164716 Eh     change       -0.4024381E-04 Eh
 * total energy  :   -66.4164967 Eh     change       -0.2512405E-04 Eh
 * total energy  :   -66.4165112 Eh     change       -0.1452189E-04 Eh
 * total energy  :   -66.4165524 Eh     change       -0.2019696E-05 Eh
 * total energy  :   -66.4165537 Eh     change       -0.1241203E-05 Eh
 * total energy  :   -66.4165545 Eh     change       -0.7847090E-06 Eh
 * total energy  :   -66.4165551 Eh     change       -0.6188055E-06 Eh
 * total energy  :   -66.4165553 Eh     change       -0.2154265E-06 Eh
 * total energy  :   -66.4165557 Eh     change       -0.4318812E-06 Eh
 * total energy  :   -66.4165559 Eh     change       -0.1380937E-06 Eh
 * total energy  :   -66.4165560 Eh     change       -0.1160826E-06 Eh
 * total energy  :   -66.4165561 Eh     change       -0.9799126E-07 Eh
   *** GEOMETRY OPTIMIZATION CONVERGED AFTER 26 ITERATIONS ***

 final structure:
================
47
 xtb: 6.7.1 (edcfbbe)
C            2.79067170981015        4.10906436238944       -1.13014086340777
C            1.52177831622262        3.98933067424483       -0.29335445035337
C            0.48536018646376        3.08590560930814       -0.96150406914692
C           -0.76938334993859        2.87316422305089       -0.11246179900090
C           -0.56526909936766        1.88782834934010        1.04883121692141
C           -0.38823392078945        0.47590717125975        0.56628426782172
C            0.87014656725133       -0.10282993071552        0.44248029096527
N            2.10199637583360        0.45627553697218        0.71681804309751
C            3.08955106841794       -0.45311330555002        0.45834310138297
C            4.46595821210187       -0.32400241766613        0.57778000820409
C            5.24576710698618       -1.41568155249949        0.24637521683255
C            4.67456611754786       -2.60905663668057       -0.19287475625271
C            3.30490338903789       -2.74188250746476       -0.31478469737929
C            2.49846984649265       -1.65845269588889        0.01032046589702
C            1.07942137565970       -1.43653949947985       -0.00267896783628
C            0.00665502448395       -2.24496545958854       -0.34853909163347
C           -1.24664335136141       -1.67533756729668       -0.23953921135663
N           -2.46137904013595       -2.25935649633890       -0.51242799707316
C           -3.46371732250643       -1.36187165327906       -0.26934410406587
C           -4.83310606334968       -1.53073914290286       -0.40902584846565
C           -5.65081904338563       -0.46154904775918       -0.09942397020321
C           -5.11163094099919        0.74710520192057        0.33299619038182
C           -3.74719999322345        0.91822916902928        0.47149533530054
C           -2.89495297442960       -0.14196873782741        0.17655536473289
C           -1.46485965193080       -0.33893167792536        0.20257849563094
H            2.56370942627337        4.53632238057931       -2.10470912666500
H            3.51851268256794        4.74992790273249       -0.63638295977162
H            3.24195830157222        3.13092721820410       -1.28690597369936
H            1.77920364697584        3.60370134499816        0.69604865352376
H            1.08936111675971        4.98252365735380       -0.14773246624892
H            0.19330070837214        3.54393146127182       -1.90985609908625
H            0.93227110504088        2.11703751779762       -1.19482811692276
H           -1.56602741302936        2.48827053707892       -0.75204334656285
H           -1.09651166296697        3.83570943182512        0.28903074656718
H            0.29877669247192        2.19132533650928        1.64193861552406
H           -1.43456142954224        1.92729349847722        1.70693746040674
H            2.25636839984003        1.40541745659786        1.00755743960341
H            4.91268382988924        0.59888069738147        0.91842764408922
H            6.32087513675857       -1.34444043524639        0.32925612923447
H            5.31821792139669       -3.44040453871962       -0.44182719384988
H            2.86814061534071       -3.66862790405606       -0.65695680259963
H            0.14430547721840       -3.26185100527444       -0.68188456160881
H           -2.58773605559790       -3.20229992620424       -0.83751366311660
H           -5.24335033125779       -2.47042238436045       -0.74965159557690
H           -6.72217541102419       -0.56198449248055       -0.19755834623555
H           -5.77559004524741        1.56810873189726        0.56262750893952
H           -3.36482968100499        1.87103372668629        0.79957527296475

          :  Hamiltonian                  GFN2-xTB          :
         :: gradient norm              0.000084167194 Eh/a0 ::
         :: HOMO-LUMO gap              2.627365016809 eV    ::
         :: SCC energy               -67.591348387339 Eh    ::
         :: -> dispersion             -0.055798208494 Eh    ::
         :: -> Gsolv                  -0.025552659857 Eh    ::
         :: repulsion energy           1.174792311330 Eh    ::

    * Orbital Energies and Occupations

         #    Occupation            Energy/Eh            Energy/eV
      -------------------------------------------------------------
         1        2.0000           -0.6699292             -18.2297
       ...           ...                  ...                  ...
        50        2.0000           -0.4326120             -11.7720
        51        2.0000           -0.4280409             -11.6476
        52        2.0000           -0.4268607             -11.6155
        53        2.0000           -0.4202231             -11.4349
        54        2.0000           -0.4194632             -11.4142
        55        2.0000           -0.4164797             -11.3330
        56        2.0000           -0.4136995             -11.2573
        57        2.0000           -0.4092530             -11.1363
        58        2.0000           -0.3997098             -10.8767
        59        2.0000           -0.3957036             -10.7676
        60        2.0000           -0.3774367             -10.2706
        61        2.0000           -0.3632565              -9.8847
        62        2.0000           -0.3463719              -9.4253 (HOMO)
        63                         -0.2498180              -6.7979 (LUMO)
        64                         -0.2172942              -5.9129
        65                         -0.2146195              -5.8401
        66                         -0.1962526              -5.3403
        67                         -0.1797792              -4.8920
        68                         -0.1623887              -4.4188
        69                         -0.0888319              -2.4172
        70                         -0.0677422              -1.8434
        71                         -0.0495170              -1.3474
        72                          0.0108021               0.2939
        73                          0.0239314               0.6512
       ...                                ...                  ...
       122                          0.7522221              20.4690
      -------------------------------------------------------------
                  HL-Gap            0.0965539 Eh            2.6274 eV

     #   Z          covCN         q      C6AA      α(0)
     1   6 C        3.752    -0.102    22.515     6.767
     2   6 C        3.800    -0.050    21.474     6.598
     3   6 C        3.802    -0.060    21.652     6.625
     4   6 C        3.802    -0.055    21.566     6.612
     5   6 C        3.805    -0.059    21.635     6.622
     6   6 C        2.956    -0.015    28.390     8.739
     7   6 C        3.062     0.037    27.101     8.537
     8   7 N        2.757    -0.129    23.789     7.244
     9   6 C        3.064     0.055    26.709     8.475
    10   6 C        2.909    -0.059    29.467     8.901
    11   6 C        2.924    -0.036    28.899     8.816
    12   6 C        2.919    -0.046    29.149     8.854
    13   6 C        2.912    -0.036    28.907     8.816
    14   6 C        3.067    -0.020    28.440     8.745
    15   6 C        3.077    -0.020    28.422     8.741
    16   6 C        2.905    -0.067    29.674     8.932
    17   6 C        3.070     0.045    26.919     8.507
    18   7 N        2.752    -0.128    23.786     7.243
    19   6 C        3.066     0.055    26.710     8.475
    20   6 C        2.910    -0.059    29.466     8.901
    21   6 C        2.923    -0.036    28.900     8.816
    22   6 C        2.919    -0.047    29.167     8.856
    23   6 C        2.914    -0.039    28.978     8.827
    24   6 C        3.063    -0.017    28.362     8.733
    25   6 C        3.066    -0.028    28.627     8.773
    26   1 H        0.925     0.034     2.537     2.491
    27   1 H        0.925     0.033     2.539     2.492
    28   1 H        0.925     0.033     2.551     2.498
    29   1 H        0.924     0.023     2.689     2.564
    30   1 H        0.924     0.030     2.589     2.516
    31   1 H        0.924     0.030     2.593     2.518
    32   1 H        0.924     0.034     2.535     2.490
    33   1 H        0.924     0.037     2.490     2.468
    34   1 H        0.924     0.032     2.555     2.500
    35   1 H        0.924     0.032     2.557     2.501
    36   1 H        0.924     0.043     2.408     2.427
    37   1 H        0.860     0.166     1.299     1.785
    38   1 H        0.926     0.025     2.656     2.548
    39   1 H        0.926     0.026     2.640     2.541
    40   1 H        0.926     0.023     2.685     2.562
    41   1 H        0.926     0.026     2.645     2.543
    42   1 H        0.926     0.027     2.632     2.537
    43   1 H        0.860     0.159     1.343     1.816
    44   1 H        0.926     0.024     2.677     2.559
    45   1 H        0.926     0.026     2.651     2.546
    46   1 H        0.926     0.024     2.680     2.560
    47   1 H        0.926     0.034     2.528     2.486

molecular dipole:
                 x           y           z       tot (Debye)
 q only:       -0.040       0.340       0.049
   full:       -0.040       0.276       0.013       0.710

 projected vibrational frequencies (cm⁻¹)
eigval :       -0.00    -0.00     0.00     0.00     0.00     0.00
eigval :       27.60    34.29    41.02    68.56    81.35    89.75
eigval :      118.27   122.16   133.70   155.50   207.36   219.62
eigval :      233.96   252.92   264.67   274.19   308.86   326.84
eigval :      337.42   374.13   376.34   400.31   413.81   424.95
eigval :      428.52   449.24   466.01   503.45   512.42   527.47
eigval :      540.42   543.03   572.59   588.13   594.86   639.97
eigval :      646.81   681.48   689.86   701.77   710.50   726.40
eigval :      765.31   766.04   775.48   816.94   820.56   850.29
eigval :      854.03   854.44   862.52   863.67   880.32   891.25
eigval :      892.53   906.44   915.26   917.81   942.26   956.33
eigval :     1001.29  1044.03  1057.16  1067.35  1077.66  1085.70
eigval :     1109.45  1117.79  1125.05  1127.34  1139.72  1150.95
eigval :     1168.59  1174.63  1181.19  1189.46  1212.00  1213.56
eigval :     1220.67  1248.25  1257.31  1258.62  1278.65  1287.58
eigval :     1304.76  1311.71  1321.60  1329.46  1345.93  1350.42
eigval :     1352.22  1369.01  1371.01  1372.59  1414.21  1417.43
eigval :     1428.90  1435.83  1481.32  1486.47  1487.16  1490.63
eigval :     1497.19  1499.91  1503.03  1506.87  1531.82  1566.24
eigval :     1582.22  1586.36  1608.24  1610.46  1615.56  2950.38
eigval :     2960.34  2965.13  2972.00  2975.97  2985.18  2989.14
eigval :     2995.89  3021.28  3025.79  3033.47  3065.24  3066.89
eigval :     3069.46  3072.05  3076.62  3083.73  3086.16  3088.96
eigval :     3109.46  3487.06  3492.35

   temp. (K)  partition function   enthalpy   heat capacity  entropy
                                   cal/mol     cal/K/mol   cal/K/mol   J/K/mol
 298.15  VIB  0.420E+08            11510.470     77.241     69.022
         ROT  0.112E+08              888.752      2.981     35.236
         INT  0.470E+15            12399.223     80.221    104.258
         TR   0.571E+28             1481.254      4.968     43.225
         TOT                       13880.4765    85.1896   147.4827   617.0674

       T/K    H(0)-H(T)+PV         H(T)/Eh          T*S/Eh         G(T)/Eh
   ------------------------------------------------------------------------
    298.15    0.221199E-01    0.406873E+00    0.700738E-01    0.336799E+00
   ------------------------------------------------------------------------

         :::::::::::::::::::::::::::::::::::::::::::::::::::::
         ::                  THERMODYNAMIC                  ::
         :::::::::::::::::::::::::::::::::::::::::::::::::::::
         :: total free energy         -66.079756698610 Eh   ::
         ::.................................................::
         :: total energy              -66.416556078180 Eh   ::
         :: zero point energy           0.384753200861 Eh   ::
         :: G(RRHO) w/o ZPVE           -0.047953821291 Eh   ::
         :: G(RRHO) contrib.            0.336799379571 Eh   ::
         :::::::::::::::::::::::::::::::::::::::::::::::::::::

           -------------------------------------------------
          | TOTAL ENERGY              -66.416556078180 Eh   |
          | TOTAL ENTHALPY            -66.009682929945 Eh   |
          | TOTAL FREE ENERGY         -66.079756698610 Eh   |
          | GRADIENT NORM               0.000084158635 Eh/α |
          | HOMO-LUMO GAP               2.627364963952 eV   |
           -------------------------------------------------

 * finished run on 2025/09/10 at 18:18:28.541
