   * xtb version 6.7.1 (edcfbbe) compiled by 'albert@albert-system' on 2024-07-22

   ID    Z sym.   atoms
    1    6 C      1-7, 9-17, 19-25
    2    7 N      8, 18
    3    1 H      26-47

          program call               : xtb data2507/toluene/ICZ/ICZ_toluene_S0_finalOpt.xtbopt.xyz --gfn 2 --uhf 2 --gbsa toluene --ohess vtight --parallel 40 --molden --ceasefiles --namespace data2507/toluene/ICZ/ICZ_toluene_T1_preOpt
      * Solvation model:               GBSA
        Solvent                        toluene
        Solvent mass                       9.2140E+01 g/mol
          :  Hamiltonian                  GFN2-xTB          :
 * total energy  :   -66.3152040 Eh     change       -0.3485169E-08 Eh
 * total energy  :   -66.3178328 Eh     change       -0.2628758E-02 Eh
 * total energy  :   -66.3184812 Eh     change       -0.6484422E-03 Eh
 * total energy  :   -66.3185281 Eh     change       -0.4690008E-04 Eh
 * total energy  :   -66.3185598 Eh     change       -0.3168392E-04 Eh
 * total energy  :   -66.3185690 Eh     change       -0.9160832E-05 Eh
 * total energy  :   -66.3185750 Eh     change       -0.6005894E-05 Eh
 * total energy  :   -66.3185773 Eh     change       -0.2348542E-05 Eh
 * total energy  :   -66.3185756 Eh     change        0.1747607E-05 Eh
 * total energy  :   -66.3185782 Eh     change       -0.2663270E-05 Eh
 * total energy  :   -66.3185786 Eh     change       -0.3402722E-06 Eh
 * total energy  :   -66.3185790 Eh     change       -0.3830815E-06 Eh
 * total energy  :   -66.3185792 Eh     change       -0.2524712E-06 Eh
 * total energy  :   -66.3185795 Eh     change       -0.2926393E-06 Eh
 * total energy  :   -66.3185798 Eh     change       -0.2925315E-06 Eh
 * total energy  :   -66.3185800 Eh     change       -0.1626569E-06 Eh
 * total energy  :   -66.3185800 Eh     change       -0.7312947E-07 Eh
   *** GEOMETRY OPTIMIZATION CONVERGED AFTER 17 ITERATIONS ***

 final structure:
================
47
 xtb: 6.7.1 (edcfbbe)
C            2.79887482800593        4.11674829103405       -1.13734458684081
C            1.53887965695402        3.98616739350974       -0.28877970905589
C            0.49557327156326        3.09128734537689       -0.95792821728338
C           -0.75754868707359        2.87929581293395       -0.10752729771171
C           -0.55251070041568        1.89063761116804        1.05684214862161
C           -0.38010821118631        0.48585748288983        0.57916164244842
C            0.87405360882151       -0.11318171329181        0.44360820405140
N            2.09991384974478        0.44570646091807        0.70227293739786
C            3.09978653750567       -0.45216132490858        0.45093887355999
C            4.46797555452725       -0.30749587945689        0.56635371473748
C            5.26261664228322       -1.40231633207789        0.23797586564710
C            4.68439827661877       -2.60190238787634       -0.19058002833547
C            3.31861376852537       -2.75717740830059       -0.31032759867889
C            2.48917270546815       -1.67128242867380        0.00932815699178
C            1.09472673782524       -1.44886423202068        0.00468063787196
C           -0.01345687802723       -2.26419122630427       -0.33997748397893
C           -1.26189914098399       -1.67469591030862       -0.22437563528974
N           -2.47229098699125       -2.25629666119916       -0.49769639613678
C           -3.48447194732766       -1.36938412623546       -0.26679571073892
C           -4.84599592399957       -1.54508755940042       -0.41547680635383
C           -5.67493766952318       -0.47076710410865       -0.11420619505639
C           -5.12747144747895        0.74092169836675        0.32046608532013
C           -3.76961357165704        0.92612735073226        0.47242159483783
C           -2.89581268582141       -0.13775918081487        0.18294066236545
C           -1.49419338066929       -0.33912577034102        0.21014761063365
H            2.56212385934476        4.56040826859680       -2.10217727289130
H            3.53333437457429        4.74825692892882       -0.64142927286289
H            3.24688356128075        3.14076501025518       -1.31543195512032
H            1.80720404988852        3.58921900685925        0.69330353413765
H            1.10804547732909        4.97738366537906       -0.12677734079522
H            0.20131406440819        3.55733539336423       -1.90166664268267
H            0.93733304657222        2.12238156725904       -1.20121379933617
H           -1.55643267157953        2.49398509701102       -0.74345677115510
H           -1.08290510840191        3.84051698244068        0.29773922872664
H            0.30844411864529        2.20117931450929        1.65123726829457
H           -1.42861535318491        1.93497086427144        1.70618651694988
H            2.24867331408205        1.39626535221811        1.00094301053722
H            4.90875934203913        0.62086570031268        0.89938911133562
H            6.33648050911204       -1.32619589389643        0.31527878831435
H            5.33452297992970       -3.43071575043968       -0.43559293129495
H            2.89362232599009       -3.69190994963611       -0.64342736551489
H            0.11525791475863       -3.27981596803782       -0.67611469022247
H           -2.59383102691042       -3.20314188910286       -0.82065380581515
H           -5.25203415543484       -2.48719911250869       -0.75423383626608
H           -6.74471458942437       -0.57013019223113       -0.21636413109284
H           -5.79727864582326        1.55990746301623        0.54487777680847
H           -3.39540225616382        1.88147677327721        0.80170534809715

          :  Hamiltonian                  GFN2-xTB          :
         :: gradient norm              0.000075532404 Eh/a0 ::
         :: HOMO-LUMO gap              0.995262770185 eV    ::
         :: SCC energy               -67.474277138036 Eh    ::
         :: -> dispersion             -0.055590723139 Eh    ::
         :: -> Gsolv                  -0.026124691215 Eh    ::
         :: repulsion energy           1.155697094514 Eh    ::

    * Orbital Energies and Occupations

         #    Occupation            Energy/Eh            Energy/eV
      -------------------------------------------------------------
         1        2.0000           -0.6746176             -18.3573
       ...           ...                  ...                  ...
        51        2.0000           -0.4271681             -11.6238
        52        2.0000           -0.4258871             -11.5890
        53        2.0000           -0.4207361             -11.4488
        54        2.0000           -0.4172046             -11.3527
        55        2.0000           -0.4148514             -11.2887
        56        2.0000           -0.4124620             -11.2237
        57        2.0000           -0.4113161             -11.1925
        58        2.0000           -0.3991497             -10.8614
        59        2.0000           -0.3910410             -10.6408
        60        2.0000           -0.3792851             -10.3209
        61        1.9670           -0.3571776              -9.7193
        62        1.0330           -0.3507594              -9.5446
        63        1.0000           -0.2532046              -6.8900 (HOMO)
        64                         -0.2166293              -5.8948 (LUMO)
        65                         -0.2125615              -5.7841
        66                         -0.1964488              -5.3456
        67                         -0.1826328              -4.9697
        68                         -0.1590269              -4.3273
        69                         -0.0930323              -2.5315
        70                         -0.0682508              -1.8572
        71                         -0.0510548              -1.3893
        72                          0.0049291               0.1341
        73                          0.0187552               0.5104
        74                          0.0740887               2.0161
       ...                                ...                  ...
       122                          0.7500434              20.4097
      -------------------------------------------------------------
                  HL-Gap            0.0365753 Eh            0.9953 eV

     #   Z          covCN         q      C6AA      α(0)
     1   6 C        3.752    -0.103    22.524     6.768
     2   6 C        3.800    -0.051    21.482     6.599
     3   6 C        3.802    -0.060    21.658     6.626
     4   6 C        3.801    -0.055    21.559     6.611
     5   6 C        3.804    -0.058    21.618     6.619
     6   6 C        2.952    -0.014    28.370     8.736
     7   6 C        3.052     0.043    26.986     8.520
     8   7 N        2.764    -0.092    23.044     7.130
     9   6 C        3.058     0.048    26.865     8.500
    10   6 C        2.906    -0.058    29.438     8.896
    11   6 C        2.921    -0.054    29.343     8.883
    12   6 C        2.916    -0.033    28.824     8.804
    13   6 C        2.908    -0.053    29.304     8.876
    14   6 C        3.068    -0.016    28.331     8.728
    15   6 C        3.074    -0.040    28.907     8.815
    16   6 C        2.901    -0.064    29.593     8.920
    17   6 C        3.062     0.049    26.843     8.496
    18   7 N        2.759    -0.096    23.121     7.142
    19   6 C        3.061     0.049    26.840     8.496
    20   6 C        2.906    -0.058    29.446     8.898
    21   6 C        2.920    -0.053    29.319     8.879
    22   6 C        2.915    -0.034    28.848     8.808
    23   6 C        2.909    -0.055    29.363     8.885
    24   6 C        3.067    -0.012    28.245     8.715
    25   6 C        3.062    -0.046    29.089     8.844
    26   1 H        0.925     0.034     2.531     2.488
    27   1 H        0.925     0.034     2.533     2.489
    28   1 H        0.925     0.033     2.549     2.497
    29   1 H        0.924     0.023     2.689     2.564
    30   1 H        0.924     0.031     2.574     2.509
    31   1 H        0.924     0.032     2.562     2.503
    32   1 H        0.924     0.033     2.538     2.491
    33   1 H        0.924     0.040     2.452     2.449
    34   1 H        0.924     0.035     2.520     2.483
    35   1 H        0.924     0.033     2.541     2.493
    36   1 H        0.924     0.049     2.335     2.390
    37   1 H        0.860     0.175     1.245     1.748
    38   1 H        0.926     0.023     2.689     2.564
    39   1 H        0.926     0.019     2.748     2.592
    40   1 H        0.925     0.021     2.717     2.578
    41   1 H        0.926     0.019     2.745     2.591
    42   1 H        0.926     0.028     2.616     2.529
    43   1 H        0.860     0.167     1.293     1.781
    44   1 H        0.926     0.021     2.714     2.576
    45   1 H        0.926     0.019     2.753     2.595
    46   1 H        0.925     0.022     2.707     2.573
    47   1 H        0.926     0.027     2.627     2.534

molecular dipole:
                 x           y           z       tot (Debye)
 q only:       -0.052       0.467       0.070
   full:       -0.056       0.399       0.036       1.028

 projected vibrational frequencies (cm⁻¹)
eigval :       -0.00    -0.00    -0.00    -0.00     0.00     0.00
eigval :       25.94    32.50    40.19    63.72    78.53    85.75
eigval :      116.43   120.32   130.72   152.43   195.34   202.02
eigval :      226.13   245.60   265.14   273.46   296.38   308.73
eigval :      314.03   353.36   365.25   395.01   410.73   423.27
eigval :      459.68   464.79   497.56   501.89   507.12   509.74
eigval :      521.25   534.47   561.18   565.89   581.56   613.19
eigval :      628.96   637.54   653.48   670.82   677.52   709.19
eigval :      711.62   731.68   731.99   774.22   805.21   812.40
eigval :      813.86   838.85   844.65   849.41   850.96   856.98
eigval :      875.57   896.79   897.73   900.18   934.83   949.98
eigval :      987.55   994.17  1039.05  1048.08  1054.30  1061.04
eigval :     1083.74  1103.40  1113.72  1116.70  1119.87  1132.73
eigval :     1144.36  1161.80  1166.14  1178.29  1187.34  1212.23
eigval :     1212.26  1218.40  1237.68  1253.75  1256.12  1272.69
eigval :     1284.73  1299.96  1302.61  1314.32  1320.79  1335.97
eigval :     1346.36  1351.81  1371.04  1375.42  1379.18  1384.96
eigval :     1404.72  1414.44  1417.23  1439.28  1467.32  1478.38
eigval :     1482.08  1485.50  1492.50  1496.55  1499.44  1501.77
eigval :     1506.12  1532.95  1544.44  1561.75  1575.10  2950.02
eigval :     2962.42  2966.14  2970.79  2974.30  2984.47  2987.37
eigval :     2992.96  3021.26  3025.94  3033.74  3060.93  3062.18
eigval :     3068.70  3069.70  3081.37  3089.03  3090.67  3101.12
eigval :     3107.89  3450.17  3452.58

   temp. (K)  partition function   enthalpy   heat capacity  entropy
                                   cal/mol     cal/K/mol   cal/K/mol   J/K/mol
 298.15  VIB  0.783E+08            11823.506     79.116     70.980
         ROT  0.113E+08              888.752      2.981     35.250
         INT  0.883E+15            12712.259     82.097    106.230
         TR   0.571E+28             1481.254      4.968     43.225
         TOT                       14193.5125    87.0649   149.4552   625.3206

       T/K    H(0)-H(T)+PV         H(T)/Eh          T*S/Eh         G(T)/Eh
   ------------------------------------------------------------------------
    298.15    0.226188E-01    0.402434E+00    0.710110E-01    0.331423E+00
   ------------------------------------------------------------------------

         :::::::::::::::::::::::::::::::::::::::::::::::::::::
         ::                  THERMODYNAMIC                  ::
         :::::::::::::::::::::::::::::::::::::::::::::::::::::
         :: total free energy         -65.987156998445 Eh   ::
         ::.................................................::
         :: total energy              -66.318580045112 Eh   ::
         :: zero point energy           0.379815242398 Eh   ::
         :: G(RRHO) w/o ZPVE           -0.048392195731 Eh   ::
         :: G(RRHO) contrib.            0.331423046666 Eh   ::
         :::::::::::::::::::::::::::::::::::::::::::::::::::::

           -------------------------------------------------
          | TOTAL ENERGY              -66.318580045112 Eh   |
          | TOTAL ENTHALPY            -65.916146000719 Eh   |
          | TOTAL FREE ENERGY         -65.987156998445 Eh   |
          | GRADIENT NORM               0.000075428371 Eh/α |
          | HOMO-LUMO GAP               0.995264083715 eV   |
           -------------------------------------------------

 * finished run on 2025/09/10 at 18:18:34.209
