   * xtb version 6.7.1 (edcfbbe) compiled by 'albert@albert-system' on 2024-07-22

   ID    Z sym.   atoms
    1    6 C      1-7, 9-17, 19-25
    2    7 N      8, 18
    3    1 H      26-47

          program call               : xtb data2507/toluene/ICZ/ICZ_toluene_T1_crest.xyz --gfn 2 --uhf 2 --gbsa toluene --ohess vtight --parallel 40 --molden --ceasefiles --namespace data2507/toluene/ICZ/ICZ_toluene_T1_finalOpt
      * Solvation model:               GBSA
        Solvent                        toluene
        Solvent mass                       9.2140E+01 g/mol
          :  Hamiltonian                  GFN2-xTB          :
 * total energy  :   -66.3182206 Eh     change       -0.1518913E-08 Eh
 * total energy  :   -66.3182727 Eh     change       -0.5215558E-04 Eh
 * total energy  :   -66.3183184 Eh     change       -0.4567435E-04 Eh
 * total energy  :   -66.3183359 Eh     change       -0.1750692E-04 Eh
 * total energy  :   -66.3183760 Eh     change       -0.4004380E-04 Eh
 * total energy  :   -66.3183941 Eh     change       -0.1812248E-04 Eh
 * total energy  :   -66.3184315 Eh     change       -0.3743746E-04 Eh
 * total energy  :   -66.3184637 Eh     change       -0.3220323E-04 Eh
 * total energy  :   -66.3184899 Eh     change       -0.2622593E-04 Eh
 * total energy  :   -66.3185099 Eh     change       -0.1994445E-04 Eh
 * total energy  :   -66.3185745 Eh     change       -0.3111972E-06 Eh
 * total energy  :   -66.3185748 Eh     change       -0.2051232E-06 Eh
 * total energy  :   -66.3185749 Eh     change       -0.1530564E-06 Eh
 * total energy  :   -66.3185751 Eh     change       -0.1628068E-06 Eh
 * total energy  :   -66.3185753 Eh     change       -0.1923924E-06 Eh
 * total energy  :   -66.3185755 Eh     change       -0.2468406E-06 Eh
 * total energy  :   -66.3185757 Eh     change       -0.2041708E-06 Eh
 * total energy  :   -66.3185758 Eh     change       -0.1088478E-06 Eh
 * total energy  :   -66.3185759 Eh     change       -0.5132209E-07 Eh
   *** GEOMETRY OPTIMIZATION CONVERGED AFTER 38 ITERATIONS ***

 final structure:
================
47
 xtb: 6.7.1 (edcfbbe)
C            2.85079529710543        4.09302186731064       -1.10737479008029
C            1.58288390653071        3.97574240272590       -0.26869088360462
C            0.53461163786895        3.09363882538397       -0.94709107870300
C           -0.72441770619630        2.88949426447711       -0.10358734646681
C           -0.53334160154315        1.89526138863405        1.05842610728891
C           -0.37343701105781        0.48989844822991        0.57809622712539
C            0.87517778725466       -0.12093743604996        0.44365541449836
N            2.10610774101836        0.42672628855863        0.70213630126771
C            3.09765477181768       -0.48088492560566        0.45246256666299
C            4.46709201922434       -0.34911001986416        0.56840276500560
C            5.25142212063893       -1.45204316181774        0.24225754280314
C            4.66203788411688       -2.64674669101324       -0.18460789615325
C            3.29490768632723       -2.78913608473175       -0.30496988674213
C            2.47573499786630       -1.69479970510591        0.01231611152915
C            1.08345475110236       -1.45921005201208        0.00655504875391
C           -0.03210763603010       -2.26471982849420       -0.33717416017897
C           -1.27496930430579       -1.66317570465355       -0.22364053135545
N           -2.49057897537945       -2.23360826971510       -0.49718314219229
C           -3.49441114209915       -1.33630800197968       -0.26981500603393
C           -4.85730489469973       -1.49893992900783       -0.42054486307896
C           -5.67607372970011       -0.41560577578054       -0.12377691009528
C           -5.11738733029206        0.79180039418983        0.30846966838060
C           -3.75805939450785        0.96390742771354        0.46269394044147
C           -2.89438241608708       -0.10948956346601        0.17801887769761
C           -1.49484460665409       -0.32458958844413        0.20809003656585
H            2.62673389366237        4.54075275011597       -2.07335909527267
H            3.58865142809867        4.71525136373906       -0.60483716287655
H            3.28882077256135        3.11216392248159       -1.28349659903216
H            1.83910360524500        3.57457095304146        0.71495004300759
H            1.16211340155196        4.97158054164792       -0.10853086826277
H            0.24923017174348        3.56660061461873       -1.89011256248878
H            0.96841358089120        2.12172411578257       -1.19272056937653
H           -1.52338469457460        2.51312560985770       -0.74475050525777
H           -1.04357709878470        3.85206172381962        0.30342086881124
H            0.32865065705564        2.19542009241355        1.65668359176222
H           -1.41115825571451        1.94655454211605        1.70492377519927
H            2.26360294409829        1.37621341836348        0.99975213938680
H            4.91669670300440        0.57547216539338        0.90016382643002
H            6.32591491315859       -1.38609108019426        0.32005644579845
H            5.30430493899374       -3.48222473678191       -0.42773638946282
H            2.86116786621335       -3.72037081250614       -0.63658942274192
H            0.08730692519698       -3.28210775748981       -0.67140765736825
H           -2.62089023602111       -3.17998623098608       -0.81809292867810
H           -5.27211462279423       -2.43786811512078       -0.75748533353356
H           -6.74658685350505       -0.50458522689709       -0.22777678814931
H           -5.77955246776840        1.61796588628986        0.52917544014913
H           -3.37494968103442        1.91653385431380        0.78963299292156

          :  Hamiltonian                  GFN2-xTB          :
         :: gradient norm              0.000058129293 Eh/a0 ::
         :: HOMO-LUMO gap              0.995007349780 eV    ::
         :: SCC energy               -67.474277073666 Eh    ::
         :: -> dispersion             -0.055596592987 Eh    ::
         :: -> Gsolv                  -0.026116605605 Eh    ::
         :: repulsion energy           1.155701200024 Eh    ::

    * Orbital Energies and Occupations

         #    Occupation            Energy/Eh            Energy/eV
      -------------------------------------------------------------
         1        2.0000           -0.6746105             -18.3571
       ...           ...                  ...                  ...
        51        2.0000           -0.4271897             -11.6244
        52        2.0000           -0.4258783             -11.5887
        53        2.0000           -0.4207645             -11.4496
        54        2.0000           -0.4171997             -11.3526
        55        2.0000           -0.4148482             -11.2886
        56        2.0000           -0.4124580             -11.2236
        57        2.0000           -0.4113186             -11.1925
        58        2.0000           -0.3991449             -10.8613
        59        2.0000           -0.3910348             -10.6406
        60        2.0000           -0.3792833             -10.3208
        61        1.9670           -0.3571704              -9.7191
        62        1.0330           -0.3507546              -9.5445
        63        1.0000           -0.2531960              -6.8898 (HOMO)
        64                         -0.2166302              -5.8948 (LUMO)
        65                         -0.2125572              -5.7840
        66                         -0.1964412              -5.3454
        67                         -0.1826289              -4.9696
        68                         -0.1590218              -4.3272
        69                         -0.0930289              -2.5314
        70                         -0.0682428              -1.8570
        71                         -0.0510525              -1.3892
        72                          0.0049840               0.1356
        73                          0.0187788               0.5110
        74                          0.0741128               2.0167
       ...                                ...                  ...
       122                          0.7500651              20.4103
      -------------------------------------------------------------
                  HL-Gap            0.0365658 Eh            0.9950 eV

     #   Z          covCN         q      C6AA      α(0)
     1   6 C        3.752    -0.103    22.524     6.768
     2   6 C        3.800    -0.051    21.483     6.599
     3   6 C        3.802    -0.060    21.659     6.626
     4   6 C        3.801    -0.055    21.559     6.611
     5   6 C        3.804    -0.058    21.619     6.619
     6   6 C        2.952    -0.014    28.371     8.736
     7   6 C        3.052     0.043    26.985     8.520
     8   7 N        2.764    -0.093    23.046     7.130
     9   6 C        3.058     0.048    26.866     8.500
    10   6 C        2.906    -0.058    29.438     8.896
    11   6 C        2.921    -0.054    29.343     8.883
    12   6 C        2.916    -0.033    28.824     8.804
    13   6 C        2.908    -0.053    29.304     8.876
    14   6 C        3.068    -0.016    28.331     8.728
    15   6 C        3.074    -0.040    28.907     8.815
    16   6 C        2.901    -0.064    29.594     8.920
    17   6 C        3.062     0.049    26.842     8.496
    18   7 N        2.759    -0.096    23.121     7.142
    19   6 C        3.061     0.049    26.840     8.496
    20   6 C        2.906    -0.058    29.446     8.898
    21   6 C        2.920    -0.053    29.319     8.879
    22   6 C        2.915    -0.034    28.848     8.808
    23   6 C        2.909    -0.055    29.363     8.885
    24   6 C        3.067    -0.012    28.246     8.715
    25   6 C        3.062    -0.046    29.089     8.844
    26   1 H        0.925     0.034     2.531     2.488
    27   1 H        0.925     0.034     2.533     2.489
    28   1 H        0.925     0.033     2.549     2.497
    29   1 H        0.924     0.023     2.688     2.564
    30   1 H        0.924     0.031     2.574     2.509
    31   1 H        0.924     0.032     2.562     2.503
    32   1 H        0.924     0.033     2.537     2.491
    33   1 H        0.924     0.040     2.453     2.449
    34   1 H        0.924     0.035     2.520     2.483
    35   1 H        0.924     0.033     2.540     2.492
    36   1 H        0.924     0.049     2.335     2.390
    37   1 H        0.860     0.175     1.244     1.748
    38   1 H        0.926     0.023     2.689     2.564
    39   1 H        0.926     0.019     2.748     2.592
    40   1 H        0.925     0.021     2.717     2.578
    41   1 H        0.926     0.019     2.745     2.591
    42   1 H        0.926     0.028     2.616     2.529
    43   1 H        0.860     0.167     1.293     1.781
    44   1 H        0.926     0.021     2.714     2.576
    45   1 H        0.926     0.019     2.754     2.595
    46   1 H        0.925     0.022     2.708     2.573
    47   1 H        0.926     0.027     2.626     2.534

molecular dipole:
                 x           y           z       tot (Debye)
 q only:       -0.047       0.469       0.072
   full:       -0.052       0.400       0.038       1.029

 projected vibrational frequencies (cm⁻¹)
eigval :       -0.00    -0.00    -0.00    -0.00     0.00     0.00
eigval :       25.66    34.43    39.56    63.20    77.37    85.38
eigval :      116.55   119.77   130.06   152.09   195.60   202.00
eigval :      227.57   245.78   264.91   273.47   296.22   308.66
eigval :      314.29   353.37   365.27   395.02   411.29   423.41
eigval :      459.61   464.84   497.68   501.63   507.02   509.68
eigval :      521.89   532.94   561.01   565.91   581.33   613.52
eigval :      628.85   637.36   653.85   671.01   677.53   709.59
eigval :      711.55   730.88   733.06   773.17   805.20   811.99
eigval :      818.35   838.84   844.60   848.88   850.58   856.92
eigval :      875.63   893.84   896.76   900.46   934.75   949.69
eigval :      987.49   994.19  1039.05  1047.89  1054.01  1060.81
eigval :     1083.69  1103.18  1112.80  1116.43  1119.91  1132.27
eigval :     1144.13  1161.15  1165.64  1176.52  1186.38  1211.93
eigval :     1212.24  1218.20  1237.47  1253.85  1255.56  1272.58
eigval :     1284.52  1299.33  1302.48  1314.13  1320.74  1335.91
eigval :     1346.03  1351.53  1370.80  1375.10  1378.96  1384.62
eigval :     1404.62  1414.56  1417.26  1439.06  1466.98  1478.18
eigval :     1481.83  1485.34  1492.36  1496.40  1499.67  1501.56
eigval :     1506.18  1532.94  1544.31  1561.78  1575.05  2949.53
eigval :     2962.12  2965.57  2970.69  2974.15  2984.09  2987.38
eigval :     2992.77  3021.53  3026.36  3033.96  3060.19  3062.16
eigval :     3067.51  3069.62  3081.22  3088.94  3090.47  3100.96
eigval :     3107.84  3450.27  3452.36

   temp. (K)  partition function   enthalpy   heat capacity  entropy
                                   cal/mol     cal/K/mol   cal/K/mol   J/K/mol
 298.15  VIB  0.782E+08            11825.310     79.125     71.018
         ROT  0.113E+08              888.752      2.981     35.251
         INT  0.882E+15            12714.063     82.106    106.269
         TR   0.571E+28             1481.254      4.968     43.225
         TOT                       14195.3167    87.0745   149.4934   625.4803

       T/K    H(0)-H(T)+PV         H(T)/Eh          T*S/Eh         G(T)/Eh
   ------------------------------------------------------------------------
    298.15    0.226217E-01    0.402394E+00    0.710291E-01    0.331365E+00
   ------------------------------------------------------------------------

         :::::::::::::::::::::::::::::::::::::::::::::::::::::
         ::                  THERMODYNAMIC                  ::
         :::::::::::::::::::::::::::::::::::::::::::::::::::::
         :: total free energy         -65.987211302655 Eh   ::
         ::.................................................::
         :: total energy              -66.318575875811 Eh   ::
         :: zero point energy           0.379772029936 Eh   ::
         :: G(RRHO) w/o ZPVE           -0.048407456779 Eh   ::
         :: G(RRHO) contrib.            0.331364573157 Eh   ::
         :::::::::::::::::::::::::::::::::::::::::::::::::::::

           -------------------------------------------------
          | TOTAL ENERGY              -66.318575875811 Eh   |
          | TOTAL ENTHALPY            -65.916182168804 Eh   |
          | TOTAL FREE ENERGY         -65.987211302655 Eh   |
          | GRADIENT NORM               0.000058191410 Eh/α |
          | HOMO-LUMO GAP               0.995006504307 eV   |
           -------------------------------------------------

 * finished run on 2025/09/10 at 18:26:19.559
