   * xtb version 6.7.1 (edcfbbe) compiled by 'albert@albert-system' on 2024-07-22

   ID    Z sym.   atoms
    1    6 C      1-7, 9-17, 19-25
    2    7 N      8, 18
    3    1 H      26-47

          program call               : xtb data2507/toluene/ICZ/ICZ.xyz --gfn 2 --gbsa toluene --ohess vtight --parallel 40 --molden --ceasefiles --namespace data2507/toluene/ICZ/ICZ_toluene_S0_preOpt
      * Solvation model:               GBSA
        Solvent                        toluene
        Solvent mass                       9.2140E+01 g/mol
          :  Hamiltonian                  GFN2-xTB          :
 * total energy  :   -66.4060187 Eh     change       -0.1366615E-08 Eh
 * total energy  :   -66.4147164 Eh     change       -0.8697666E-02 Eh
 * total energy  :   -66.4162329 Eh     change       -0.1516485E-02 Eh
 * total energy  :   -66.4163406 Eh     change       -0.1077431E-03 Eh
 * total energy  :   -66.4163738 Eh     change       -0.3314867E-04 Eh
 * total energy  :   -66.4163834 Eh     change       -0.9567559E-05 Eh
 * total energy  :   -66.4163892 Eh     change       -0.5832903E-05 Eh
 * total energy  :   -66.4163931 Eh     change       -0.3898411E-05 Eh
 * total energy  :   -66.4163951 Eh     change       -0.1973167E-05 Eh
 * total energy  :   -66.4163968 Eh     change       -0.1737705E-05 Eh
 * total energy  :   -66.4163984 Eh     change       -0.5533743E-06 Eh
 * total energy  :   -66.4163987 Eh     change       -0.2924524E-06 Eh
 * total energy  :   -66.4163989 Eh     change       -0.1428289E-06 Eh
 * total energy  :   -66.4163990 Eh     change       -0.1438134E-06 Eh
 * total energy  :   -66.4163992 Eh     change       -0.1497985E-06 Eh
 * total energy  :   -66.4163993 Eh     change       -0.1588314E-06 Eh
 * total energy  :   -66.4163995 Eh     change       -0.1514005E-06 Eh
 * total energy  :   -66.4163996 Eh     change       -0.1202494E-06 Eh
 * total energy  :   -66.4163997 Eh     change       -0.9716437E-07 Eh
   *** GEOMETRY OPTIMIZATION CONVERGED AFTER 20 ITERATIONS ***

 final structure:
================
47
 xtb: 6.7.1 (edcfbbe)
C           -1.63658991178081        4.53433273096454        1.36806663264298
C           -2.65284304449815        3.79338862127825        0.50549420640521
C           -2.00971710931865        2.94062328430262       -0.58965925776234
C           -1.23903947445490        1.73942101636733       -0.04552450145466
C           -0.70038539983847        0.85082976192197       -1.17392701607549
C            0.05682892619722       -0.32458625169114       -0.62623298839434
C            1.43434133961809       -0.27020744707189       -0.44652387643241
N            2.29014440986374        0.77909558644945       -0.71307675646416
C            3.57244336273375        0.41677976616109       -0.40466045256043
C            4.74850397739351        1.14553936154043       -0.50890332246519
C            5.92409930687010        0.52931900000084       -0.12389208004748
C            5.93383452026011       -0.77939557636848        0.35595669525276
C            4.76539523298254       -1.50871140164634        0.46251761189362
C            3.56992309809228       -0.91266806880232        0.08102046237500
C            2.20308435011467       -1.35373750048115        0.05705058018057
C            1.59392305481942       -2.54870826395412        0.41214355707049
C            0.22266086306639       -2.60458827309122        0.25783992092501
N           -0.61291526683998       -3.66022779931446        0.53888903742951
C           -1.90329722807717       -3.30932480030745        0.25346534040235
C           -3.05971097204267       -4.06204537204414        0.39281259902614
C           -4.25959456962502       -3.47393717631903        0.04304522097354
C           -4.30212871152336       -2.16426591741886       -0.42773196257587
C           -3.15113620447548       -1.41203030233601       -0.56639267008088
C           -1.92402130692366       -1.97845966011325       -0.23480778330826
C           -0.55522350244369       -1.52059591205830       -0.24194806451504
H           -1.01758484146211        3.83854709285382        1.92883094776741
H           -0.98928258017570        5.15207086702810        0.74832028728991
H           -2.14681945417184        5.18073364478972        2.07924837658129
H           -3.27134780546419        3.15511322211585        1.14117767510066
H           -3.31215036960588        4.52591718088516        0.03244810907593
H           -2.79712153426609        2.57957100929963       -1.25683367766325
H           -1.33864408613261        3.56629315188633       -1.18414480721860
H           -1.89398295837592        1.14360315815990        0.59387477422167
H           -0.40121848457336        2.07840998422148        0.56643175861849
H           -1.52716572042416        0.49685194273105       -1.79034828271355
H           -0.04756902695080        1.44385087699783       -1.81935894660846
H            2.01400658589425        1.67928112272683       -1.06394481200345
H            4.74511916913651        2.16011416503340       -0.88023977603802
H            6.85572763238565        1.07213697187660       -0.19518947384846
H            6.87335650609103       -1.22636421850280        0.64738207746605
H            4.77899611711499       -2.52223523013570        0.83561020562886
H            2.16007519508988       -3.38602362150769        0.78949258105425
H           -0.31659911762524       -4.54939037703945        0.90274553697352
H           -3.01946094764585       -5.07499812833077        0.76644480606764
H           -5.17814171264671       -4.03451293114851        0.14039891662485
H           -5.25640753351558       -1.72783695883821       -0.68572971512797
H           -3.22236777284598       -0.39696933107093       -0.92163669368953

          :  Hamiltonian                  GFN2-xTB          :
         :: gradient norm              0.000067904583 Eh/a0 ::
         :: HOMO-LUMO gap              2.629427993188 eV    ::
         :: SCC energy               -67.591776634940 Eh    ::
         :: -> dispersion             -0.053698674972 Eh    ::
         :: -> Gsolv                  -0.026321157665 Eh    ::
         :: repulsion energy           1.175376933084 Eh    ::

    * Orbital Energies and Occupations

         #    Occupation            Energy/Eh            Energy/eV
      -------------------------------------------------------------
         1        2.0000           -0.6700542             -18.2331
       ...           ...                  ...                  ...
        50        2.0000           -0.4316007             -11.7445
        51        2.0000           -0.4282900             -11.6544
        52        2.0000           -0.4250676             -11.5667
        53        2.0000           -0.4221675             -11.4878
        54        2.0000           -0.4202988             -11.4369
        55        2.0000           -0.4166272             -11.3370
        56        2.0000           -0.4137019             -11.2574
        57        2.0000           -0.4089442             -11.1279
        58        2.0000           -0.3997284             -10.8772
        59        2.0000           -0.3956131             -10.7652
        60        2.0000           -0.3776994             -10.2777
        61        2.0000           -0.3634694              -9.8905
        62        2.0000           -0.3465355              -9.4297 (HOMO)
        63                         -0.2499058              -6.8003 (LUMO)
        64                         -0.2174818              -5.9180
        65                         -0.2147313              -5.8431
        66                         -0.1964087              -5.3446
        67                         -0.1799927              -4.8978
        68                         -0.1624671              -4.4210
        69                         -0.0889954              -2.4217
        70                         -0.0677919              -1.8447
        71                         -0.0497265              -1.3531
        72                          0.0145003               0.3946
        73                          0.0239591               0.6520
       ...                                ...                  ...
       122                          0.7522935              20.4709
      -------------------------------------------------------------
                  HL-Gap            0.0966297 Eh            2.6294 eV

     #   Z          covCN         q      C6AA      α(0)
     1   6 C        3.751    -0.102    22.506     6.765
     2   6 C        3.800    -0.053    21.528     6.606
     3   6 C        3.802    -0.057    21.593     6.616
     4   6 C        3.803    -0.053    21.529     6.606
     5   6 C        3.807    -0.059    21.634     6.621
     6   6 C        2.957    -0.017    28.429     8.745
     7   6 C        3.064     0.036    27.126     8.541
     8   7 N        2.756    -0.127    23.751     7.238
     9   6 C        3.064     0.055    26.711     8.475
    10   6 C        2.909    -0.059    29.459     8.900
    11   6 C        2.924    -0.036    28.895     8.815
    12   6 C        2.919    -0.046    29.143     8.853
    13   6 C        2.912    -0.036    28.902     8.816
    14   6 C        3.068    -0.020    28.425     8.742
    15   6 C        3.076    -0.019    28.410     8.739
    16   6 C        2.905    -0.067    29.672     8.932
    17   6 C        3.070     0.045    26.921     8.508
    18   7 N        2.752    -0.128    23.780     7.243
    19   6 C        3.066     0.055    26.711     8.475
    20   6 C        2.910    -0.059    29.463     8.901
    21   6 C        2.923    -0.036    28.900     8.816
    22   6 C        2.919    -0.047    29.167     8.856
    23   6 C        2.914    -0.039    28.959     8.824
    24   6 C        3.063    -0.016    28.355     8.732
    25   6 C        3.066    -0.028    28.619     8.772
    26   1 H        0.925     0.035     2.522     2.483
    27   1 H        0.925     0.034     2.536     2.490
    28   1 H        0.925     0.031     2.565     2.505
    29   1 H        0.924     0.030     2.588     2.516
    30   1 H        0.924     0.029     2.601     2.522
    31   1 H        0.924     0.028     2.615     2.529
    32   1 H        0.924     0.030     2.586     2.515
    33   1 H        0.924     0.035     2.522     2.483
    34   1 H        0.924     0.031     2.570     2.507
    35   1 H        0.924     0.043     2.411     2.428
    36   1 H        0.924     0.029     2.599     2.521
    37   1 H        0.860     0.162     1.323     1.802
    38   1 H        0.926     0.025     2.655     2.548
    39   1 H        0.926     0.027     2.632     2.537
    40   1 H        0.926     0.024     2.675     2.558
    41   1 H        0.926     0.027     2.634     2.538
    42   1 H        0.926     0.028     2.620     2.531
    43   1 H        0.860     0.159     1.342     1.815
    44   1 H        0.926     0.024     2.676     2.558
    45   1 H        0.926     0.026     2.650     2.546
    46   1 H        0.926     0.024     2.680     2.560
    47   1 H        0.926     0.035     2.522     2.483

molecular dipole:
                 x           y           z       tot (Debye)
 q only:       -0.161       0.261      -0.068
   full:       -0.140       0.214      -0.043       0.659

 projected vibrational frequencies (cm⁻¹)
eigval :       -0.00    -0.00    -0.00    -0.00     0.00     0.00
eigval :        1.94    28.41    39.84    44.15    79.88    93.68
eigval :      106.63   117.73   127.35   143.82   199.71   216.83
eigval :      221.75   250.76   261.13   263.26   290.37   320.60
eigval :      339.50   343.86   378.25   406.31   420.80   424.22
eigval :      430.89   443.61   459.50   504.21   512.78   530.02
eigval :      544.17   554.29   573.42   591.59   597.24   641.34
eigval :      656.69   683.59   696.27   704.32   712.59   731.21
eigval :      764.74   772.03   772.86   804.70   821.99   831.54
eigval :      857.75   858.22   862.06   864.68   874.83   890.32
eigval :      899.30   914.99   918.99   925.51   935.21   987.85
eigval :     1008.14  1028.79  1056.42  1067.04  1076.16  1082.58
eigval :     1112.12  1120.13  1128.37  1133.79  1138.55  1150.71
eigval :     1169.98  1176.62  1184.63  1190.42  1211.31  1214.35
eigval :     1240.98  1244.78  1258.69  1261.97  1271.13  1281.22
eigval :     1287.05  1311.80  1321.86  1330.49  1346.23  1350.99
eigval :     1351.14  1367.45  1369.35  1371.43  1411.87  1417.91
eigval :     1428.90  1435.59  1485.80  1487.35  1487.82  1491.21
eigval :     1495.47  1497.58  1504.13  1507.48  1532.32  1566.83
eigval :     1582.61  1586.63  1608.48  1611.11  1615.65  2950.66
eigval :     2956.29  2957.80  2968.81  2973.77  2976.55  2987.35
eigval :     2999.21  3022.44  3028.13  3041.02  3066.35  3066.61
eigval :     3070.75  3070.93  3077.72  3083.27  3086.84  3089.54
eigval :     3109.31  3487.13  3492.61

   temp. (K)  partition function   enthalpy   heat capacity  entropy
                                   cal/mol     cal/K/mol   cal/K/mol   J/K/mol
 298.15  VIB  0.137E+10            11674.153     76.689     72.664
         ROT  0.130E+08              888.752      2.981     35.534
         INT  0.178E+17            12562.905     79.670    108.198
         TR   0.571E+28             1481.254      4.968     43.225
         TOT                       14044.1592    84.6383   151.4232   633.5548

       T/K    H(0)-H(T)+PV         H(T)/Eh          T*S/Eh         G(T)/Eh
   ------------------------------------------------------------------------
    298.15    0.223808E-01    0.406891E+00    0.719461E-01    0.334945E+00
   ------------------------------------------------------------------------

         :::::::::::::::::::::::::::::::::::::::::::::::::::::
         ::                  THERMODYNAMIC                  ::
         :::::::::::::::::::::::::::::::::::::::::::::::::::::
         :: total free energy         -66.081454483920 Eh   ::
         ::.................................................::
         :: total energy              -66.416399700208 Eh   ::
         :: zero point energy           0.384510482774 Eh   ::
         :: G(RRHO) w/o ZPVE           -0.049565266485 Eh   ::
         :: G(RRHO) contrib.            0.334945216288 Eh   ::
         :::::::::::::::::::::::::::::::::::::::::::::::::::::

           -------------------------------------------------
          | TOTAL ENERGY              -66.416399700208 Eh   |
          | TOTAL ENTHALPY            -66.009508425156 Eh   |
          | TOTAL FREE ENERGY         -66.081454483920 Eh   |
          | GRADIENT NORM               0.000067901204 Eh/α |
          | HOMO-LUMO GAP               2.629428018344 eV   |
           -------------------------------------------------

 * finished run on 2025/09/10 at 18:10:45.841
