   * xtb version 6.7.1 (edcfbbe) compiled by 'albert@albert-system' on 2024-07-22

   ID    Z sym.   atoms
    1    6 C      1-8, 10-28, 30-35, 37-46, 48-57, 59-66
    2    7 N      9, 29
    3    8 O      36, 58
    4    5 B      47
    5    1 H      67-121

          program call               : xtb data2507/gas/TDBA-SBA/TDBA-SBA_gas_S0_finalOpt.xtbopt.xyz --gfn 2 --spinpol --tblite --uhf 2 --ohess vtight --parallel 40 --molden --ceasefiles --namespace data2507/gas/TDBA-SBA/TDBA-SBA_gas_T1_preOpt
 * total energy  :  -173.9441334 Eh     change       -0.7293428E-07 Eh
 * total energy  :  -173.9451114 Eh     change       -0.9779612E-03 Eh
 * total energy  :  -173.9453313 Eh     change       -0.2199294E-03 Eh
 * total energy  :  -173.9453485 Eh     change       -0.1721791E-04 Eh
 * total energy  :  -173.9453567 Eh     change       -0.8149583E-05 Eh
 * total energy  :  -173.9453602 Eh     change       -0.3539867E-05 Eh
 * total energy  :  -173.9453633 Eh     change       -0.3047687E-05 Eh
 * total energy  :  -173.9453645 Eh     change       -0.1262374E-05 Eh
 * total energy  :  -173.9453656 Eh     change       -0.1016734E-05 Eh
 * total energy  :  -173.9453656 Eh     change       -0.4939125E-09 Eh
 * total energy  :  -173.9453685 Eh     change       -0.6991498E-06 Eh
 * total energy  :  -173.9453691 Eh     change       -0.6400500E-06 Eh
 * total energy  :  -173.9453700 Eh     change       -0.8057899E-06 Eh
 * total energy  :  -173.9453707 Eh     change       -0.7372295E-06 Eh
 * total energy  :  -173.9453715 Eh     change       -0.8219949E-06 Eh
 * total energy  :  -173.9453722 Eh     change       -0.7038298E-06 Eh
 * total energy  :  -173.9453731 Eh     change       -0.8671428E-06 Eh
 * total energy  :  -173.9453740 Eh     change       -0.9628910E-06 Eh
 * total energy  :  -173.9453740 Eh     change       -0.3757265E-08 Eh
   *** GEOMETRY OPTIMIZATION CONVERGED AFTER 22 ITERATIONS ***

 final structure:
================
121
 xtb: 6.7.1 (edcfbbe)
C           12.29084217519689       -1.59095142311764        0.15431076124676
C           11.85046542134554       -0.12051179077429        0.18692210070828
C           12.30284961290212        0.53032623110448        1.50180956113937
C           12.53879445871051        0.61055172561907       -0.96877657524308
C           10.33409902074546       -0.05860396933197        0.09987373401016
C            9.56645339051750       -0.67121528485249        1.08870436600060
C            8.18655797053744       -0.64243964368045        1.05428609068108
C            7.53272524016537        0.00551548757114        0.01525786175069
N            6.11006018249480        0.03743243120520       -0.02613428746701
C            5.44838777952236        1.14923691812321        0.46613136797668
C            6.17144886038742        2.22538101932565        0.99029241525481
C            5.52208145060823        3.34007937489528        1.47815060083850
C            4.13882461181544        3.40847717455408        1.45789579261617
C            3.41796482033755        2.34337941837880        0.95145940910234
C            4.05214225441071        1.21440601210803        0.45717883874930
C            3.19527751516805        0.07659350610351       -0.06011255269769
C            4.03356024744119       -1.06727920706451       -0.59468089324953
C            3.38206345507287       -2.16578672466662       -1.13314973779410
C            4.08660100954890       -3.24154213924643       -1.64006360926779
C            5.47120424512746       -3.21629684149947       -1.61321683934445
C            6.13763114449127       -2.13227715509930       -1.08127677908707
C            5.43065670548650       -1.04458690328907       -0.55895860991925
C            2.33418953650792        0.59532437663908       -1.19061459679729
C            2.96283116688153        1.10744361194424       -2.31471829982331
C            2.23628294942505        1.57359508730513       -3.39419302183354
C            0.85158335608930        1.51390092778564       -3.35513881978349
C            0.20750416617256        1.00903759818963       -2.24664187533902
C            0.93575996806203        0.55353778040872       -1.14033687855353
N            0.27798499769740        0.06070582409506       -0.02921491131347
C           -1.14415655139713        0.03953623391638       -0.01830118088059
C           -1.86111533052623        1.22510777965987        0.17513479485011
C           -3.24816530454951        1.18934308698477        0.17883912836712
C           -3.96936237767766       -0.00768081133041        0.01101469179573
C           -3.21232193418993       -1.17985919246400       -0.17320925853397
C           -1.82518290338969       -1.16924061868936       -0.19800189189714
O           -3.81765553284573       -2.38534417218025       -0.34804107927016
C           -5.17136952314553       -2.52819355579305       -0.25799993165897
C           -5.61929912845130       -3.83980154829273       -0.37995129507322
C           -6.96478105802483       -4.13402799264079       -0.26353713474450
C           -7.89227522338586       -3.11986806990278       -0.00104781074483
C           -9.36144154656724       -3.47995584140186        0.14396312767184
C           -9.51873567185548       -4.46212518508351        1.31428181867746
C           -9.84601156134762       -4.13997038450207       -1.15522578649128
C          -10.25131074708701       -2.26454017564819        0.41961037165493
C           -7.42284254076998       -1.81954280065945        0.11041322225848
C           -6.07588835805819       -1.45710969469662       -0.04268876589049
B           -5.48647115300699       -0.03345866272312        0.02937140464876
C           -6.12204701469589        1.36919516558963        0.11789622444932
C           -7.48413888824017        1.68530854858363        0.00016201852943
C           -7.99476674352855        2.96878861440577        0.12493497994213
C           -9.47881346338417        3.27811597747729        0.01943538347148
C          -10.33326224235186        2.03300580219500       -0.23497176285430
C           -9.95115132837232        3.91955872772816        1.33237414693325
C           -9.70105460377385        4.25554364573940       -1.14426363334192
C           -7.09598052241046        4.01414498111673        0.36375738456107
C           -5.73861589727560        3.76612278326032        0.44501134983937
C           -5.24942369413287        2.47054422831940        0.31094116821226
O           -3.88973717720593        2.37392831866981        0.36699644202025
C            0.96445313199848       -0.41616441263224        1.07145163799623
C            0.26402254136933       -0.87267565405899        2.19524425779810
C            0.93590687476028       -1.36172292585381        3.29418717567398
C            2.32171050235401       -1.40437192648483        3.30594767016630
C            3.02081571691234       -0.93722014352877        2.20896401781945
C            2.36394353120995       -0.44041222928643        1.09415158719174
C            8.27893896368839        0.61886485559733       -0.97885633202056
C            9.66179782433998        0.58571728641015       -0.93213816276811
H           11.88173446398868       -2.14743322762725        0.99291128960803
H           11.95463251307877       -2.06422825671807       -0.76598236184578
H           13.37561835505595       -1.65678959320640        0.19928179632173
H           11.90002037851344        0.00743247722841        2.36462452824591
H           13.38819330761936        0.51455894866245        1.57165962904654
H           11.96978914989534        1.56533151877652        1.54369709321656
H           13.61782724382478        0.53545469891971       -0.85176903993544
H           12.27584565728632        1.66582009173408       -0.97742478078783
H           12.27486760944151        0.16769965751579       -1.92635716493984
H           10.04751166669860       -1.18315644106868        1.90788224114812
H            7.60846851512352       -1.12340137330481        1.82970225522787
H            7.24951138470429        2.18024420489470        1.01553525676353
H            6.10138101274253        4.15912079675511        1.87749178874763
H            3.62759994316428        4.27962730638619        1.83686557326623
H            2.33822869330338        2.38053794233038        0.93789098680921
H            2.30182701060418       -2.17116452201044       -1.15317941792973
H            3.56185810485929       -4.08853148602130       -2.05374569355852
H            6.03817008810795       -4.04510875410107       -2.01008411890315
H            7.21683513999463       -2.12036854341725       -1.06977774697999
H            4.04286362836509        1.13539513411210       -2.33758595982252
H            2.74299295343977        1.97188042108952       -4.25954381421093
H            0.26924021369091        1.86125224428697       -4.19519500017774
H           -0.86957251713696        0.95766677709917       -2.22817908689264
H           -1.34380177862475        2.16020595315895        0.32430552772894
H           -1.28000276668397       -2.08677769896224       -0.35670081812273
H           -4.89420677963132       -4.61999299461858       -0.55666817541956
H           -7.28104741596165       -5.16029916188634       -0.36497262949300
H           -8.95676928730918       -5.37588646689477        1.14274958634001
H          -10.56669648335281       -4.72509832542583        1.44469199485780
H           -9.15843142787340       -4.00829757202804        2.23522211039150
H          -10.90105218268353       -4.39467986648007       -1.07556411136380
H           -9.29158900463764       -5.04935062543455       -1.36907569032176
H           -9.71701132946461       -3.45741664526902       -1.99269930335220
H           -9.96802657733940       -1.77475577343167        1.34838041440712
H          -10.19605347301068       -1.54634491161898       -0.39507225254523
H          -11.28672214506272       -2.58730399359205        0.51244963088744
H           -8.11486598331565       -1.02787583844187        0.33304014442822
H           -8.15417624854198        0.87036593326895       -0.20501841902519
H          -10.05755341990430        1.55394200979220       -1.17157674283761
H          -11.38123129607119        2.32000883093464       -0.30035669591934
H          -10.23219434894970        1.31653747051738        0.57682388394296
H           -9.77634442064035        3.24096547796357        2.16473736880962
H           -9.42295552336661        4.84733527506851        1.53320556549609
H          -11.01612532471810        4.13768215987465        1.28134447457044
H           -9.16663694237749        5.18801577446584       -0.98592117990711
H          -10.76057730449981        4.48226640266630       -1.24618962762289
H           -9.34999850706592        3.81544195515121       -2.07537316138627
H           -7.44441210575913        5.02898902550324        0.47431754295257
H           -5.03637769774452        4.57071368809787        0.60367804589045
H           -0.81374222239517       -0.83445667299823        2.19798928164182
H            0.37463218967780       -1.71000359125446        4.14807509476678
H            2.85040333794352       -1.79057129958200        4.16361356244993
H            4.10123290660595       -0.95283320028412        2.21120740384391
H            7.77307639640820        1.12453041100268       -1.78837702780560
H           10.20712816460628        1.07430887970491       -1.72243148317691

 projected vibrational frequencies (cm⁻¹)
eigval :       -0.00    -0.00    -0.00     0.00     0.00     0.00
eigval :        2.68     4.23     6.13    10.09    14.80    21.71
eigval :       25.91    28.22    31.10    36.02    38.41    44.85
eigval :       46.36    51.97    60.83    67.65    69.27    74.14
eigval :       85.17    91.08   102.90   105.03   106.96   114.07
eigval :      122.24   128.74   136.58   149.00   152.03   172.01
eigval :      173.00   174.92   175.48   207.59   210.87   213.36
eigval :      218.02   219.80   220.23   225.94   226.99   233.08
eigval :      238.23   249.64   257.45   261.04   262.96   266.78
eigval :      273.76   279.68   287.57   296.26   315.98   317.33
eigval :      319.97   320.02   328.63   330.67   347.83   355.22
eigval :      357.65   359.31   362.05   370.33   372.75   380.01
eigval :      383.22   391.04   391.60   397.25   400.16   402.90
eigval :      403.61   408.25   416.42   428.85   430.62   433.77
eigval :      437.50   445.14   447.17   452.92   455.30   461.92
eigval :      466.24   477.16   488.22   489.40   502.99   511.40
eigval :      512.61   515.37   516.41   528.42   540.57   554.02
eigval :      558.46   573.15   594.60   594.80   595.36   597.92
eigval :      604.22   605.90   612.84   616.77   621.96   638.94
eigval :      645.47   652.84   664.92   667.74   677.72   685.25
eigval :      686.00   688.53   691.19   697.76   699.41   704.80
eigval :      710.19   719.49   750.34   770.02   771.48   772.26
eigval :      779.33   783.18   797.76   799.53   803.63   814.90
eigval :      816.88   830.10   837.75   838.00   844.68   860.68
eigval :      864.98   866.11   866.53   869.66   870.17   878.39
eigval :      883.26   884.62   885.58   894.26   896.45   899.45
eigval :      907.24   908.37   908.57   909.06   914.57   920.56
eigval :      920.88   921.26   921.63   926.61   928.08   937.31
eigval :      942.38   945.34   956.11   959.82   960.13   960.99
eigval :      962.37   962.47   962.84   963.04   963.94   964.78
eigval :     1003.58  1016.46  1032.52  1032.80  1033.25  1034.92
eigval :     1035.21  1035.65  1035.86  1072.68  1090.89  1101.05
eigval :     1103.64  1104.60  1106.62  1118.10  1123.42  1124.19
eigval :     1127.67  1128.41  1133.81  1140.87  1144.63  1162.41
eigval :     1163.89  1167.01  1181.19  1181.71  1182.68  1183.44
eigval :     1187.11  1191.95  1196.35  1203.86  1206.21  1213.44
eigval :     1214.70  1223.00  1223.21  1226.85  1227.22  1227.97
eigval :     1228.99  1229.49  1231.93  1233.98  1240.69  1245.02
eigval :     1260.16  1263.69  1267.23  1268.18  1274.37  1274.49
eigval :     1277.28  1286.03  1287.68  1289.99  1311.13  1317.85
eigval :     1318.29  1327.81  1329.14  1332.31  1333.93  1336.02
eigval :     1338.16  1338.40  1340.72  1367.99  1372.74  1381.62
eigval :     1397.62  1403.46  1403.53  1403.70  1404.93  1406.58
eigval :     1408.84  1409.55  1419.32  1426.57  1426.98  1427.50
eigval :     1429.44  1434.14  1436.27  1437.48  1448.23  1459.52
eigval :     1464.86  1466.34  1472.35  1477.59  1483.01  1489.62
eigval :     1491.17  1491.23  1491.32  1491.73  1493.20  1494.49
eigval :     1494.63  1499.72  1500.91  1502.04  1503.32  1504.65
eigval :     1506.14  1511.89  1513.54  1514.52  1514.52  1518.57
eigval :     1518.72  1523.68  1535.55  1557.90  1562.16  1562.98
eigval :     1565.93  1568.30  1576.97  1578.38  1585.63  1591.42
eigval :     1595.12  1599.02  3017.98  3018.41  3019.78  3019.80
eigval :     3025.71  3026.50  3027.09  3027.14  3027.37  3027.40
eigval :     3029.29  3031.05  3031.10  3031.71  3034.49  3035.53
eigval :     3035.91  3037.22  3037.81  3037.84  3041.15  3047.47
eigval :     3047.50  3048.03  3050.74  3050.94  3051.52  3077.08
eigval :     3078.16  3079.51  3079.77  3081.87  3082.43  3082.48
eigval :     3082.71  3082.80  3084.54  3085.77  3085.88  3094.32
eigval :     3094.42  3095.30  3096.09  3096.43  3097.49  3097.73
eigval :     3098.16  3098.22  3101.68  3101.91  3108.74  3108.95
eigval :     3119.19  3143.36  3152.16

   temp. (K)  partition function   enthalpy   heat capacity  entropy
                                   cal/mol     cal/K/mol   cal/K/mol   J/K/mol
 298.15  VIB  0.129E+30            35367.612    219.058    222.500
         ROT  0.238E+09              888.752      2.981     41.311
         INT  0.308E+38            36256.364    222.039    263.811
         TR   0.244E+29             1481.254      4.968     46.107
         TOT                       37737.6182   227.0068   309.9180  1296.6969

       T/K    H(0)-H(T)+PV         H(T)/Eh          T*S/Eh         G(T)/Eh
   ------------------------------------------------------------------------
    298.15    0.601387E-01    0.103318E+01    0.147252E+00    0.885929E+00
   ------------------------------------------------------------------------

         :::::::::::::::::::::::::::::::::::::::::::::::::::::
         ::                  THERMODYNAMIC                  ::
         :::::::::::::::::::::::::::::::::::::::::::::::::::::
         :: total free energy        -173.059444947395 Eh   ::
         ::.................................................::
         :: total energy             -173.945374180419 Eh   ::
         :: zero point energy           0.973042555890 Eh   ::
         :: G(RRHO) w/o ZPVE           -0.087113322866 Eh   ::
         :: G(RRHO) contrib.            0.885929233024 Eh   ::
         :::::::::::::::::::::::::::::::::::::::::::::::::::::

           -------------------------------------------------
          | TOTAL ENERGY             -173.945374180419 Eh   |
          | TOTAL ENTHALPY           -172.912192901893 Eh   |
          | TOTAL FREE ENERGY        -173.059444947395 Eh   |
          | GRADIENT NORM               0.000096759975 Eh/α |
           -------------------------------------------------

 * finished run on 2025/08/22 at 23:53:53.241
