   * xtb version 6.7.1 (edcfbbe) compiled by 'albert@albert-system' on 2024-07-22

   ID    Z sym.   atoms
    1    6 C      1-8, 10-28, 30-35, 37-46, 48-57, 59-66
    2    7 N      9, 29
    3    8 O      36, 58
    4    5 B      47
    5    1 H      67-121

          program call               : xtb data2507/gas/TDBA-SBA/TDBA-SBA_gas_T1_crest.xyz --gfn 2 --spinpol --tblite --uhf 2 --ohess vtight --parallel 40 --molden --ceasefiles --namespace data2507/gas/TDBA-SBA/TDBA-SBA_gas_T1_finalOpt
 * total energy  :  -173.9453986 Eh     change        0.1426815E-07 Eh
 * total energy  :  -173.9454038 Eh     change       -0.5225446E-05 Eh
 * total energy  :  -173.9454056 Eh     change       -0.1804176E-05 Eh
 * total energy  :  -173.9454066 Eh     change       -0.1026286E-05 Eh
 * total energy  :  -173.9454085 Eh     change       -0.1908586E-05 Eh
 * total energy  :  -173.9454102 Eh     change       -0.1655907E-05 Eh
 * total energy  :  -173.9454123 Eh     change       -0.2134960E-05 Eh
 * total energy  :  -173.9454146 Eh     change       -0.2316378E-05 Eh
 * total energy  :  -173.9454163 Eh     change       -0.1694021E-05 Eh
 * total energy  :  -173.9454173 Eh     change       -0.1013099E-05 Eh
 * total energy  :  -173.9454186 Eh     change       -0.5458368E-06 Eh
 * total energy  :  -173.9454191 Eh     change       -0.4660749E-06 Eh
 * total energy  :  -173.9454196 Eh     change       -0.5231504E-06 Eh
 * total energy  :  -173.9454202 Eh     change       -0.5473318E-06 Eh
 * total energy  :  -173.9454206 Eh     change       -0.4206994E-06 Eh
 * total energy  :  -173.9454211 Eh     change       -0.5217249E-06 Eh
 * total energy  :  -173.9454214 Eh     change       -0.2434254E-06 Eh
 * total energy  :  -173.9454215 Eh     change       -0.1536415E-06 Eh
 * total energy  :  -173.9454216 Eh     change       -0.8410564E-07 Eh
   *** GEOMETRY OPTIMIZATION CONVERGED AFTER 20 ITERATIONS ***

 final structure:
================
121
 xtb: 6.7.1 (edcfbbe)
C           12.31410902570250       -1.50325725415260        0.31477158411272
C           11.85677541525940       -0.05948390628454        0.06264422173806
C           12.33521067492674        0.84637096402349        1.20616539713315
C           12.50588274754255        0.42733059639836       -1.23565625639388
C           10.33800122590444       -0.02564298689037        0.00758949062677
C            9.60367361641068       -0.43900905196859        1.11767376692691
C            8.22301784264567       -0.42785150117886        1.11628223220797
C            7.53514937929100        0.00194315337543       -0.01010994484952
N            6.11117313494525        0.01498690260261       -0.01998318394253
C            5.44816834768834        1.16690196526779        0.36571977296051
C            6.17147074772260        2.29801262322338        0.75686419650268
C            5.52118123504019        3.45184565668757        1.14157472285203
C            4.13712876671070        3.50596242032035        1.14635396064616
C            3.41649609911850        2.39004697254654        0.76403672483092
C            4.05148579216598        1.22135621389671        0.37423678959003
C            3.19604099431800        0.03600693558484       -0.02551236412891
C            4.03588251449467       -1.15835848009451       -0.43228102901498
C            3.38585674609227       -2.31518020237133       -0.83258576896587
C            4.09196637351036       -3.43982982694505       -1.21638627138918
C            5.47660273540355       -3.40709611454098       -1.20147039082924
C            6.14171950300894       -2.26531270408250       -0.80633919946942
C            5.43313046521911       -1.12510427424104       -0.41464867820402
C            2.34529161504286        0.43748949522722       -1.21081064477568
C            2.98297380146852        0.83085133754434       -2.37683896507792
C            2.26492780551702        1.19073193166286       -3.50175140770143
C            0.87957253466575        1.14676097773008       -3.46438677966120
C            0.22644476690059        0.75910738178683       -2.31478730721212
C            0.94642144378050        0.40781635876121       -1.16605088598362
N            0.27902224182933        0.02944660419503       -0.01709859326257
C           -1.14410112200206        0.02039440419305       -0.01427674130122
C           -1.85055975403458        1.21961149313507        0.12331908756600
C           -3.23802620321311        1.19667304466151        0.12007845282371
C           -3.96970057049331        0.00086374314504       -0.00474442796645
C           -3.22247624771945       -1.18467404194095       -0.13539936636918
C           -1.83487518320194       -1.18838360296917       -0.14774329327269
O           -3.83769961141271       -2.39051460179777       -0.26767125053557
C           -5.19386654707017       -2.51654759054151       -0.19161866166053
C           -5.65338587387898       -3.82726554626902       -0.27413510791636
C           -7.00341019383181       -4.10436397310357       -0.16856722571852
C           -7.92415576743426       -3.07248085117165        0.04379809431642
C           -9.39928681253729       -3.41218310104598        0.17702501423959
C           -9.58597479911595       -4.35866246571208        1.37212722776388
C           -9.87139740713228       -4.10371601702239       -1.11033427705467
C          -10.27935954937780       -2.17975416358696        0.40444399383068
C           -7.44293951708822       -1.77372496713156        0.11685636626684
C           -6.09020724952264       -1.42949748767720       -0.02727534235624
B           -5.48739183994813       -0.00972736544815        0.00221133661620
C           -6.11010695718991        1.40128474335374        0.03804665932594
C           -7.46907685715031        1.72648719334482       -0.09145058184467
C           -7.96754979191748        3.01849638000064       -0.01421016021435
C           -9.44861324112353        3.33778808163141       -0.13145694822122
C          -10.31511848555803        2.09240595188833       -0.33957261581680
C           -9.91446361457574        4.03199687897149        1.15676067763630
C           -9.66187217382341        4.27349185444606       -1.33059431099672
C           -7.05895154438510        4.06345897031438        0.18610349412179
C           -5.70418631552475        3.80526176245585        0.27779053405092
C           -5.22742819288698        2.50090299914016        0.19252180652837
O           -3.86897105952088        2.39395818396811        0.25596127750048
C            0.95471142267260       -0.33905780034110        1.13022432227565
C            0.24270444424392       -0.68923890314185        2.28427396326742
C            0.90392952616312       -1.06588209537823        3.43288189935866
C            2.28971507360623       -1.09963559183843        3.46394422653936
C            2.99982032629361       -0.74153403618349        2.33345241740924
C            2.35391297083522       -0.35920753287420        1.16827416464506
C            8.24772353095586        0.41717854580726       -1.12399993136923
C            9.63163450954219        0.40212752431005       -1.11053629665597
H           11.93628532422156       -1.88117634047806        1.26063285608142
H           11.95778037509165       -2.15521644043331       -0.48016740529481
H           13.40045715822801       -1.55165959528844        0.33911000791768
H           13.42203767673481        0.84960467062602        1.24968234967766
H           11.99365802492896        1.86697212297781        1.04601704079081
H           11.95822127809233        0.50757724623851        2.16704791140361
H           13.58839652244626        0.38114072607649       -1.13736629908091
H           12.23310485826556        1.45844133988501       -1.44821156607846
H           12.21949764823436       -0.19973039397401       -2.07681233099776
H           10.11197356667187       -0.77851691274412        2.00701934441700
H            7.67090401968189       -0.75244413566923        1.98607698886186
H            7.25033766718226        2.26510799443751        0.75810058215609
H            6.10025502882429        4.31309025658744        1.43960673018806
H            3.62512685724225        4.40704320323922        1.44600741737223
H            2.33642105026112        2.41859592295487        0.76631001233618
H            2.30554151865212       -2.32772446260372       -0.84177707351677
H            3.56830105885687       -4.33135820303961       -1.52434044105260
H            6.04451391264354       -4.27567905073025       -1.49967746906610
H            7.22094161040391       -2.24915217228078       -0.79954809483492
H            4.06321990346756        0.85112902018307       -2.39626435165291
H            2.77880866405035        1.49662350546460       -4.39987051957570
H            0.30408622063832        1.41479792312327       -4.33756478095403
H           -0.85121649255706        0.72042892990403       -2.29501250415427
H           -1.32520986652006        2.15541843069138        0.23502295292131
H           -1.29736944181131       -2.11690004290217       -0.26245049768992
H           -4.93373158096904       -4.62011290148222       -0.41264402569847
H           -7.32864227938872       -5.13037402303068       -0.23971117544584
H           -9.03234925062408       -5.28332313670585        1.23563702064371
H          -10.63884074608161       -4.60596999561598        1.49338618849589
H           -9.23469445494840       -3.88272770288267        2.28535307602254
H           -9.32242427433165       -5.02365665096312       -1.29051443172221
H           -9.72372786645993       -3.44603819316952       -1.96447056994541
H          -10.92988578820978       -4.34640531956360       -1.03919482721290
H          -10.00175405299005       -1.66467273299459        1.32117189915552
H          -10.20696867483727       -1.48745607627379       -0.43103281951444
H          -11.31918407079461       -2.48880368794395        0.49454896377294
H           -8.13063839509361       -0.96841116565802        0.29985455847369
H           -8.14757919468158        0.91159621024999       -0.26628651062921
H          -10.04413849703780        1.57612823625353       -1.25759487921624
H          -11.36022708476038        2.38698440212928       -0.41603304397253
H          -10.22108436920841        1.40572309765999        0.49838601354278
H           -9.74522306391486        3.38347532524507        2.01388256774397
H           -9.37798909938888        4.96192359746388        1.32263288660822
H          -10.97749205439244        4.25748825253832        1.09784621832465
H           -9.11657479322117        5.20504444342101       -1.20801554762422
H          -10.71893556527505        4.50834189195360       -1.43942628904186
H           -9.31754403962676        3.79489530703433       -2.24507265519639
H           -7.39759452776416        5.08499445853331        0.25885825632678
H           -4.99415225675933        4.60814528692334        0.40781758628716
H           -0.83528230211782       -0.65833187336661        2.26945008518861
H            0.33447361724899       -1.33321724669702        4.31021644759485
H            2.81001488493223       -1.39670329259812        4.36133718734884
H            4.08022554830816       -0.75471915009635        2.34791486559341
H            7.71490388936909        0.75267183052280       -2.00173296195302
H           10.15046677661647        0.73221021729040       -1.99512502040003

 projected vibrational frequencies (cm⁻¹)
eigval :       -0.00     0.00     0.00     0.00     0.00     0.00
eigval :        3.16     4.23     4.40     6.04    14.79    20.08
eigval :       25.79    28.35    30.84    35.91    38.00    44.60
eigval :       45.95    50.91    61.07    67.50    69.09    74.15
eigval :       84.89    90.16   102.51   104.56   106.51   114.11
eigval :      122.00   127.07   136.39   147.99   151.59   172.02
eigval :      172.59   174.94   175.29   207.74   211.37   213.08
eigval :      217.08   219.54   220.09   226.00   227.07   233.16
eigval :      238.71   249.27   257.37   260.51   261.92   265.93
eigval :      274.07   279.22   286.83   296.31   316.32   316.91
eigval :      320.04   320.26   328.57   330.54   347.77   355.60
eigval :      357.45   359.38   361.95   370.17   372.61   379.85
eigval :      382.92   391.09   391.51   397.53   399.76   402.21
eigval :      403.18   407.92   416.26   428.54   430.47   433.42
eigval :      438.08   445.20   446.47   452.49   455.66   461.84
eigval :      466.00   477.18   488.03   489.44   502.96   511.81
eigval :      512.18   515.49   516.04   527.89   540.38   554.18
eigval :      558.43   573.26   594.69   594.83   595.29   597.87
eigval :      604.42   605.74   612.70   617.01   622.03   639.02
eigval :      645.66   652.74   665.14   667.86   677.90   685.02
eigval :      685.96   688.42   691.07   697.80   699.49   704.64
eigval :      710.42   719.57   750.43   770.27   771.36   772.31
eigval :      779.36   782.22   797.94   798.89   803.26   814.66
eigval :      816.41   828.26   836.37   837.33   844.61   860.29
eigval :      864.79   866.23   866.33   869.62   869.96   878.48
eigval :      883.43   884.46   885.47   894.32   896.48   899.39
eigval :      907.36   908.30   908.62   908.94   914.25   920.56
eigval :      920.89   921.36   921.66   926.65   927.96   937.08
eigval :      942.49   945.45   956.00   959.79   960.29   961.09
eigval :      962.47   962.63   962.90   963.13   964.06   964.74
eigval :     1003.73  1016.33  1032.54  1032.90  1033.40  1035.03
eigval :     1035.36  1035.77  1035.86  1072.49  1090.77  1100.59
eigval :     1103.09  1104.04  1106.22  1117.36  1123.61  1124.10
eigval :     1127.65  1128.73  1133.62  1140.82  1144.46  1162.51
eigval :     1163.76  1167.28  1181.43  1181.74  1182.58  1183.48
eigval :     1186.94  1192.33  1196.54  1203.85  1206.56  1213.61
eigval :     1213.91  1222.98  1223.29  1226.91  1227.23  1228.06
eigval :     1228.85  1229.45  1231.93  1234.04  1240.48  1245.05
eigval :     1260.19  1263.71  1267.46  1268.08  1274.23  1275.00
eigval :     1278.13  1286.11  1288.07  1290.55  1311.05  1318.69
eigval :     1319.27  1327.98  1329.33  1332.72  1334.15  1336.00
eigval :     1338.11  1338.91  1340.34  1368.02  1372.36  1381.88
eigval :     1397.59  1403.59  1403.66  1403.79  1405.12  1406.70
eigval :     1409.22  1409.64  1419.64  1427.20  1427.55  1428.18
eigval :     1430.15  1434.45  1436.50  1437.63  1448.42  1459.96
eigval :     1465.16  1466.45  1472.53  1476.96  1483.10  1489.71
eigval :     1491.35  1491.43  1491.51  1491.98  1493.45  1494.74
eigval :     1494.89  1500.01  1500.99  1502.26  1503.61  1504.78
eigval :     1506.37  1511.73  1513.66  1514.66  1514.75  1518.81
eigval :     1518.93  1524.04  1535.87  1558.74  1561.37  1563.34
eigval :     1566.52  1568.32  1576.88  1579.45  1585.80  1591.28
eigval :     1594.51  1598.23  3018.06  3018.50  3019.80  3019.83
eigval :     3025.78  3026.40  3027.10  3027.11  3027.41  3027.46
eigval :     3029.37  3031.22  3031.28  3031.82  3034.59  3035.52
eigval :     3035.87  3037.20  3037.93  3038.04  3041.26  3047.82
eigval :     3047.83  3048.40  3050.88  3051.10  3051.62  3077.38
eigval :     3077.67  3079.63  3079.93  3082.10  3082.50  3082.59
eigval :     3082.68  3082.79  3084.75  3085.78  3085.81  3094.62
eigval :     3094.77  3095.30  3095.76  3096.06  3097.79  3097.92
eigval :     3098.18  3098.49  3101.72  3101.88  3108.18  3108.25
eigval :     3119.37  3144.39  3153.53

   temp. (K)  partition function   enthalpy   heat capacity  entropy
                                   cal/mol     cal/K/mol   cal/K/mol   J/K/mol
 298.15  VIB  0.301E+30            35394.983    219.020    223.389
         ROT  0.238E+09              888.752      2.981     41.311
         INT  0.716E+38            36283.735    222.001    264.699
         TR   0.244E+29             1481.254      4.968     46.107
         TOT                       37764.9894   226.9694   310.8066  1300.4147

       T/K    H(0)-H(T)+PV         H(T)/Eh          T*S/Eh         G(T)/Eh
   ------------------------------------------------------------------------
    298.15    0.601823E-01    0.103320E+01    0.147674E+00    0.885524E+00
   ------------------------------------------------------------------------

         :::::::::::::::::::::::::::::::::::::::::::::::::::::
         ::                  THERMODYNAMIC                  ::
         :::::::::::::::::::::::::::::::::::::::::::::::::::::
         :: total free energy        -173.059897598008 Eh   ::
         ::.................................................::
         :: total energy             -173.945421685106 Eh   ::
         :: zero point energy           0.973015974339 Eh   ::
         :: G(RRHO) w/o ZPVE           -0.087491887241 Eh   ::
         :: G(RRHO) contrib.            0.885524087098 Eh   ::
         :::::::::::::::::::::::::::::::::::::::::::::::::::::

           -------------------------------------------------
          | TOTAL ENERGY             -173.945421685106 Eh   |
          | TOTAL ENTHALPY           -172.912223369372 Eh   |
          | TOTAL FREE ENERGY        -173.059897598008 Eh   |
          | GRADIENT NORM               0.000087660865 Eh/α |
           -------------------------------------------------

 * finished run on 2025/08/23 at 00:16:44.782
