   * xtb version 6.7.1 (edcfbbe) compiled by 'albert@albert-system' on 2024-07-22

   ID    Z sym.   atoms
    1    6 C      1-8, 10-28, 30-35, 37-46, 48-57, 59-66
    2    7 N      9, 29
    3    8 O      36, 58
    4    5 B      47
    5    1 H      67-121

          program call               : xtb data2507/gas/TDBA-SBA/TDBA-SBA.xyz --gfn 2 --ohess vtight --parallel 40 --molden --ceasefiles --namespace data2507/gas/TDBA-SBA/TDBA-SBA_gas_S0_preOpt
          :  Hamiltonian                  GFN2-xTB          :
 * total energy  :  -173.9279403 Eh     change       -0.8886730E-08 Eh
 * total energy  :  -173.9822512 Eh     change       -0.5431091E-01 Eh
 * total energy  :  -174.0038369 Eh     change       -0.2158575E-01 Eh
 * total energy  :  -174.0128934 Eh     change       -0.9056510E-02 Eh
 * total energy  :  -174.0184464 Eh     change       -0.5552998E-02 Eh
 * total energy  :  -174.0222632 Eh     change       -0.3816735E-02 Eh
 * total energy  :  -174.0252181 Eh     change       -0.2954955E-02 Eh
 * total energy  :  -174.0276323 Eh     change       -0.2414233E-02 Eh
 * total energy  :  -174.0296213 Eh     change       -0.1988910E-02 Eh
 * total energy  :  -174.0312422 Eh     change       -0.1620965E-02 Eh
 * total energy  :  -174.0380830 Eh     change       -0.3373349E-06 Eh
 * total energy  :  -174.0380833 Eh     change       -0.3640136E-06 Eh
 * total energy  :  -174.0380837 Eh     change       -0.3504835E-06 Eh
 * total energy  :  -174.0380840 Eh     change       -0.3309174E-06 Eh
 * total energy  :  -174.0380844 Eh     change       -0.3390464E-06 Eh
 * total energy  :  -174.0380848 Eh     change       -0.4749258E-06 Eh
 * total energy  :  -174.0380853 Eh     change       -0.5131513E-06 Eh
 * total energy  :  -174.0380858 Eh     change       -0.4975537E-06 Eh
 * total energy  :  -174.0380858 Eh     change       -0.3117094E-08 Eh
   *** GEOMETRY OPTIMIZATION CONVERGED AFTER 122 ITERATIONS ***

 final structure:
================
121
 xtb: 6.7.1 (edcfbbe)
C           12.60319497768020        0.86602041602815        1.25722540933385
C           12.01022230650783        0.33995465492799       -0.05263812077611
C           12.40811176763599        1.30425376113834       -1.17914759816636
C           12.60368205172806       -1.05002602881590       -0.32229301819172
C           10.49431306547298        0.23120326950390       -0.00859586580285
C            9.80888756206280       -0.23377555994028       -1.12937622742464
C            8.43298251277611       -0.34751624074779       -1.13961381779277
C            7.69886842140402        0.00738907850044       -0.01592894211456
N            6.28032556978771       -0.10041844072100       -0.01838979262314
C            5.69183135856432       -1.24195438492206        0.50094055518472
C            6.48505705253159       -2.28273494629239        0.99133313732849
C            5.90920732678700       -3.42394230008602        1.51123630068300
C            4.53185016079352       -3.55556119654447        1.55187154397892
C            3.74257811108230       -2.53160322499833        1.06230393406789
C            4.30186158561185       -1.37792537427887        0.53641813626148
C            3.37198449019351       -0.30022476308413        0.01908699636190
C            4.13332686211904        0.87686291858904       -0.55818299551250
C            3.41034542330033        1.92877347034862       -1.09785588096330
C            4.04064631867389        3.04069656307223       -1.62447598390005
C            5.42317635852139        3.10408020712456       -1.60596640820908
C            6.16075226637691        2.06656103119918       -1.07349569198721
C            5.52906555292157        0.93648484452511       -0.54724800464848
C            2.53822286261503        0.20674094784577        1.17806844079798
C            3.19442248933599        0.70757194942297        2.29149655741577
C            2.49628131177981        1.18501856541211        3.38462173449121
C            1.11265883872942        1.15115690710540        3.36757917490018
C            0.44152992412089        0.65579249341155        2.26835945857441
C            1.14196568493940        0.18837425771015        1.15322626163726
N            0.45652567979743       -0.30637403046457        0.05343324815283
C           -0.96159545060384       -0.24217240059411        0.04433465283222
C           -1.58278732960280        0.97119337428106       -0.21777055804458
C           -2.97130213404052        1.03764639072439       -0.21457131863139
C           -3.75482989209349       -0.10098822019630        0.02837207824712
C           -3.09283216098208       -1.31258409790636        0.28108300261008
C           -1.70468182271135       -1.38673534201417        0.29986893358136
O           -3.77637291100639       -2.45031887924399        0.52803284485526
C           -5.13541960066749       -2.50524347095630        0.43538845888483
C           -5.67994376988721       -3.77394963728230        0.62756156591763
C           -7.03780766046646       -3.97680823984613        0.52572316501199
C           -7.89606149771458       -2.92273985568634        0.21127543377675
C           -9.39936717521311       -3.09738579724197        0.05342985112724
C           -9.85454531821142       -4.53665254999933        0.30862111211490
C           -9.79858878285051       -2.71551531704063       -1.37904446637284
C          -10.12134892221999       -2.18414118520016        1.05463331263225
C           -7.33299871342579       -1.67012168902436        0.03650976834383
C           -5.96517898815708       -1.40272634514221        0.16072075768006
B           -5.27781915641790       -0.02341702132971        0.01957811803435
C           -5.81974532786075        1.41852420776036       -0.12503656345407
C           -7.15943695266069        1.81835897252938       -0.01275975801623
C           -7.58796021618937        3.11983554041389       -0.18314627172706
C           -9.04541095884241        3.53748541785020       -0.05996709578864
C           -9.97497824436433        2.35979470909748        0.24752195869592
C           -9.17555302709024        4.56017664041723        1.07739660572443
C           -9.49944756957528        4.16975514079507       -1.38323001574996
C           -6.61986588458774        4.08514748384512       -0.47974183161449
C           -5.29057847507195        3.75191951013215       -0.57135465397358
C           -4.88030226985662        2.43082851735516       -0.38376425928072
O           -3.53364399126970        2.23925183115170       -0.46449540725917
C            1.11748287655314       -0.85486122202702       -1.03596269849776
C            0.39600618279610       -1.36437862355432       -2.11865183354902
C            1.04565840890319       -1.91877538883520       -3.20261365324929
C            2.42828778416138       -1.97297697056865       -3.23630395279056
C            3.14754606612262       -1.45148789596065       -2.17753328656543
C            2.51330840360484       -0.89000966175017       -1.08043545580698
C            8.36386286212781        0.47070242916799        1.10848454018147
C            9.74370246729223        0.57860667541000        1.10831484866257
H           12.23375647267385        1.86389387910541        1.48204095644666
H           12.37064626924043        0.20285213697420        2.08723232728483
H           13.68605408387212        0.92234897575624        1.16678677162960
H           11.97078931234418        2.28547627516220       -1.00612281508458
H           13.49014615040393        1.41050936976838       -1.21559114008936
H           12.06918545381830        0.94627314148425       -2.14725508039186
H           13.69003116107219       -0.99560461398530       -0.33988097399791
H           12.26814130601951       -1.44759030183942       -1.27600804719985
H           12.30571986175618       -1.74449005426335        0.46057680515138
H           10.35290436259176       -0.51588157982168       -2.01792603991391
H            7.91878988256547       -0.70836512900351       -2.01841390523442
H            7.56050156560194       -2.19255589666376        0.96096587320400
H            6.54308190101550       -4.21451524067757        1.88529193569584
H            4.07784368012817       -4.44616932106535        1.95849638637962
H            2.66577769909755       -2.62093527265666        1.08485480003765
H            2.33150324135986        1.86899179562158       -1.10189914021412
H            3.45999517720758        3.84944619963884       -2.04097204560415
H            5.93437259787070        3.96668640939810       -2.00758321997517
H            7.23846712047022        2.12874392243575       -1.06129623196132
H            4.27492901288828        0.72005962373717        2.29426629619996
H            3.02502147446428        1.57398027523701        4.24127863305267
H            0.54849643211741        1.50962526619021        4.21597267001718
H           -0.63729242723599        0.62557534363861        2.27168487867309
H           -0.99968906594795        1.85767208135123       -0.40962208649725
H           -1.21597351873833       -2.32642556480707        0.50190212272942
H           -5.01194025037653       -4.59261045009487        0.84817864674125
H           -7.41835342912623       -4.97260406311191        0.68224723019372
H           -9.39574621909984       -5.22411343590182       -0.39818982177220
H          -10.93389977330470       -4.60236910115683        0.18670949387718
H           -9.61177956363093       -4.85001831039306        1.32139290845473
H           -9.54620157379295       -1.68189339507948       -1.59930203646881
H          -10.87059021743769       -2.84150113636736       -1.51573223260498
H           -9.28206542399654       -3.35114637870191       -2.09524894597563
H           -9.81447017096128       -2.42310968887347        2.07076695170203
H           -9.90062723858245       -1.13677032467749        0.86948441242385
H          -11.19788254692820       -2.32156569280447        0.97790693685225
H           -7.97440855570338       -0.84626375073670       -0.22823200981169
H           -7.87441265773058        1.05625329511819        0.23974883454702
H           -9.93796489482954        1.61562387689784       -0.54511977461955
H          -10.99986629573289        2.71787689899032        0.32179554091332
H           -9.71545325568487        1.89127071841722        1.19426515390127
H           -8.83960155419094        4.12344245597146        2.01565144626826
H           -8.57936823264226        5.44723676756851        0.88237016879506
H          -10.21365051056817        4.86558999910855        1.19056862062026
H           -8.91964554653253        5.05751303558368       -1.61931537547949
H          -10.54744592648000        4.45548185112248       -1.32155918801756
H           -9.38258929932213        3.45948676998325       -2.19924357967215
H           -6.90498082539329        5.11546075807240       -0.62805851121328
H           -4.54033177283003        4.49964699332787       -0.77870046545856
H           -0.68218498129728       -1.32019992954523       -2.10997483159579
H            0.46507547187689       -2.30807636602506       -4.02598598967941
H            2.94002540752381       -2.40794115382250       -4.08105648501614
H            4.22787894220718       -1.47351185044803       -2.19555964555117
H            7.79629999242532        0.74591337315246        1.98549216012209
H           10.22365495367972        0.94318263923173        2.00146118761935

          :  Hamiltonian                  GFN2-xTB          :
         :: gradient norm              0.000039984949 Eh/a0 ::
         :: HOMO-LUMO gap              1.793819196436 eV    ::
         :: SCC energy              -177.045826075422 Eh    ::
         :: -> dispersion             -0.171799489397 Eh    ::
         :: repulsion energy           3.007740235590 Eh    ::

    * Orbital Energies and Occupations

         #    Occupation            Energy/Eh            Energy/eV
      -------------------------------------------------------------
         1        2.0000           -0.7296511             -19.8548
       ...           ...                  ...                  ...
       150        2.0000           -0.3972332             -10.8093
       151        2.0000           -0.3963697             -10.7858
       152        2.0000           -0.3962068             -10.7813
       153        2.0000           -0.3951689             -10.7531
       154        2.0000           -0.3923482             -10.6763
       155        2.0000           -0.3883807             -10.5684
       156        2.0000           -0.3836171             -10.4388
       157        2.0000           -0.3826578             -10.4126
       158        2.0000           -0.3823323             -10.4038
       159        2.0000           -0.3818806             -10.3915
       160        2.0000           -0.3675364             -10.0012
       161        2.0000           -0.3393239              -9.2335
       162        2.0000           -0.3378480              -9.1933 (HOMO)
       163                         -0.2719264              -7.3995 (LUMO)
       164                         -0.2339335              -6.3657
       165                         -0.2309290              -6.2839
       166                         -0.2283376              -6.2134
       167                         -0.2269604              -6.1759
       168                         -0.2248729              -6.1191
       169                         -0.2208403              -6.0094
       170                         -0.2138698              -5.8197
       171                         -0.2126395              -5.7862
       172                         -0.2116688              -5.7598
       173                         -0.2115899              -5.7577
       ...                                ...                  ...
       319                          0.6991586              19.0251
      -------------------------------------------------------------
                  HL-Gap            0.0659217 Eh            1.7938 eV

     #   Z          covCN         q      C6AA      α(0)
     1   6 C        3.761    -0.108    22.618     6.780
     2   6 C        3.903     0.026    20.083     6.370
     3   6 C        3.762    -0.106    22.571     6.772
     4   6 C        3.762    -0.106    22.572     6.773
     5   6 C        2.973     0.009    27.814     8.651
     6   6 C        2.927    -0.035    28.861     8.810
     7   6 C        2.920    -0.040    29.000     8.831
     8   6 C        2.928     0.065    26.544     8.449
     9   7 N        2.753    -0.072    22.646     7.068
    10   6 C        2.926     0.060    26.659     8.467
    11   6 C        2.924    -0.059    29.461     8.901
    12   6 C        2.920    -0.033    28.824     8.804
    13   6 C        2.917    -0.044    29.089     8.844
    14   6 C        2.927    -0.034    28.849     8.808
    15   6 C        2.988    -0.012    28.298     8.726
    16   6 C        3.928     0.015    20.256     6.396
    17   6 C        2.989    -0.012    28.301     8.727
    18   6 C        2.927    -0.035    28.862     8.810
    19   6 C        2.917    -0.044    29.094     8.845
    20   6 C        2.920    -0.033    28.826     8.804
    21   6 C        2.924    -0.059    29.460     8.901
    22   6 C        2.926     0.060    26.654     8.467
    23   6 C        2.989    -0.011    28.271     8.722
    24   6 C        2.927    -0.034    28.849     8.808
    25   6 C        2.917    -0.043    29.080     8.843
    26   6 C        2.920    -0.033    28.813     8.802
    27   6 C        2.924    -0.058    29.438     8.898
    28   6 C        2.926     0.060    26.657     8.467
    29   7 N        2.754    -0.068    22.550     7.053
    30   6 C        2.930     0.073    26.367     8.421
    31   6 C        2.916    -0.078    29.960     8.976
    32   6 C        2.874     0.141    24.933     8.185
    33   6 C        2.888    -0.125    31.176     9.154
    34   6 C        2.874     0.141    24.932     8.185
    35   6 C        2.915    -0.079    29.966     8.977
    36   8 O        1.711    -0.221    17.665     5.675
    37   6 C        2.878     0.135    25.058     8.206
    38   6 C        2.914    -0.055    29.375     8.888
    39   6 C        2.926    -0.036    28.885     8.814
    40   6 C        2.969     0.001    28.013     8.682
    41   6 C        3.903     0.026    20.088     6.371
    42   6 C        3.761    -0.108    22.618     6.780
    43   6 C        3.762    -0.106    22.574     6.773
    44   6 C        3.761    -0.106    22.576     6.773
    45   6 C        2.933    -0.040    28.984     8.829
    46   6 C        2.882    -0.092    30.314     9.026
    47   5 B        2.724     0.211    18.226     7.153
    48   6 C        2.882    -0.093    30.325     9.028
    49   6 C        2.931    -0.044    29.091     8.845
    50   6 C        2.969     0.000    28.016     8.682
    51   6 C        3.903     0.025    20.090     6.371
    52   6 C        3.761    -0.106    22.581     6.774
    53   6 C        3.762    -0.106    22.579     6.774
    54   6 C        3.762    -0.106    22.577     6.773
    55   6 C        2.928    -0.031    28.778     8.798
    56   6 C        2.913    -0.055    29.360     8.885
    57   6 C        2.878     0.135    25.049     8.205
    58   8 O        1.711    -0.220    17.652     5.673
    59   6 C        2.925     0.060    26.658     8.467
    60   6 C        2.924    -0.058    29.449     8.899
    61   6 C        2.920    -0.033    28.813     8.802
    62   6 C        2.917    -0.043    29.079     8.843
    63   6 C        2.927    -0.034    28.844     8.808
    64   6 C        2.989    -0.011    28.273     8.722
    65   6 C        2.921    -0.040    29.002     8.831
    66   6 C        2.925    -0.039    28.966     8.826
    67   1 H        0.925     0.037     2.493     2.469
    68   1 H        0.925     0.037     2.493     2.469
    69   1 H        0.925     0.038     2.478     2.462
    70   1 H        0.925     0.035     2.522     2.484
    71   1 H        0.925     0.039     2.464     2.455
    72   1 H        0.925     0.037     2.485     2.465
    73   1 H        0.925     0.039     2.464     2.455
    74   1 H        0.925     0.037     2.485     2.465
    75   1 H        0.925     0.035     2.522     2.483
    76   1 H        0.926     0.036     2.508     2.477
    77   1 H        0.926     0.037     2.483     2.464
    78   1 H        0.926     0.024     2.674     2.557
    79   1 H        0.926     0.026     2.643     2.542
    80   1 H        0.926     0.025     2.652     2.546
    81   1 H        0.926     0.025     2.659     2.550
    82   1 H        0.926     0.025     2.658     2.549
    83   1 H        0.926     0.025     2.653     2.547
    84   1 H        0.926     0.026     2.642     2.542
    85   1 H        0.926     0.024     2.669     2.555
    86   1 H        0.926     0.025     2.653     2.547
    87   1 H        0.926     0.026     2.646     2.544
    88   1 H        0.926     0.027     2.624     2.533
    89   1 H        0.926     0.025     2.659     2.550
    90   1 H        0.926     0.054     2.268     2.355
    91   1 H        0.926     0.055     2.259     2.350
    92   1 H        0.926     0.044     2.400     2.423
    93   1 H        0.926     0.043     2.414     2.430
    94   1 H        0.925     0.036     2.502     2.474
    95   1 H        0.925     0.037     2.493     2.469
    96   1 H        0.925     0.036     2.501     2.473
    97   1 H        0.925     0.036     2.502     2.474
    98   1 H        0.925     0.038     2.477     2.461
    99   1 H        0.925     0.034     2.530     2.487
   100   1 H        0.925     0.034     2.532     2.488
   101   1 H        0.925     0.036     2.496     2.471
   102   1 H        0.925     0.038     2.480     2.463
   103   1 H        0.926     0.039     2.457     2.451
   104   1 H        0.926     0.044     2.391     2.418
   105   1 H        0.925     0.034     2.530     2.487
   106   1 H        0.925     0.037     2.488     2.467
   107   1 H        0.925     0.036     2.507     2.476
   108   1 H        0.925     0.034     2.527     2.486
   109   1 H        0.925     0.037     2.493     2.469
   110   1 H        0.925     0.038     2.479     2.462
   111   1 H        0.925     0.037     2.492     2.469
   112   1 H        0.925     0.038     2.479     2.462
   113   1 H        0.925     0.034     2.531     2.488
   114   1 H        0.926     0.036     2.501     2.473
   115   1 H        0.926     0.044     2.396     2.421
   116   1 H        0.926     0.025     2.652     2.547
   117   1 H        0.926     0.027     2.625     2.533
   118   1 H        0.926     0.026     2.645     2.543
   119   1 H        0.926     0.025     2.654     2.548
   120   1 H        0.926     0.037     2.486     2.466
   121   1 H        0.926     0.042     2.416     2.431

molecular dipole:
                 x           y           z       tot (Debye)
 q only:       -0.603       0.165      -0.006
   full:       -0.518       0.178      -0.017       1.392

 projected vibrational frequencies (cm⁻¹)
eigval :       -0.00    -0.00     0.00     0.00     0.00     0.00
eigval :        2.95     4.16     4.80     6.76    15.43    20.04
eigval :       24.46    28.55    29.89    36.31    36.67    45.89
eigval :       49.12    51.62    60.86    67.46    69.29    75.87
eigval :       86.12    93.68   106.23   106.98   108.51   115.99
eigval :      124.93   129.98   136.75   149.13   152.32   171.13
eigval :      173.18   174.80   175.35   206.60   211.92   212.93
eigval :      217.02   219.23   223.48   226.34   232.18   235.28
eigval :      242.83   255.81   259.87   268.45   270.48   273.26
eigval :      281.00   289.73   294.47   299.22   313.69   316.02
eigval :      318.17   320.04   322.60   330.65   350.60   358.17
eigval :      361.13   361.92   365.28   374.75   380.42   385.34
eigval :      385.54   390.71   393.20   398.18   401.09   404.07
eigval :      414.85   428.10   432.19   435.98   436.25   436.85
eigval :      440.97   445.64   450.51   453.46   455.55   462.39
eigval :      478.70   489.98   493.93   501.71   505.74   506.79
eigval :      517.07   518.42   531.47   541.11   555.13   559.01
eigval :      569.80   582.65   595.33   597.23   599.12   600.66
eigval :      605.83   612.91   618.22   625.34   645.87   650.36
eigval :      653.41   658.20   666.80   681.69   684.34   688.54
eigval :      694.53   694.70   697.92   702.93   707.44   710.19
eigval :      717.25   729.96   751.47   771.58   771.73   772.91
eigval :      780.47   804.00   814.70   825.94   828.82   831.37
eigval :      832.96   852.78   860.84   863.42   864.04   864.39
eigval :      865.75   870.88   872.05   874.42   878.67   881.78
eigval :      894.34   896.64   896.93   901.30   906.48   907.01
eigval :      908.17   908.47   914.94   916.63   919.46   919.79
eigval :      919.94   920.16   922.09   927.61   928.59   941.41
eigval :      947.05   947.83   960.25   960.73   961.00   961.12
eigval :      962.64   963.09   963.10   963.70   963.74   968.41
eigval :     1016.69  1025.53  1034.71  1035.37  1035.45  1035.85
eigval :     1035.96  1036.31  1080.00  1086.23  1102.18  1106.08
eigval :     1107.16  1108.26  1108.65  1124.49  1124.59  1133.14
eigval :     1135.09  1141.13  1142.30  1143.60  1144.51  1170.53
eigval :     1178.72  1181.97  1182.53  1184.44  1184.60  1186.30
eigval :     1189.68  1195.92  1210.25  1219.46  1221.91  1227.96
eigval :     1228.14  1228.59  1230.58  1231.35  1232.02  1233.69
eigval :     1234.39  1235.88  1242.90  1252.72  1257.26  1266.02
eigval :     1266.73  1270.04  1270.43  1275.17  1275.96  1284.72
eigval :     1287.12  1295.29  1297.80  1311.03  1327.30  1328.65
eigval :     1329.60  1330.31  1334.91  1336.70  1338.86  1339.84
eigval :     1341.42  1343.81  1350.66  1397.66  1399.16  1401.33
eigval :     1402.28  1406.29  1406.62  1406.63  1409.82  1410.80
eigval :     1412.96  1429.63  1429.74  1430.19  1436.85  1439.58
eigval :     1440.50  1441.29  1444.00  1449.15  1465.04  1481.87
eigval :     1482.78  1485.58  1491.80  1491.87  1492.01  1493.56
eigval :     1494.01  1494.17  1494.50  1497.13  1500.22  1501.48
eigval :     1503.07  1505.08  1505.39  1507.18  1514.71  1514.78
eigval :     1515.37  1519.34  1519.50  1520.78  1536.58  1546.93
eigval :     1551.18  1570.00  1574.67  1575.09  1575.93  1586.20
eigval :     1592.11  1592.19  1592.42  1595.77  1600.98  1601.68
eigval :     1604.40  1605.92  3021.26  3022.79  3024.27  3024.38
eigval :     3024.50  3025.81  3026.04  3027.97  3028.31  3030.33
eigval :     3031.16  3031.39  3031.62  3032.11  3033.09  3034.56
eigval :     3036.60  3036.87  3037.68  3039.24  3039.97  3046.54
eigval :     3047.84  3047.95  3051.21  3051.32  3051.80  3074.59
eigval :     3074.98  3075.58  3075.84  3077.12  3078.32  3078.70
eigval :     3078.95  3080.76  3083.79  3085.17  3090.95  3091.59
eigval :     3092.22  3092.70  3093.04  3093.23  3096.94  3097.73
eigval :     3097.94  3099.06  3100.21  3110.66  3111.29  3115.23
eigval :     3116.84  3117.02  3146.65

   temp. (K)  partition function   enthalpy   heat capacity  entropy
                                   cal/mol     cal/K/mol   cal/K/mol   J/K/mol
 298.15  VIB  0.154E+30            35051.282    217.073    221.148
         ROT  0.236E+09              888.752      2.981     41.295
         INT  0.363E+38            35940.034    220.054    262.442
         TR   0.244E+29             1481.254      4.968     46.107
         TOT                       37421.2882   225.0225   308.5495  1290.9712

       T/K    H(0)-H(T)+PV         H(T)/Eh          T*S/Eh         G(T)/Eh
   ------------------------------------------------------------------------
    298.15    0.596346E-01    0.103746E+01    0.146602E+00    0.890860E+00
   ------------------------------------------------------------------------

         :::::::::::::::::::::::::::::::::::::::::::::::::::::
         ::                  THERMODYNAMIC                  ::
         :::::::::::::::::::::::::::::::::::::::::::::::::::::
         :: total free energy        -173.147226147976 Eh   ::
         ::.................................................::
         :: total energy             -174.038085839831 Eh   ::
         :: zero point energy           0.977826904707 Eh   ::
         :: G(RRHO) w/o ZPVE           -0.086967212853 Eh   ::
         :: G(RRHO) contrib.            0.890859691855 Eh   ::
         :::::::::::::::::::::::::::::::::::::::::::::::::::::

           -------------------------------------------------
          | TOTAL ENERGY             -174.038085839831 Eh   |
          | TOTAL ENTHALPY           -173.000624316413 Eh   |
          | TOTAL FREE ENERGY        -173.147226147976 Eh   |
          | GRADIENT NORM               0.000039980160 Eh/α |
          | HOMO-LUMO GAP               1.793820016861 eV   |
           -------------------------------------------------

 * finished run on 2025/08/22 at 23:35:36.665
