   * xtb version 6.7.1 (edcfbbe) compiled by 'albert@albert-system' on 2024-07-22

   ID    Z sym.   atoms
    1    6 C      1-8, 10-28, 30-35, 37-46, 48-57, 59-66
    2    7 N      9, 29
    3    8 O      36, 58
    4    5 B      47
    5    1 H      67-121

          program call               : xtb data2507/gas/TDBA-SBA/TDBA-SBA_gas_S0_crest.xyz --gfn 2 --ohess vtight --parallel 40 --molden --ceasefiles --namespace data2507/gas/TDBA-SBA/TDBA-SBA_gas_S0_finalOpt
          :  Hamiltonian                  GFN2-xTB          :
 * total energy  :  -174.0383119 Eh     change       -0.4399027E-08 Eh
 * total energy  :  -174.0383133 Eh     change       -0.1339148E-05 Eh
 * total energy  :  -174.0383153 Eh     change       -0.1985153E-05 Eh
 * total energy  :  -174.0383217 Eh     change       -0.6461832E-05 Eh
 * total energy  :  -174.0383295 Eh     change       -0.7781734E-05 Eh
 * total energy  :  -174.0383323 Eh     change       -0.2804684E-05 Eh
 * total energy  :  -174.0383337 Eh     change       -0.1420189E-05 Eh
 * total energy  :  -174.0383359 Eh     change       -0.2192540E-05 Eh
 * total energy  :  -174.0383381 Eh     change       -0.2215050E-05 Eh
 * total energy  :  -174.0383394 Eh     change       -0.1243137E-05 Eh
 * total energy  :  -174.0383823 Eh     change       -0.3516178E-06 Eh
 * total energy  :  -174.0383826 Eh     change       -0.3629781E-06 Eh
 * total energy  :  -174.0383830 Eh     change       -0.4053063E-06 Eh
 * total energy  :  -174.0383835 Eh     change       -0.4364416E-06 Eh
 * total energy  :  -174.0383839 Eh     change       -0.4411824E-06 Eh
 * total energy  :  -174.0383844 Eh     change       -0.4495492E-06 Eh
 * total energy  :  -174.0383849 Eh     change       -0.5089111E-06 Eh
 * total energy  :  -174.0383855 Eh     change       -0.6257991E-06 Eh
 * total energy  :  -174.0383855 Eh     change       -0.1003221E-07 Eh
   *** GEOMETRY OPTIMIZATION CONVERGED AFTER 68 ITERATIONS ***

 final structure:
================
121
 xtb: 6.7.1 (edcfbbe)
C           12.27823917578454       -1.60319487396706        0.15264770562433
C           11.84265022789371       -0.13165342102052        0.19783250722350
C           12.29552082286579        0.50557559690832        1.51915079219165
C           12.53611817955840        0.60661428529476       -0.95027975235210
C           10.32636245975144       -0.06259346497628        0.10900675922615
C            9.55462269098290       -0.68912077029821        1.08564140890037
C            8.17491394873320       -0.65556907060449        1.04824783570016
C            7.52397428751301        0.01102398805138        0.01897779309612
N            6.10270427826168        0.04480851696938       -0.02646250632010
C            5.43895278402475        1.15754431356060        0.46453588020852
C            6.15945856769933        2.23306486868519        0.99095889297785
C            5.50857259872611        3.34809708390143        1.47798547689711
C            4.12627915928506        3.41611848396199        1.45498031373471
C            3.40812989332438        2.35012900685695        0.94617926020201
C            4.04334666292653        1.22157080342554        0.45296386042264
C            3.18729273306686        0.08444945898327       -0.06646493526186
C            4.02667732128278       -1.05628381666469       -0.60542860490116
C            3.37601908757448       -2.15178939706243       -1.15038779170469
C            4.07968863503160       -3.22685030277533       -1.66033996514682
C            5.46328705322796       -3.20291094575772       -1.62938501870436
C            6.12934946906599       -2.12093024484289       -1.09109534151755
C            5.42297280837381       -1.03558888379042       -0.56561289688459
C            2.32246728456097        0.60899799368046       -1.19348146273104
C            2.95173223193290        1.13075240116551       -2.31291230814350
C            2.22796323948654        1.60325713468028       -3.39131259331976
C            0.84580675365231        1.53899872078186       -3.35435757326217
C            0.20129755008689        1.02327992172691       -2.24851569672207
C            0.92713505142459        0.56494667616284       -1.14586816697812
N            0.26994247604692        0.05388328981828       -0.03586193395289
C           -1.14914645826122        0.03268740388066       -0.02233234354368
C           -1.84929343402471        1.21277832971369        0.18916151566838
C           -3.23917652193870        1.18616342921814        0.19371133827523
C           -3.94659217452869       -0.01211207499434        0.01080849011975
C           -3.20577275709539       -1.18690562085340       -0.19107293521887
C           -1.81602243033559       -1.16900204504975       -0.21914553056772
O           -3.81276994665091       -2.37836456148892       -0.37680345719022
C           -5.16397742362269       -2.51902065278162       -0.26834807925931
C           -5.62135084598110       -3.83186773152979       -0.39466184026460
C           -6.95941355736657       -4.11542331651554       -0.26985943636049
C           -7.88925701087385       -3.10616305127326        0.00138784323950
C           -9.35781062644033       -3.46845872092288        0.16239595734270
C           -9.50368459457043       -4.45186229063583        1.33211490330146
C           -9.85627513716988       -4.12322441810132       -1.13361051346478
C          -10.24048085020630       -2.25045135223587        0.44992510120447
C           -7.41483358823101       -1.81392676326025        0.11035513521270
C           -6.06442509530091       -1.46492045326220       -0.03895569672945
B           -5.47147656071537       -0.03707539520570        0.03252886390065
C           -6.10844625901152        1.37076454164465        0.11991505955962
C           -7.47332928653771        1.67480259272113        0.00920924849155
C           -7.98632378017299        2.95152444198490        0.12590067016611
C           -9.47015916590495        3.26460736499096        0.00749936336886
C          -10.32120327757321        2.01570330224276       -0.24009547108743
C           -9.94921358737414        3.91677871767947        1.31211148950148
C           -9.68416528785314        4.23019365378314       -1.16654157156976
C           -7.08226459655212        3.99220030672121        0.36345270587458
C           -5.73270698785642        3.75278085049252        0.45169831068449
C           -5.23672571757931        2.45460045072146        0.31969058709249
O           -3.87928756232054        2.35797747806676        0.39276120608075
C            0.96073378969183       -0.43131238091947        1.06532223922204
C            0.26703071107228       -0.89639800471922        2.18572301010139
C            0.94414753953517       -1.38633861743248        3.28368929455472
C            2.32785730896633       -1.41702399620113        3.29499324513554
C            3.01959855749106       -0.93821045048459        2.19854727275467
C            2.35727687991821       -0.44235093829625        1.08640637885224
C            8.27557399501982        0.63965659533480       -0.96168991782310
C            9.65822149794197        0.60226513811379       -0.91247431220660
H           11.86786620515498       -2.16516729908913        0.98693481171505
H           11.93912149380660       -2.06755111251066       -0.77111796398782
H           13.36295266755931       -1.67352832322152        0.19600161346789
H           11.88516327955978       -0.02131403231735        2.37601228568167
H           13.38060450262284        0.48172320032729        1.59302503560407
H           11.96915279174484        1.54241866744613        1.56803538884661
H           13.61478803253638        0.52241592338316       -0.83482479974451
H           12.28069289879420        1.66375543600268       -0.94772758666027
H           12.26785757931516        0.17589660136693       -1.91219830228209
H           10.03239996613784       -1.21606875113838        1.89749103162641
H            7.59357768867912       -1.14851430825487        1.81372949226948
H            7.23776245134258        2.18926422754680        1.01931811268809
H            6.08759149131530        4.16709897728111        1.87885166941722
H            3.61356312053887        4.28692914637292        1.83375128111005
H            2.32816125388444        2.38534458599732        0.92998596414980
H            2.29563561708272       -2.15447754511104       -1.17310276591585
H            3.55496814395809       -4.07166557684954       -2.07941270415996
H            6.03144490837397       -4.03055807515833       -2.02801293966810
H            7.20880211792982       -2.11108515546646       -1.07750843915673
H            4.03185001956889        1.16078557041229       -2.33224374724503
H            2.73568606556787        2.00852354072170       -4.25307386769022
H            0.26163848696858        1.88955301903790       -4.19246518113881
H           -0.87643997437349        0.96936735220433       -2.23796902350425
H           -1.32625586350534        2.14390055452707        0.33793481304886
H           -1.26697387767013       -2.08304715799321       -0.37963745955903
H           -4.90005611078538       -4.61259837688406       -0.58222945651508
H           -7.28148305369730       -5.14042602735441       -0.37229157615350
H           -8.94671556001066       -5.36719172097857        1.15260236409119
H          -10.55027551918277       -4.71288236018785        1.47449453132098
H           -9.13201647470381       -4.00143531352469        2.25022512285903
H          -10.91127099538309       -4.37393737770835       -1.04494370288072
H           -9.30844359194661       -5.03494876204574       -1.35447297525781
H           -9.73291916574276       -3.44005914701735       -1.97147263512063
H           -9.94612105309071       -1.76310239552555        1.37667156494106
H          -10.19404106990637       -1.53151136641253       -0.36481549167579
H          -11.27525334859735       -2.57059272134052        0.55432613855776
H           -8.10078584778002       -1.01865853488669        0.33998047946172
H           -8.13935810056235        0.85624815468904       -0.19580684538358
H          -10.03947017430867        1.52730121595096       -1.17019450364139
H          -11.36848461011655        2.30125963676627       -0.31629579283964
H          -10.22671220165610        1.30818694738695        0.58049778327682
H           -9.77520811353718        3.24801895912713        2.15260646419740
H           -9.42677345071916        4.84939249967020        1.50549337729666
H          -11.01460554220779        4.12990673521772        1.25522951271418
H           -9.14977947711551        5.16381167216414       -1.01459950008627
H          -10.74235116301648        4.45784924885685       -1.27694092329326
H           -9.32906732328202        3.78113027180686       -2.09184551922163
H           -7.43426410921387        5.00705833929915        0.46839127662113
H           -5.03216827733405        4.55764132022347        0.61428857478812
H           -0.81168905519595       -0.86830852297137        2.19524319884023
H            0.38433141008126       -1.74300772910747        4.13571539276845
H            2.86134805225360       -1.80194641655927        4.15052179428401
H            4.10016598096299       -0.94336341237274        2.19839065321859
H            7.77313193936973        1.16110868934621       -1.76338176389545
H           10.20674558644314        1.10341179807300       -1.69285982059168

          :  Hamiltonian                  GFN2-xTB          :
         :: gradient norm              0.000072786102 Eh/a0 ::
         :: HOMO-LUMO gap              1.809385744012 eV    ::
         :: SCC energy              -177.045996320480 Eh    ::
         :: -> dispersion             -0.171815139434 Eh    ::
         :: repulsion energy           3.007610799235 Eh    ::

    * Orbital Energies and Occupations

         #    Occupation            Energy/Eh            Energy/eV
      -------------------------------------------------------------
         1        2.0000           -0.7294258             -19.8487
       ...           ...                  ...                  ...
       150        2.0000           -0.3971850             -10.8080
       151        2.0000           -0.3964411             -10.7877
       152        2.0000           -0.3961974             -10.7811
       153        2.0000           -0.3952362             -10.7549
       154        2.0000           -0.3920045             -10.6670
       155        2.0000           -0.3880320             -10.5589
       156        2.0000           -0.3838174             -10.4442
       157        2.0000           -0.3829332             -10.4201
       158        2.0000           -0.3820905             -10.3972
       159        2.0000           -0.3819240             -10.3927
       160        2.0000           -0.3672002              -9.9920
       161        2.0000           -0.3394293              -9.2363
       162        2.0000           -0.3379061              -9.1949 (HOMO)
       163                         -0.2714124              -7.3855 (LUMO)
       164                         -0.2337122              -6.3596
       165                         -0.2309353              -6.2841
       166                         -0.2283185              -6.2129
       167                         -0.2268410              -6.1727
       168                         -0.2249704              -6.1218
       169                         -0.2204455              -5.9986
       170                         -0.2139385              -5.8216
       171                         -0.2124951              -5.7823
       172                         -0.2116987              -5.7606
       173                         -0.2111588              -5.7459
       ...                                ...                  ...
       319                          0.6984378              19.0055
      -------------------------------------------------------------
                  HL-Gap            0.0664937 Eh            1.8094 eV

     #   Z          covCN         q      C6AA      α(0)
     1   6 C        3.762    -0.106    22.571     6.772
     2   6 C        3.903     0.026    20.083     6.370
     3   6 C        3.762    -0.106    22.572     6.773
     4   6 C        3.761    -0.108    22.618     6.780
     5   6 C        2.973     0.009    27.816     8.651
     6   6 C        2.927    -0.035    28.860     8.810
     7   6 C        2.920    -0.040    29.000     8.831
     8   6 C        2.928     0.065    26.546     8.449
     9   7 N        2.753    -0.072    22.644     7.067
    10   6 C        2.926     0.060    26.657     8.467
    11   6 C        2.924    -0.059    29.461     8.901
    12   6 C        2.920    -0.033    28.825     8.804
    13   6 C        2.917    -0.044    29.090     8.845
    14   6 C        2.927    -0.034    28.854     8.809
    15   6 C        2.989    -0.012    28.299     8.726
    16   6 C        3.929     0.015    20.256     6.396
    17   6 C        2.989    -0.012    28.299     8.726
    18   6 C        2.927    -0.034    28.857     8.810
    19   6 C        2.917    -0.044    29.091     8.845
    20   6 C        2.920    -0.033    28.825     8.804
    21   6 C        2.924    -0.059    29.459     8.901
    22   6 C        2.926     0.060    26.657     8.467
    23   6 C        2.989    -0.011    28.270     8.722
    24   6 C        2.927    -0.034    28.843     8.807
    25   6 C        2.917    -0.043    29.077     8.842
    26   6 C        2.920    -0.033    28.812     8.802
    27   6 C        2.924    -0.058    29.445     8.899
    28   6 C        2.925     0.060    26.660     8.467
    29   7 N        2.754    -0.067    22.542     7.052
    30   6 C        2.930     0.073    26.372     8.422
    31   6 C        2.916    -0.079    29.967     8.977
    32   6 C        2.874     0.140    24.936     8.186
    33   6 C        2.888    -0.125    31.176     9.154
    34   6 C        2.874     0.141    24.936     8.186
    35   6 C        2.916    -0.079    29.967     8.977
    36   8 O        1.711    -0.220    17.658     5.674
    37   6 C        2.878     0.135    25.053     8.205
    38   6 C        2.913    -0.055    29.363     8.886
    39   6 C        2.928    -0.031    28.780     8.798
    40   6 C        2.969     0.000    28.015     8.682
    41   6 C        3.903     0.025    20.090     6.371
    42   6 C        3.762    -0.106    22.578     6.773
    43   6 C        3.762    -0.106    22.579     6.774
    44   6 C        3.761    -0.108    22.608     6.778
    45   6 C        2.931    -0.044    29.104     8.847
    46   6 C        2.882    -0.093    30.324     9.028
    47   5 B        2.724     0.210    18.234     7.155
    48   6 C        2.882    -0.093    30.324     9.028
    49   6 C        2.931    -0.044    29.105     8.848
    50   6 C        2.969     0.000    28.015     8.682
    51   6 C        3.903     0.025    20.090     6.371
    52   6 C        3.761    -0.108    22.607     6.778
    53   6 C        3.762    -0.106    22.579     6.774
    54   6 C        3.762    -0.106    22.578     6.773
    55   6 C        2.928    -0.031    28.780     8.798
    56   6 C        2.913    -0.055    29.363     8.886
    57   6 C        2.878     0.135    25.053     8.205
    58   8 O        1.711    -0.221    17.659     5.674
    59   6 C        2.926     0.060    26.658     8.467
    60   6 C        2.924    -0.058    29.442     8.898
    61   6 C        2.920    -0.033    28.813     8.802
    62   6 C        2.917    -0.043    29.079     8.843
    63   6 C        2.927    -0.034    28.849     8.808
    64   6 C        2.989    -0.011    28.271     8.722
    65   6 C        2.921    -0.040    29.006     8.832
    66   6 C        2.925    -0.039    28.969     8.827
    67   1 H        0.925     0.037     2.485     2.465
    68   1 H        0.925     0.035     2.523     2.484
    69   1 H        0.925     0.039     2.464     2.455
    70   1 H        0.925     0.037     2.485     2.465
    71   1 H        0.925     0.039     2.464     2.455
    72   1 H        0.925     0.035     2.522     2.484
    73   1 H        0.925     0.038     2.478     2.462
    74   1 H        0.925     0.037     2.493     2.469
    75   1 H        0.925     0.037     2.493     2.469
    76   1 H        0.926     0.036     2.508     2.477
    77   1 H        0.926     0.037     2.488     2.466
    78   1 H        0.926     0.024     2.670     2.555
    79   1 H        0.926     0.026     2.642     2.542
    80   1 H        0.926     0.025     2.652     2.547
    81   1 H        0.926     0.025     2.659     2.550
    82   1 H        0.926     0.025     2.658     2.549
    83   1 H        0.926     0.025     2.652     2.547
    84   1 H        0.926     0.026     2.641     2.542
    85   1 H        0.926     0.024     2.670     2.555
    86   1 H        0.926     0.025     2.654     2.548
    87   1 H        0.926     0.026     2.644     2.543
    88   1 H        0.926     0.027     2.623     2.533
    89   1 H        0.926     0.025     2.652     2.546
    90   1 H        0.926     0.054     2.265     2.354
    91   1 H        0.926     0.054     2.265     2.353
    92   1 H        0.926     0.044     2.400     2.422
    93   1 H        0.926     0.036     2.504     2.475
    94   1 H        0.925     0.037     2.495     2.470
    95   1 H        0.925     0.038     2.481     2.463
    96   1 H        0.925     0.034     2.530     2.487
    97   1 H        0.925     0.038     2.480     2.463
    98   1 H        0.925     0.037     2.494     2.470
    99   1 H        0.925     0.034     2.530     2.487
   100   1 H        0.925     0.035     2.511     2.478
   101   1 H        0.925     0.036     2.498     2.472
   102   1 H        0.925     0.037     2.490     2.468
   103   1 H        0.926     0.046     2.368     2.406
   104   1 H        0.926     0.046     2.368     2.406
   105   1 H        0.925     0.035     2.512     2.479
   106   1 H        0.925     0.037     2.490     2.468
   107   1 H        0.925     0.036     2.498     2.472
   108   1 H        0.925     0.034     2.530     2.487
   109   1 H        0.925     0.037     2.494     2.469
   110   1 H        0.925     0.038     2.480     2.463
   111   1 H        0.925     0.037     2.495     2.470
   112   1 H        0.925     0.038     2.481     2.463
   113   1 H        0.925     0.034     2.530     2.487
   114   1 H        0.926     0.036     2.504     2.475
   115   1 H        0.926     0.044     2.400     2.422
   116   1 H        0.926     0.025     2.651     2.546
   117   1 H        0.926     0.027     2.623     2.533
   118   1 H        0.926     0.026     2.646     2.544
   119   1 H        0.926     0.025     2.654     2.547
   120   1 H        0.926     0.037     2.483     2.464
   121   1 H        0.926     0.042     2.418     2.431

molecular dipole:
                 x           y           z       tot (Debye)
 q only:       -0.612      -0.052       0.050
   full:       -0.522      -0.054       0.056       1.342

 projected vibrational frequencies (cm⁻¹)
eigval :       -0.00    -0.00    -0.00     0.00     0.00     0.00
eigval :        2.89     4.33     5.97     9.61    15.56    21.18
eigval :       24.48    28.77    30.01    36.19    36.63    45.95
eigval :       48.80    52.34    62.39    67.30    69.31    77.91
eigval :       86.07    93.15   106.67   107.30   110.51   116.10
eigval :      124.97   134.11   138.58   149.63   152.41   173.11
eigval :      173.55   175.35   176.33   208.14   210.73   213.15
eigval :      216.73   220.04   220.96   225.88   227.47   234.77
eigval :      242.54   256.82   263.12   263.72   268.49   271.15
eigval :      285.14   289.58   291.64   296.88   315.95   316.96
eigval :      322.02   322.29   329.46   330.52   349.60   353.64
eigval :      362.04   365.26   365.29   374.58   380.51   384.92
eigval :      385.47   390.72   393.09   397.65   401.15   404.65
eigval :      414.43   428.85   432.48   434.97   435.91   436.22
eigval :      439.42   446.45   448.78   454.19   455.00   462.27
eigval :      479.54   490.84   493.96   501.52   506.02   506.98
eigval :      517.05   518.51   531.53   541.22   555.55   559.01
eigval :      570.23   582.35   595.33   597.52   599.17   600.75
eigval :      605.64   613.02   618.89   625.21   646.16   650.33
eigval :      653.30   659.02   666.80   682.35   683.82   688.58
eigval :      694.61   694.80   697.82   702.95   707.46   710.00
eigval :      717.35   730.05   751.44   771.49   772.01   772.91
eigval :      780.55   803.86   814.84   826.59   829.75   832.10
eigval :      833.69   852.79   861.18   863.73   864.11   864.64
eigval :      866.00   870.92   870.94   873.87   875.15   878.64
eigval :      893.80   896.66   897.08   901.20   906.57   907.16
eigval :      908.04   908.57   915.34   919.58   919.82   919.95
eigval :      920.24   921.99   922.26   927.52   928.55   942.03
eigval :      946.98   947.84   960.12   960.70   960.92   960.96
eigval :      963.10   963.32   963.40   963.43   963.74   969.69
eigval :     1016.61  1025.52  1034.66  1035.36  1035.62  1035.79
eigval :     1035.85  1035.91  1080.10  1085.95  1102.10  1106.34
eigval :     1107.40  1108.17  1108.98  1124.30  1124.75  1132.48
eigval :     1135.12  1140.08  1142.18  1142.27  1144.63  1170.50
eigval :     1178.73  1179.20  1182.42  1184.46  1184.68  1186.25
eigval :     1189.91  1196.00  1210.27  1218.85  1220.67  1228.09
eigval :     1228.44  1228.49  1230.19  1231.66  1232.40  1233.24
eigval :     1233.93  1235.28  1243.89  1249.26  1256.34  1266.21
eigval :     1266.84  1269.80  1270.58  1275.35  1277.30  1283.33
eigval :     1287.11  1296.00  1296.03  1310.94  1328.18  1329.52
eigval :     1330.22  1334.12  1334.77  1337.62  1338.93  1339.91
eigval :     1341.12  1343.36  1350.76  1397.70  1398.56  1401.81
eigval :     1402.50  1406.44  1406.56  1406.62  1409.83  1410.38
eigval :     1413.51  1429.26  1430.11  1430.18  1436.78  1439.59
eigval :     1440.28  1441.16  1444.63  1449.01  1464.17  1481.71
eigval :     1482.64  1485.58  1491.80  1492.05  1492.11  1493.42
eigval :     1493.98  1494.46  1494.59  1497.04  1499.74  1502.93
eigval :     1503.07  1504.97  1505.31  1507.17  1514.75  1514.75
eigval :     1515.57  1518.35  1519.31  1523.03  1535.59  1546.21
eigval :     1550.83  1569.82  1574.68  1575.06  1575.93  1586.15
eigval :     1592.16  1592.25  1592.36  1598.21  1601.52  1601.78
eigval :     1604.39  1605.90  3021.93  3022.44  3024.23  3024.32
eigval :     3024.36  3026.01  3027.10  3027.22  3028.28  3030.62
eigval :     3031.13  3031.56  3031.57  3031.57  3033.03  3035.46
eigval :     3035.99  3036.82  3038.59  3038.71  3039.93  3047.84
eigval :     3047.92  3047.93  3051.39  3051.43  3051.76  3074.96
eigval :     3075.02  3075.29  3075.89  3077.56  3077.84  3078.39
eigval :     3078.96  3080.60  3083.80  3084.94  3084.98  3091.33
eigval :     3091.66  3092.92  3093.15  3093.36  3097.10  3097.60
eigval :     3097.84  3097.91  3099.70  3100.44  3110.60  3111.15
eigval :     3116.84  3142.70  3150.85

   temp. (K)  partition function   enthalpy   heat capacity  entropy
                                   cal/mol     cal/K/mol   cal/K/mol   J/K/mol
 298.15  VIB  0.725E+29            35025.149    217.106    220.302
         ROT  0.237E+09              888.752      2.981     41.303
         INT  0.172E+38            35913.901    220.087    261.605
         TR   0.244E+29             1481.254      4.968     46.107
         TOT                       37395.1549   225.0550   307.7122  1287.4680

       T/K    H(0)-H(T)+PV         H(T)/Eh          T*S/Eh         G(T)/Eh
   ------------------------------------------------------------------------
    298.15    0.595930E-01    0.103750E+01    0.146204E+00    0.891293E+00
   ------------------------------------------------------------------------

         :::::::::::::::::::::::::::::::::::::::::::::::::::::
         ::                  THERMODYNAMIC                  ::
         :::::::::::::::::::::::::::::::::::::::::::::::::::::
         :: total free energy        -173.147092633775 Eh   ::
         ::.................................................::
         :: total energy             -174.038385521244 Eh   ::
         :: zero point energy           0.977903928665 Eh   ::
         :: G(RRHO) w/o ZPVE           -0.086611041196 Eh   ::
         :: G(RRHO) contrib.            0.891292887469 Eh   ::
         :::::::::::::::::::::::::::::::::::::::::::::::::::::

           -------------------------------------------------
          | TOTAL ENERGY             -174.038385521244 Eh   |
          | TOTAL ENTHALPY           -173.000888620052 Eh   |
          | TOTAL FREE ENERGY        -173.147092633775 Eh   |
          | GRADIENT NORM               0.000072762904 Eh/α |
          | HOMO-LUMO GAP               1.809384968600 eV   |
           -------------------------------------------------

 * finished run on 2025/08/22 at 23:53:29.332
