   * xtb version 6.7.1 (edcfbbe) compiled by 'albert@albert-system' on 2024-07-22

   ID    Z sym.   atoms
    1    6 C      1-6, 8-20, 22-36
    2    8 O      7
    3    7 N      21
    4    1 H      37-57

          program call               : xtb data2507/gas/SFX-bPy/SFX-bPy_gas_S0_crest.xyz --gfn 2 --ohess vtight --parallel 40 --molden --ceasefiles --namespace data2507/gas/SFX-bPy/SFX-bPy_gas_S0_finalOpt
          :  Hamiltonian                  GFN2-xTB          :
 * total energy  :   -90.5368401 Eh     change       -0.2009614E-08 Eh
 * total energy  :   -90.5368410 Eh     change       -0.9180233E-06 Eh
 * total energy  :   -90.5368424 Eh     change       -0.1374488E-05 Eh
 * total energy  :   -90.5368436 Eh     change       -0.1195531E-05 Eh
 * total energy  :   -90.5368441 Eh     change       -0.5370780E-06 Eh
 * total energy  :   -90.5368444 Eh     change       -0.2728412E-06 Eh
 * total energy  :   -90.5368447 Eh     change       -0.3355662E-06 Eh
 * total energy  :   -90.5368452 Eh     change       -0.4448995E-06 Eh
 * total energy  :   -90.5368455 Eh     change       -0.3450518E-06 Eh
 * total energy  :   -90.5368458 Eh     change       -0.2283364E-06 Eh
 * total energy  :   -90.5368466 Eh     change       -0.2502620E-06 Eh
 * total energy  :   -90.5368469 Eh     change       -0.2960502E-06 Eh
 * total energy  :   -90.5368473 Eh     change       -0.3721988E-06 Eh
 * total energy  :   -90.5368476 Eh     change       -0.3924993E-06 Eh
 * total energy  :   -90.5368479 Eh     change       -0.2956158E-06 Eh
 * total energy  :   -90.5368482 Eh     change       -0.2418347E-06 Eh
 * total energy  :   -90.5368485 Eh     change       -0.2936531E-06 Eh
 * total energy  :   -90.5368489 Eh     change       -0.3845466E-06 Eh
 * total energy  :   -90.5368489 Eh     change       -0.2909616E-08 Eh
   *** GEOMETRY OPTIMIZATION CONVERGED AFTER 22 ITERATIONS ***

 final structure:
================
57
 xtb: 6.7.1 (edcfbbe)
C           -5.64308218342134       -2.39947048103643        0.23992585490844
C           -5.71874248779303       -1.01796044520939        0.15581260475200
C           -4.55929929479478       -0.27011057760462        0.08574283085448
C           -3.31178504388152       -0.88032023658836        0.09993212146250
C           -3.24515296207859       -2.26712263675610        0.18622779512154
C           -4.41257781476604       -3.02316082839636        0.25577386567042
O           -2.07185328543272       -2.96515941361528        0.20980659169324
C           -0.89620305638433       -2.27716496158220        0.19926903516588
C            0.27086683748595       -3.03698341778722        0.27357015078999
C            1.49987016284102       -2.41995979049129        0.27967561720212
C            1.59789999320731       -1.02784176984970        0.21955176708391
C            2.92342051310885       -0.39925677271469        0.24424252091428
C            3.09920815362063        0.93681623401883        0.68664158042197
C            4.35291218789788        1.47595130084127        0.69764214683326
C            5.45024291069991        0.69868903957556        0.26966386278103
C            6.77615011899172        1.16932271515366        0.24171422365754
C            7.79039998555716        0.35208321211856       -0.17513034764227
C            7.52177361438440       -0.96591093587187       -0.57914065490775
C            6.24523585969969       -1.45374590344843       -0.56412876946969
C            5.17633373899038       -0.63511856287844       -0.14072608525288
N            3.93374157733825       -1.14530926402156       -0.14056494804269
C            0.42787004286938       -0.28291319200779        0.12823559456459
C           -0.81791253446460       -0.89046506033440        0.11781859188764
C           -2.06120553817670       -0.03968227385245        0.00683058602273
C           -2.05708732077922        1.06192027329701        1.04747278582305
C           -2.06227198444086        0.93802101728150        2.41903360123785
C           -2.04776973830412        2.09436577405505        3.18793533258779
C           -2.02784715734705        3.34467388308615        2.58877278592599
C           -2.02208553816733        3.47318229001907        1.20877512663417
C           -2.03673907606944        2.32364425698763        0.43637771713669
C           -2.03215125040648        2.13828684985212       -1.00710617919548
C           -2.01590568789995        3.05554155335811       -2.04455566386554
C           -2.01465394400540        2.58259778168050       -3.34718865861145
C           -2.02875813544331        1.22150140486298       -3.61115299506132
C           -2.04499066358093        0.29675273281485       -2.57542783410891
C           -2.04705123645553        0.76343149151936       -1.27992939870194
H           -6.54409175369686       -2.99144658477729        0.29378764660063
H           -6.67904404324882       -0.52568329763693        0.14369749749745
H           -4.61057526015905        0.80689125076759        0.01771928359385
H           -4.32507847660487       -4.09634220260879        0.32137549247633
H            0.17997769272974       -4.11057923869826        0.32780973077479
H            2.40825234302330       -2.99780064742215        0.33528077933733
H            2.25163736292379        1.50698972940563        1.03372951403145
H            4.52227144658469        2.48962327018007        1.03607668037569
H            6.97533595769118        2.18498004632865        0.55486156225627
H            8.80762306289664        0.71499405568952       -0.19648314577278
H            8.33924685829815       -1.59308928521697       -0.90407540899739
H            6.01908592270419       -2.46255104823993       -0.87226443152535
H            0.46819133402568        0.79253458841742        0.03877287605989
H           -2.07686018377388       -0.03611532334286        2.88627734607127
H           -2.05170313275182        2.01868420134700        4.26528162545304
H           -2.01659475591456        4.23056210018173        3.20705450404508
H           -2.00618192909522        4.44925938421516        0.74681946799705
H           -2.00477378352923        4.11673560749858       -1.84421715551986
H           -2.00226261556244        3.28359976927372       -4.16909895552573
H           -2.02672871726165        0.87616568990956       -4.63440152679331
H           -2.05541563787874       -0.76373263774779       -2.78202177611044

          :  Hamiltonian                  GFN2-xTB          :
         :: gradient norm              0.000034338902 Eh/a0 ::
         :: HOMO-LUMO gap              2.300703916760 eV    ::
         :: SCC energy               -92.208669203164 Eh    ::
         :: -> dispersion             -0.080574533196 Eh    ::
         :: repulsion energy           1.671820341108 Eh    ::

    * Orbital Energies and Occupations

         #    Occupation            Energy/Eh            Energy/eV
      -------------------------------------------------------------
         1        2.0000           -0.7298959             -19.8615
       ...           ...                  ...                  ...
        72        2.0000           -0.4226503             -11.5009
        73        2.0000           -0.4217654             -11.4768
        74        2.0000           -0.4194682             -11.4143
        75        2.0000           -0.4165049             -11.3337
        76        2.0000           -0.4114802             -11.1969
        77        2.0000           -0.4022488             -10.9457
        78        2.0000           -0.4015242             -10.9260
        79        2.0000           -0.3991130             -10.8604
        80        2.0000           -0.3972164             -10.8088
        81        2.0000           -0.3900433             -10.6136
        82        2.0000           -0.3823766             -10.4050
        83        2.0000           -0.3686236             -10.0308
        84        2.0000           -0.3595924              -9.7850 (HOMO)
        85                         -0.2750431              -7.4843 (LUMO)
        86                         -0.2545624              -6.9270
        87                         -0.2476834              -6.7398
        88                         -0.2306497              -6.2763
        89                         -0.2296810              -6.2499
        90                         -0.2278863              -6.2011
        91                         -0.2239479              -6.0939
        92                         -0.2180922              -5.9346
        93                         -0.2048517              -5.5743
        94                         -0.1921122              -5.2276
        95                         -0.1907678              -5.1911
       ...                                ...                  ...
       165                          0.7269256              19.7807
      -------------------------------------------------------------
                  HL-Gap            0.0845493 Eh            2.3007 eV

     #   Z          covCN         q      C6AA      α(0)
     1   6 C        2.920    -0.031    28.785     8.798
     2   6 C        2.918    -0.039    28.975     8.827
     3   6 C        2.926    -0.035    28.876     8.812
     4   6 C        2.978    -0.013    28.336     8.732
     5   6 C        2.882     0.135    25.040     8.204
     6   6 C        2.919    -0.054    29.335     8.882
     7   8 O        1.710    -0.240    17.970     5.723
     8   6 C        2.882     0.137    25.010     8.199
     9   6 C        2.917    -0.054    29.336     8.882
    10   6 C        2.926    -0.029    28.736     8.791
    11   6 C        2.979    -0.003    28.093     8.694
    12   6 C        2.951     0.099    25.802     8.331
    13   6 C        2.913    -0.046    29.154     8.854
    14   6 C        2.921    -0.020    28.498     8.754
    15   6 C        2.985    -0.001    28.039     8.686
    16   6 C        2.916    -0.035    28.873     8.811
    17   6 C        2.916    -0.030    28.754     8.793
    18   6 C        2.916    -0.028    28.696     8.784
    19   6 C        2.920    -0.039    28.970     8.826
    20   6 C        2.964     0.091    25.974     8.360
    21   7 N        1.851    -0.246    27.263     7.739
    22   6 C        2.929    -0.040    28.984     8.829
    23   6 C        2.977    -0.014    28.368     8.737
    24   6 C        3.950     0.018    20.206     6.387
    25   6 C        3.057     0.001    27.944     8.669
    26   6 C        2.914    -0.032    28.801     8.800
    27   6 C        2.923    -0.031    28.782     8.798
    28   6 C        2.921    -0.032    28.800     8.801
    29   6 C        2.915    -0.034    28.854     8.808
    30   6 C        3.035     0.001    27.966     8.674
    31   6 C        3.034     0.001    27.970     8.675
    32   6 C        2.915    -0.034    28.842     8.807
    33   6 C        2.921    -0.032    28.790     8.799
    34   6 C        2.923    -0.031    28.765     8.795
    35   6 C        2.914    -0.032    28.794     8.799
    36   6 C        3.058     0.002    27.934     8.667
    37   1 H        0.926     0.039     2.456     2.451
    38   1 H        0.926     0.036     2.500     2.472
    39   1 H        0.926     0.035     2.516     2.480
    40   1 H        0.926     0.050     2.319     2.381
    41   1 H        0.926     0.053     2.282     2.362
    42   1 H        0.926     0.064     2.157     2.296
    43   1 H        0.926     0.032     2.558     2.501
    44   1 H        0.925     0.031     2.575     2.509
    45   1 H        0.925     0.031     2.566     2.505
    46   1 H        0.926     0.033     2.544     2.494
    47   1 H        0.926     0.035     2.517     2.481
    48   1 H        0.926     0.050     2.318     2.381
    49   1 H        0.926     0.037     2.494     2.469
    50   1 H        0.926     0.027     2.633     2.537
    51   1 H        0.926     0.031     2.566     2.505
    52   1 H        0.926     0.031     2.573     2.508
    53   1 H        0.926     0.031     2.567     2.506
    54   1 H        0.926     0.032     2.564     2.504
    55   1 H        0.926     0.031     2.566     2.505
    56   1 H        0.926     0.032     2.555     2.500
    57   1 H        0.926     0.028     2.620     2.531

molecular dipole:
                 x           y           z       tot (Debye)
 q only:       -0.108       0.313       0.062
   full:       -0.069       0.801       0.175       2.091

 projected vibrational frequencies (cm⁻¹)
eigval :       -0.00    -0.00     0.00     0.00     0.00     0.00
eigval :        9.65    18.70    29.84    37.96    42.99    55.70
eigval :       68.65    81.81   101.71   128.64   139.00   154.06
eigval :      161.23   174.53   196.61   216.56   238.91   245.77
eigval :      271.98   293.79   301.10   334.46   345.55   363.91
eigval :      386.61   404.27   413.34   420.11   423.76   428.55
eigval :      442.73   457.12   462.99   469.93   499.21   502.15
eigval :      507.33   509.86   535.16   537.81   558.29   584.32
eigval :      589.48   595.16   600.89   610.46   625.57   653.61
eigval :      669.73   680.60   685.46   691.74   715.68   730.57
eigval :      744.24   753.69   761.31   768.77   782.48   786.31
eigval :      802.03   811.46   829.15   841.57   847.89   875.82
eigval :      877.23   877.48   878.27   879.27   880.88   897.25
eigval :      908.52   909.96   913.46   914.16   917.25   919.06
eigval :      924.04   924.14   925.66   927.41   929.15   929.94
eigval :      982.77  1006.80  1067.61  1074.45  1079.29  1084.75
eigval :     1090.35  1090.63  1120.23  1134.75  1142.21  1143.28
eigval :     1162.55  1169.32  1173.99  1176.61  1177.18  1181.15
eigval :     1204.86  1206.65  1210.34  1223.34  1232.03  1235.40
eigval :     1245.52  1248.21  1260.31  1264.86  1269.31  1284.24
eigval :     1297.03  1315.98  1326.76  1329.39  1339.95  1351.78
eigval :     1367.29  1377.22  1406.50  1410.90  1429.38  1429.86
eigval :     1433.98  1454.20  1461.44  1471.87  1475.42  1483.67
eigval :     1499.86  1543.28  1567.33  1579.68  1586.38  1589.81
eigval :     1595.52  1597.00  1600.37  1604.28  1605.40  1609.07
eigval :     3054.74  3064.55  3073.23  3074.03  3076.14  3076.44
eigval :     3077.30  3081.53  3083.85  3085.81  3086.63  3087.16
eigval :     3087.74  3092.40  3093.51  3094.75  3098.17  3100.95
eigval :     3103.85  3106.74  3115.62

   temp. (K)  partition function   enthalpy   heat capacity  entropy
                                   cal/mol     cal/K/mol   cal/K/mol   J/K/mol
 298.15  VIB  0.109E+12            15041.238    100.159     91.379
         ROT  0.297E+08              888.752      2.981     37.176
         INT  0.325E+19            15929.990    103.140    128.556
         TR   0.953E+28             1481.254      4.968     44.244
         TOT                       17411.2441   108.1079   172.7993   722.9924

       T/K    H(0)-H(T)+PV         H(T)/Eh          T*S/Eh         G(T)/Eh
   ------------------------------------------------------------------------
    298.15    0.277466E-01    0.461150E+00    0.821025E-01    0.379047E+00
   ------------------------------------------------------------------------

         :::::::::::::::::::::::::::::::::::::::::::::::::::::
         ::                  THERMODYNAMIC                  ::
         :::::::::::::::::::::::::::::::::::::::::::::::::::::
         :: total free energy         -90.157801508634 Eh   ::
         ::.................................................::
         :: total energy              -90.536848862055 Eh   ::
         :: zero point energy           0.433403312936 Eh   ::
         :: G(RRHO) w/o ZPVE           -0.054355959514 Eh   ::
         :: G(RRHO) contrib.            0.379047353421 Eh   ::
         :::::::::::::::::::::::::::::::::::::::::::::::::::::

           -------------------------------------------------
          | TOTAL ENERGY              -90.536848862055 Eh   |
          | TOTAL ENTHALPY            -90.075698965505 Eh   |
          | TOTAL FREE ENERGY         -90.157801508634 Eh   |
          | GRADIENT NORM               0.000034339506 Eh/α |
          | HOMO-LUMO GAP               2.300704361263 eV   |
           -------------------------------------------------

 * finished run on 2025/08/26 at 03:54:50.795
