   * xtb version 6.7.1 (edcfbbe) compiled by 'albert@albert-system' on 2024-07-22

   ID    Z sym.   atoms
    1    6 C      1-6, 8-20, 22-36
    2    8 O      7
    3    7 N      21
    4    1 H      37-57

          program call               : xtb data2507/gas/SFX-bPy/SFX-bPy_gas_T1_crest.xyz --gfn 2 --spinpol --tblite --uhf 2 --ohess vtight --parallel 40 --molden --ceasefiles --namespace data2507/gas/SFX-bPy/SFX-bPy_gas_T1_finalOpt
 * total energy  :   -90.4544905 Eh     change        0.1477628E-07 Eh
 * total energy  :   -90.4546138 Eh     change       -0.1233085E-03 Eh
 * total energy  :   -90.4546852 Eh     change       -0.7141359E-04 Eh
 * total energy  :   -90.4546904 Eh     change       -0.5120186E-05 Eh
 * total energy  :   -90.4546933 Eh     change       -0.2883778E-05 Eh
 * total energy  :   -90.4546939 Eh     change       -0.6558601E-06 Eh
 * total energy  :   -90.4546943 Eh     change       -0.4203286E-06 Eh
 * total energy  :   -90.4546948 Eh     change       -0.4844226E-06 Eh
 * total energy  :   -90.4546955 Eh     change       -0.6564997E-06 Eh
 * total energy  :   -90.4546962 Eh     change       -0.7019555E-06 Eh
 * total energy  :   -90.4546979 Eh     change       -0.4025409E-06 Eh
 * total energy  :   -90.4546981 Eh     change       -0.2710785E-06 Eh
 * total energy  :   -90.4546983 Eh     change       -0.1394669E-06 Eh
 * total energy  :   -90.4546984 Eh     change       -0.1374214E-06 Eh
 * total energy  :   -90.4546987 Eh     change       -0.2984478E-06 Eh
 * total energy  :   -90.4546992 Eh     change       -0.4712325E-06 Eh
 * total energy  :   -90.4546998 Eh     change       -0.6394798E-06 Eh
 * total energy  :   -90.4547002 Eh     change       -0.4108521E-06 Eh
 * total energy  :   -90.4547003 Eh     change       -0.4298747E-07 Eh
   *** GEOMETRY OPTIMIZATION CONVERGED AFTER 22 ITERATIONS ***

 final structure:
================
57
 xtb: 6.7.1 (edcfbbe)
C           -5.56353993025957       -2.57761116918776        0.12758635548658
C           -5.69512630676617       -1.19571282040669        0.12571003870859
C           -4.56764448451910       -0.39756152257176        0.09171710241412
C           -3.29642379496615       -0.95465442415691        0.06035093246709
C           -3.17247729955669       -2.34418072999587        0.06352699912445
C           -4.31106045896732       -3.15099204614719        0.09688983627136
O           -1.97774811348785       -2.98765727437027        0.03628401865457
C           -0.82796562577140       -2.25750143822912        0.02475891125581
C            0.37468142320406       -2.97578045926174        0.01891635897247
C            1.57237045624990       -2.31757449523462        0.01186143104191
C            1.63302363152754       -0.90181274312917        0.01097271053397
C            2.90849362663933       -0.26580154038112        0.00833436342788
C            3.12733473311988        1.12770919069899        0.01484134096714
C            4.39398395379026        1.63763589630603        0.01431997704161
C            5.53276486691411        0.77794367873849        0.00691358325488
C            6.85261854571372        1.20534758412093        0.00639976836740
C            7.90685141523383        0.29809478401275       -0.00112887586977
C            7.64549403046447       -1.06194643200274       -0.00838095571426
C            6.34380668545314       -1.52815263606257       -0.00791453835175
C            5.26206205888801       -0.63224748160346       -0.00006971906618
N            4.01178563234987       -1.05409409471556        0.00139926150259
C            0.41191875661696       -0.20315458479120        0.01306628192323
C           -0.80019608035900       -0.85799154238690        0.02021104104404
C           -2.08258146505756       -0.06118906962929        0.01472511594455
C           -2.10005127177600        0.94227535704235        1.15192987531403
C           -2.07164287046833        0.69396749260361        2.50600892147882
C           -2.09029612476072        1.77551973005266        3.37687431933874
C           -2.13557430738267        3.07453683980403        2.89434911963002
C           -2.16427200901227        3.32767180123159        1.53204491952348
C           -2.14694340395959        2.25341733369185        0.65809084636047
C           -2.16955377114753        2.19982711774972       -0.79601160724735
C           -2.21721499594073        3.20660082530167       -1.74585128258980
C           -2.23065674842070        2.85366515345740       -3.08598617845820
C           -2.19662802076808        1.52265312972850       -3.47266591193936
C           -2.14818262466891        0.50834043437394       -2.52544570072793
C           -2.13531483466892        0.85607166458737       -1.19324575684091
H           -6.44042994168522       -3.20641118146498        0.15330590368661
H           -6.67466676793131       -0.74371786371925        0.15005129656037
H           -4.66406957838279        0.67844064122661        0.08883810565105
H           -4.17953237441339       -4.22167586687147        0.09803773538632
H            0.32452520574342       -4.05360141098087        0.02103163556108
H            2.50319094381955       -2.86394307118542        0.00792621472132
H            2.27154452909569        1.78412494677410        0.02128386858280
H            4.55705709342247        2.70502586203729        0.01981836679140
H            7.05342481154387        2.26732931783200        0.01211985915173
H            8.92456643537884        0.65734420527150       -0.00130177499814
H            8.46250303283120       -1.76823134844680       -0.01439991409551
H            6.13189658995038       -2.58590173932936       -0.01356002812910
H            0.40503393863534        0.87597094137312        0.00857264718517
H           -2.03504943182509       -0.31792489160021        2.88284598677142
H           -2.06872169005004        1.60221292377391        4.44257644687427
H           -2.14858072339185        3.90035025971865        3.59065478353708
H           -2.19950429687195        4.34125963699371        1.16098562608011
H           -2.24383981652537        4.24480349608657       -1.44969669731703
H           -2.26815103461763        3.62582007840287       -3.84053073744296
H           -2.20771826568213        1.27116176295054       -4.52283516588629
H           -2.12088038492393       -0.52856529318012       -2.82782129151689

 projected vibrational frequencies (cm⁻¹)
eigval :       -0.00    -0.00    -0.00     0.00     0.00     0.00
eigval :        8.20    16.26    28.33    28.97    40.48    55.59
eigval :       61.36    81.99    95.22   128.12   139.19   142.20
eigval :      154.43   167.15   179.17   202.32   212.57   240.75
eigval :      256.83   292.27   294.84   314.75   331.13   333.14
eigval :      385.26   399.66   405.60   412.44   415.10   417.23
eigval :      423.75   455.36   458.26   471.91   474.52   487.51
eigval :      495.24   501.12   506.49   524.10   536.90   559.04
eigval :      560.22   587.46   590.01   598.00   615.12   621.75
eigval :      661.78   665.95   667.47   684.20   685.59   711.86
eigval :      712.63   728.94   736.18   753.34   753.98   767.77
eigval :      778.56   784.51   790.47   804.18   807.78   825.12
eigval :      835.55   836.30   852.37   864.33   872.20   873.21
eigval :      876.50   878.44   892.61   896.55   900.14   908.11
eigval :      908.56   912.84   921.32   921.78   925.82   926.88
eigval :      963.61  1004.95  1061.43  1074.29  1075.13  1078.89
eigval :     1083.15  1087.55  1101.76  1117.00  1129.46  1138.56
eigval :     1143.00  1165.95  1171.16  1175.44  1176.48  1181.10
eigval :     1203.08  1204.04  1204.87  1213.96  1218.84  1229.08
eigval :     1235.09  1244.98  1248.07  1259.29  1262.12  1266.30
eigval :     1275.76  1284.47  1324.43  1326.02  1332.61  1346.71
eigval :     1365.09  1367.78  1386.89  1395.37  1413.94  1422.64
eigval :     1426.63  1429.46  1429.61  1432.54  1461.17  1467.52
eigval :     1468.57  1472.36  1503.25  1508.02  1537.61  1555.45
eigval :     1567.46  1585.84  1587.63  1596.97  1601.73  1603.98
eigval :     3066.74  3073.79  3074.58  3075.18  3077.40  3078.37
eigval :     3078.44  3083.15  3085.11  3087.18  3088.23  3088.79
eigval :     3089.54  3092.50  3093.44  3094.45  3095.89  3099.01
eigval :     3099.91  3101.81  3107.39

   temp. (K)  partition function   enthalpy   heat capacity  entropy
                                   cal/mol     cal/K/mol   cal/K/mol   J/K/mol
 298.15  VIB  0.452E+12            15530.625    102.417     94.719
         ROT  0.302E+08              888.752      2.981     37.211
         INT  0.137E+20            16419.377    105.398    131.929
         TR   0.953E+28             1481.254      4.968     44.244
         TOT                       17900.6312   110.3663   176.1731   737.1081

       T/K    H(0)-H(T)+PV         H(T)/Eh          T*S/Eh         G(T)/Eh
   ------------------------------------------------------------------------
    298.15    0.285265E-01    0.456954E+00    0.837055E-01    0.373249E+00
   ------------------------------------------------------------------------

         :::::::::::::::::::::::::::::::::::::::::::::::::::::
         ::                  THERMODYNAMIC                  ::
         :::::::::::::::::::::::::::::::::::::::::::::::::::::
         :: total free energy         -90.081451282208 Eh   ::
         ::.................................................::
         :: total energy              -90.454700259331 Eh   ::
         :: zero point energy           0.428428013461 Eh   ::
         :: G(RRHO) w/o ZPVE           -0.055179036338 Eh   ::
         :: G(RRHO) contrib.            0.373248977123 Eh   ::
         :::::::::::::::::::::::::::::::::::::::::::::::::::::

           -------------------------------------------------
          | TOTAL ENERGY              -90.454700259331 Eh   |
          | TOTAL ENTHALPY            -89.997745774246 Eh   |
          | TOTAL FREE ENERGY         -90.081451282208 Eh   |
          | GRADIENT NORM               0.000051989851 Eh/α |
           -------------------------------------------------

 * finished run on 2025/08/26 at 03:57:58.891
