   * xtb version 6.7.1 (edcfbbe) compiled by 'albert@albert-system' on 2024-07-22

   ID    Z sym.   atoms
    1    6 C      1-6, 8-20, 22-36
    2    8 O      7
    3    7 N      21
    4    1 H      37-57

          program call               : xtb data2507/gas/SFX-bPy/SFX-bPy_gas_S0_finalOpt.xtbopt.xyz --gfn 2 --spinpol --tblite --uhf 2 --ohess vtight --parallel 40 --molden --ceasefiles --namespace data2507/gas/SFX-bPy/SFX-bPy_gas_T1_preOpt
 * total energy  :   -90.4464393 Eh     change        0.3655714E-08 Eh
 * total energy  :   -90.4514508 Eh     change       -0.5011564E-02 Eh
 * total energy  :   -90.4529844 Eh     change       -0.1533607E-02 Eh
 * total energy  :   -90.4532034 Eh     change       -0.2189966E-03 Eh
 * total energy  :   -90.4533761 Eh     change       -0.1726540E-03 Eh
 * total energy  :   -90.4534609 Eh     change       -0.8478469E-04 Eh
 * total energy  :   -90.4535835 Eh     change       -0.1226291E-03 Eh
 * total energy  :   -90.4537221 Eh     change       -0.1386301E-03 Eh
 * total energy  :   -90.4538676 Eh     change       -0.1454497E-03 Eh
 * total energy  :   -90.4539927 Eh     change       -0.1250816E-03 Eh
 * total energy  :   -90.4547017 Eh     change       -0.6084698E-06 Eh
 * total energy  :   -90.4547020 Eh     change       -0.2613328E-06 Eh
 * total energy  :   -90.4547029 Eh     change       -0.9409450E-06 Eh
 * total energy  :   -90.4547032 Eh     change       -0.2571806E-06 Eh
 * total energy  :   -90.4547033 Eh     change       -0.1470785E-06 Eh
 * total energy  :   -90.4547035 Eh     change       -0.1812126E-06 Eh
 * total energy  :   -90.4547038 Eh     change       -0.2420943E-06 Eh
 * total energy  :   -90.4547039 Eh     change       -0.1410936E-06 Eh
 * total energy  :   -90.4547040 Eh     change       -0.7097299E-07 Eh
   *** GEOMETRY OPTIMIZATION CONVERGED AFTER 75 ITERATIONS ***

 final structure:
================
57
 xtb: 6.7.1 (edcfbbe)
C           -5.60516213032480       -2.47327174496050        0.23363110732153
C           -5.71420357244015       -1.09374426122944        0.12409614837704
C           -4.57346391063628       -0.31722134301920        0.05245191815944
C           -3.31107954239572       -0.89378660623627        0.08873060205627
C           -3.20983711492247       -2.28075629100140        0.19940136931012
C           -4.36181078205632       -3.06575754744262        0.27133573215550
O           -2.02550717975520       -2.94222062802685        0.24390539176174
C           -0.86394994903927       -2.23303433155528        0.18989492888718
C            0.32689603070056       -2.96816466287044        0.25204415837199
C            1.53517181626370       -2.33117985483577        0.20651351196860
C            1.61884417391559       -0.92087389405360        0.09636968330257
C            2.90421633647725       -0.30654898425528        0.05544449180461
C            3.14459407754565        1.07949699911027       -0.04897662677303
C            4.41892216537301        1.56880642552195       -0.08060903600638
C            5.54421430716519        0.69444986341381       -0.00876650275865
C            6.87047151709105        1.10079493875998       -0.03319763725815
C            7.91057016723404        0.18042403938525        0.04221420645385
C            7.62824559145094       -1.17159916925720        0.14422476100585
C            6.31953337350604       -1.61685062031572        0.17190459328947
C            5.25171747196628       -0.70737973229241        0.09718937461861
N            3.99508736882199       -1.10922852025312        0.12257189457062
C            0.40925906640262       -0.20522293226694        0.03352399620397
C           -0.81334277588032       -0.83857749992108        0.07886119156497
C           -2.08226757872891       -0.02394441067472        0.00430882234520
C           -2.09850668561699        1.04678156850346        1.07882068542698
C           -2.09160613427649        0.88058100996846        2.44567995865645
C           -2.10419760827991        2.01309654334139        3.24926929671521
C           -2.12260186309463        3.28103215400394        2.68863653854988
C           -2.12946742311372        3.45151806427396        1.31327748191397
C           -2.11776402718329        2.32612516028447        0.50616200127305
C           -2.12133733190049        2.18497751601005       -0.94219995201128
C           -2.13889523122263        3.13325005953956       -1.95141780222412
C           -2.13883642729086        2.70034462583085       -3.26795699157313
C           -2.12108616340102        1.34803171569879       -3.57327052895087
C           -2.10291171059264        0.39207313500686       -2.56616375439704
C           -2.10345546662269        0.81924159855717       -1.25718592375674
H           -6.49249350104467       -3.08522932805887        0.28966951416876
H           -6.68655275938431       -0.62679154727415        0.09449508946425
H           -4.65232869175859        0.75677731318363       -0.03349752457285
H           -4.24766896708080       -4.13507135298922        0.35623031434791
H            0.25913750943876       -4.04169743990722        0.33667231476345
H            2.45695863957936       -2.89062566792395        0.25437337159370
H            2.29910843666260        1.74694004436495       -0.10348784258313
H            4.59845244343892        2.63051724391406       -0.16097167312362
H            7.08758631962471        2.15659796464870       -0.11243696665840
H            8.93368806203627        0.52329849177041        0.02104603967070
H            8.43428792549172       -1.88798197147569        0.20297289123556
H            6.09130475950735       -2.66824632594048        0.25081510106499
H            0.41986042065977        0.87040418936193       -0.05289200770534
H           -2.07593272059770       -0.10698712398060        2.88356985122496
H           -2.09897726391564        1.90436711297792        4.32368571501177
H           -2.13154229298577        4.14762229067036        3.33355599467187
H           -2.14371059316186        4.44113709305999        0.88113979528174
H           -2.15267749881097        4.18769873046726       -1.71853029002979
H           -2.15270746388937        3.42604155376818       -4.06804882868049
H           -2.12100835289048        1.03382595255948       -4.60646765129194
H           -2.08808231301829       -0.66146285419190       -2.80525734339875

 projected vibrational frequencies (cm⁻¹)
eigval :       -0.00    -0.00    -0.00    -0.00     0.00     0.00
eigval :        9.99    17.55    29.24    30.36    41.08    55.78
eigval :       61.86    82.66    95.71   128.89   139.27   142.47
eigval :      154.77   167.44   179.19   202.40   212.51   241.23
eigval :      257.03   292.77   294.70   314.87   331.22   333.05
eigval :      385.93   399.74   406.02   412.45   415.37   417.29
eigval :      424.19   455.78   458.66   471.30   474.83   487.35
eigval :      495.37   501.20   506.66   524.07   537.30   558.98
eigval :      559.29   587.76   589.99   598.02   615.17   621.85
eigval :      661.90   665.91   667.53   684.37   685.52   711.93
eigval :      712.59   729.07   736.98   753.44   754.57   768.50
eigval :      779.45   785.79   790.61   804.20   808.54   825.36
eigval :      836.55   837.14   852.52   865.20   873.52   873.61
eigval :      878.10   879.62   892.88   898.16   901.15   909.49
eigval :      909.91   913.66   921.92   922.17   927.25   928.19
eigval :      963.89  1004.93  1061.07  1074.35  1075.00  1078.99
eigval :     1083.43  1087.65  1102.44  1117.02  1129.38  1138.63
eigval :     1143.03  1165.87  1171.06  1175.40  1176.43  1181.09
eigval :     1203.00  1203.92  1204.75  1214.01  1218.67  1228.86
eigval :     1234.86  1244.90  1248.13  1259.29  1261.68  1266.63
eigval :     1276.70  1284.43  1324.47  1326.03  1332.67  1346.50
eigval :     1365.04  1367.70  1386.92  1395.68  1413.99  1422.46
eigval :     1426.63  1429.27  1429.37  1432.47  1460.98  1467.52
eigval :     1468.44  1472.17  1503.14  1507.97  1537.64  1555.80
eigval :     1567.37  1585.80  1587.68  1596.90  1601.72  1603.93
eigval :     3066.74  3073.63  3074.51  3075.12  3077.38  3078.36
eigval :     3078.39  3083.09  3085.00  3087.08  3088.04  3088.72
eigval :     3089.35  3092.50  3093.35  3094.47  3095.91  3099.09
eigval :     3099.80  3101.67  3107.26

   temp. (K)  partition function   enthalpy   heat capacity  entropy
                                   cal/mol     cal/K/mol   cal/K/mol   J/K/mol
 298.15  VIB  0.306E+12            15512.090    102.434     94.339
         ROT  0.302E+08              888.752      2.981     37.210
         INT  0.926E+19            16400.843    105.415    131.549
         TR   0.953E+28             1481.254      4.968     44.244
         TOT                       17882.0966   110.3827   175.7927   735.5167

       T/K    H(0)-H(T)+PV         H(T)/Eh          T*S/Eh         G(T)/Eh
   ------------------------------------------------------------------------
    298.15    0.284969E-01    0.457005E+00    0.835248E-01    0.373480E+00
   ------------------------------------------------------------------------

         :::::::::::::::::::::::::::::::::::::::::::::::::::::
         ::                  THERMODYNAMIC                  ::
         :::::::::::::::::::::::::::::::::::::::::::::::::::::
         :: total free energy         -90.081224243286 Eh   ::
         ::.................................................::
         :: total energy              -90.454703969856 Eh   ::
         :: zero point energy           0.428507581625 Eh   ::
         :: G(RRHO) w/o ZPVE           -0.055027855055 Eh   ::
         :: G(RRHO) contrib.            0.373479726570 Eh   ::
         :::::::::::::::::::::::::::::::::::::::::::::::::::::

           -------------------------------------------------
          | TOTAL ENERGY              -90.454703969856 Eh   |
          | TOTAL ENTHALPY            -89.997699453430 Eh   |
          | TOTAL FREE ENERGY         -90.081224243286 Eh   |
          | GRADIENT NORM               0.000038810596 Eh/α |
           -------------------------------------------------

 * finished run on 2025/08/26 at 03:54:58.881
