   * xtb version 6.7.1 (edcfbbe) compiled by 'albert@albert-system' on 2024-07-22

   ID    Z sym.   atoms
    1    6 C      1-6, 8-20, 22-36
    2    8 O      7
    3    7 N      21
    4    1 H      37-57

          program call               : xtb data2507/gas/SFX-bPy/SFX-bPy.xyz --gfn 2 --ohess vtight --parallel 40 --molden --ceasefiles --namespace data2507/gas/SFX-bPy/SFX-bPy_gas_S0_preOpt
          :  Hamiltonian                  GFN2-xTB          :
 * total energy  :   -90.5231730 Eh     change       -0.1907509E-08 Eh
 * total energy  :   -90.5329836 Eh     change       -0.9810599E-02 Eh
 * total energy  :   -90.5354671 Eh     change       -0.2483432E-02 Eh
 * total energy  :   -90.5358554 Eh     change       -0.3883296E-03 Eh
 * total energy  :   -90.5360022 Eh     change       -0.1468047E-03 Eh
 * total energy  :   -90.5360394 Eh     change       -0.3721977E-04 Eh
 * total energy  :   -90.5360780 Eh     change       -0.3852550E-04 Eh
 * total energy  :   -90.5360905 Eh     change       -0.1259468E-04 Eh
 * total energy  :   -90.5361162 Eh     change       -0.2566548E-04 Eh
 * total energy  :   -90.5361310 Eh     change       -0.1477834E-04 Eh
 * total energy  :   -90.5363302 Eh     change       -0.8363196E-06 Eh
 * total energy  :   -90.5363313 Eh     change       -0.1107767E-05 Eh
 * total energy  :   -90.5363327 Eh     change       -0.1334756E-05 Eh
 * total energy  :   -90.5363339 Eh     change       -0.1277606E-05 Eh
 * total energy  :   -90.5363349 Eh     change       -0.9716804E-06 Eh
 * total energy  :   -90.5363355 Eh     change       -0.5925843E-06 Eh
 * total energy  :   -90.5363359 Eh     change       -0.3529786E-06 Eh
 * total energy  :   -90.5363361 Eh     change       -0.2755386E-06 Eh
 * total energy  :   -90.5363361 Eh     change       -0.1957574E-08 Eh
   *** GEOMETRY OPTIMIZATION CONVERGED AFTER 44 ITERATIONS ***

 final structure:
================
57
 xtb: 6.7.1 (edcfbbe)
C           -5.99621744854394       -1.49614983900221       -0.58233934910610
C           -5.74547030145441       -0.14706501040436       -0.38643467639703
C           -4.44712155788553        0.29173941044971       -0.21234659448289
C           -3.38139506872334       -0.59869584519822       -0.23144650524684
C           -3.64257991619758       -1.95053110639979       -0.42983600802112
C           -4.95030184623102       -2.39566916063053       -0.60487965534778
O           -2.66930438467214       -2.90848589249020       -0.46778314840831
C           -1.36674754399293       -2.52654649489911       -0.35521114987138
C           -0.41258890037901       -3.53623695100416       -0.46180834883576
C            0.92941054157997       -3.24259374816226       -0.35963162380432
C            1.35064895292623       -1.92894559966515       -0.15279170962499
C            2.76707040437400       -1.55932927437927       -0.05210438508420
C            3.75209317395941       -2.49532417463648        0.35365526352725
C            5.05711905214826       -2.10205534638820        0.42534438165239
C            5.40444068812730       -0.77488151286642        0.09479886637101
C            6.72169155622866       -0.28086251676945        0.12987049309293
C            6.97899012177568        1.02236193531895       -0.19534264746707
C            5.93304717525448        1.88337657401443       -0.56599866462113
C            4.64266788381048        1.43542561215265       -0.60992978455824
C            4.34464557535096        0.09511852549662       -0.28286211760761
N            3.06717313456170       -0.31422815474173       -0.34390932960353
C            0.38725420159215       -0.92854416419750       -0.05873529852980
C           -0.96440565479365       -1.20880163154720       -0.15268979965991
C           -1.97428519045026       -0.09349924319060       -0.02222059828464
C           -1.84224888713284        0.58714527978769        1.32698190785320
C           -2.03152495655533        0.04296234596919        2.57754116749230
C           -1.85442119553326        0.85853745097719        3.68739183687030
C           -1.49477060942026        2.18927030711840        3.53927644300559
C           -1.30358463018951        2.73980908875003        2.28190792100376
C           -1.47930244941727        1.93188381808225        1.17102969577978
C           -1.35846512220246        2.21657755649412       -0.25080451452364
C           -1.02936369420419        3.38175093931241       -0.92288780097268
C           -0.99522169074623        3.36066135723788       -2.30812881658320
C           -1.28359179775631        2.20056138789469       -3.01041558601419
C           -1.61348044813045        1.02885478145427       -2.34230800468374
C           -1.64845410337108        1.04636519110885       -0.96594485085020
H           -7.00772627046922       -1.84770856197979       -0.71822183921077
H           -6.56039991697858        0.56023255124643       -0.36837390512353
H           -4.24400745291561        1.34136606609698       -0.05718474479990
H           -5.11720209138575       -3.45065101675839       -0.75637921031183
H           -0.75267759188602       -4.54624727528361       -0.63012784168689
H            1.64858705056082       -4.03956708207960       -0.46957246132771
H            3.46444645686131       -3.49895636098204        0.62484459352825
H            5.83199506305552       -2.79000904773880        0.73695045797214
H            7.52181914409060       -0.94922565451161        0.41684400644397
H            7.99083443235747        1.39975167865610       -0.16932402399354
H            6.16107931565770        2.90888037607614       -0.81818932243230
H            3.82535481317100        2.07989794041845       -0.89384969647183
H            0.71576417017798        0.08793944435773        0.09266395219528
H           -2.31219617689890       -0.99410829004503        2.69395858087128
H           -1.99864293610337        0.45128162888689        4.67730041713701
H           -1.36230015571995        2.80491703405797        4.41715597145476
H           -1.02367555860114        3.77704345380591        2.17239582588234
H           -0.80381416676478        4.28789014728810       -0.38033643251387
H           -0.74056474202075        4.26039846675134       -2.84934656195434
H           -1.25073068310522        2.20796428795784       -4.08991810088611
H           -1.83735076678659        0.12495231873950       -2.89029467323435

          :  Hamiltonian                  GFN2-xTB          :
         :: gradient norm              0.000034601805 Eh/a0 ::
         :: HOMO-LUMO gap              2.289665861838 eV    ::
         :: SCC energy               -92.208499464917 Eh    ::
         :: -> dispersion             -0.080427687958 Eh    ::
         :: repulsion energy           1.672163323628 Eh    ::

    * Orbital Energies and Occupations

         #    Occupation            Energy/Eh            Energy/eV
      -------------------------------------------------------------
         1        2.0000           -0.7291196             -19.8404
       ...           ...                  ...                  ...
        72        2.0000           -0.4212427             -11.4626
        73        2.0000           -0.4193045             -11.4099
        74        2.0000           -0.4186070             -11.3909
        75        2.0000           -0.4144542             -11.2779
        76        2.0000           -0.4089085             -11.1270
        77        2.0000           -0.4013504             -10.9213
        78        2.0000           -0.3992397             -10.8639
        79        2.0000           -0.3960725             -10.7777
        80        2.0000           -0.3958944             -10.7728
        81        2.0000           -0.3893490             -10.5947
        82        2.0000           -0.3785924             -10.3020
        83        2.0000           -0.3679302             -10.0119
        84        2.0000           -0.3590423              -9.7700 (HOMO)
        85                         -0.2748986              -7.4804 (LUMO)
        86                         -0.2507020              -6.8219
        87                         -0.2474344              -6.7330
        88                         -0.2285233              -6.2184
        89                         -0.2285003              -6.2178
        90                         -0.2239919              -6.0951
        91                         -0.2239487              -6.0940
        92                         -0.2151535              -5.8546
        93                         -0.2044248              -5.5627
        94                         -0.1908509              -5.1933
        95                         -0.1880226              -5.1164
       ...                                ...                  ...
       165                          0.7314800              19.9046
      -------------------------------------------------------------
                  HL-Gap            0.0841437 Eh            2.2897 eV

     #   Z          covCN         q      C6AA      α(0)
     1   6 C        2.920    -0.032    28.791     8.799
     2   6 C        2.918    -0.039    28.973     8.827
     3   6 C        2.926    -0.035    28.874     8.812
     4   6 C        2.978    -0.012    28.317     8.729
     5   6 C        2.882     0.135    25.046     8.205
     6   6 C        2.919    -0.054    29.339     8.882
     7   8 O        1.710    -0.241    17.986     5.726
     8   6 C        2.882     0.137    25.007     8.198
     9   6 C        2.918    -0.056    29.388     8.890
    10   6 C        2.923    -0.036    28.886     8.814
    11   6 C        2.980    -0.003    28.100     8.695
    12   6 C        2.951     0.099    25.801     8.331
    13   6 C        2.913    -0.047    29.169     8.856
    14   6 C        2.921    -0.020    28.504     8.755
    15   6 C        2.985    -0.001    28.041     8.686
    16   6 C        2.916    -0.035    28.876     8.812
    17   6 C        2.916    -0.030    28.756     8.794
    18   6 C        2.916    -0.028    28.695     8.784
    19   6 C        2.920    -0.039    28.964     8.826
    20   6 C        2.964     0.091    25.968     8.359
    21   7 N        1.852    -0.247    27.282     7.741
    22   6 C        2.933    -0.034    28.844     8.808
    23   6 C        2.977    -0.012    28.306     8.727
    24   6 C        3.950     0.017    20.216     6.389
    25   6 C        3.059     0.002    27.928     8.666
    26   6 C        2.914    -0.032    28.806     8.801
    27   6 C        2.923    -0.031    28.783     8.798
    28   6 C        2.921    -0.032    28.793     8.799
    29   6 C        2.915    -0.033    28.828     8.804
    30   6 C        3.035     0.003    27.931     8.669
    31   6 C        3.035     0.003    27.929     8.668
    32   6 C        2.915    -0.033    28.821     8.803
    33   6 C        2.921    -0.031    28.779     8.797
    34   6 C        2.923    -0.030    28.756     8.794
    35   6 C        2.914    -0.031    28.768     8.795
    36   6 C        3.057     0.002    27.914     8.664
    37   1 H        0.926     0.039     2.461     2.453
    38   1 H        0.926     0.036     2.501     2.473
    39   1 H        0.926     0.036     2.506     2.476
    40   1 H        0.926     0.049     2.328     2.386
    41   1 H        0.926     0.050     2.315     2.379
    42   1 H        0.926     0.040     2.443     2.444
    43   1 H        0.926     0.033     2.546     2.495
    44   1 H        0.925     0.031     2.572     2.508
    45   1 H        0.925     0.032     2.565     2.504
    46   1 H        0.926     0.033     2.544     2.494
    47   1 H        0.926     0.035     2.519     2.482
    48   1 H        0.926     0.050     2.323     2.384
    49   1 H        0.926     0.059     2.205     2.322
    50   1 H        0.926     0.026     2.647     2.544
    51   1 H        0.926     0.031     2.574     2.509
    52   1 H        0.926     0.031     2.574     2.509
    53   1 H        0.926     0.032     2.555     2.500
    54   1 H        0.926     0.032     2.562     2.503
    55   1 H        0.926     0.031     2.572     2.508
    56   1 H        0.926     0.032     2.565     2.504
    57   1 H        0.926     0.027     2.636     2.539

molecular dipole:
                 x           y           z       tot (Debye)
 q only:        0.018       0.194       0.078
   full:        0.347      -0.054       0.201       1.028

 projected vibrational frequencies (cm⁻¹)
eigval :       -0.00    -0.00    -0.00     0.00     0.00     0.00
eigval :        6.46    20.87    28.97    37.42    43.19    54.51
eigval :       64.75    82.42   104.35   128.03   133.90   153.97
eigval :      160.60   192.29   202.23   210.13   239.28   244.89
eigval :      270.80   293.52   299.24   333.86   344.56   365.26
eigval :      386.28   404.02   411.46   417.21   422.55   427.88
eigval :      442.91   458.24   462.66   471.44   499.48   502.43
eigval :      507.76   509.96   534.78   537.91   558.37   586.34
eigval :      589.93   592.22   599.56   610.80   627.62   653.18
eigval :      669.31   680.49   685.27   691.99   716.40   730.22
eigval :      744.22   753.77   761.33   768.64   782.42   786.04
eigval :      802.40   809.72   825.28   838.73   847.78   876.22
eigval :      877.22   877.85   878.07   879.51   886.07   898.46
eigval :      907.91   909.44   910.76   913.34   915.09   917.53
eigval :      923.62   924.04   925.02   926.99   928.71   930.11
eigval :      976.64  1006.92  1067.49  1074.63  1079.45  1084.76
eigval :     1090.26  1096.33  1125.36  1134.76  1141.15  1143.63
eigval :     1162.17  1172.80  1174.48  1177.33  1178.74  1182.86
eigval :     1205.58  1208.61  1212.13  1219.91  1232.06  1236.04
eigval :     1240.60  1252.80  1255.51  1260.87  1268.82  1284.67
eigval :     1299.47  1313.67  1327.41  1328.29  1337.35  1354.55
eigval :     1367.83  1375.55  1400.92  1420.78  1429.86  1430.23
eigval :     1434.12  1447.21  1461.90  1472.50  1476.56  1489.89
eigval :     1498.77  1542.93  1569.08  1575.00  1587.03  1590.17
eigval :     1595.12  1597.58  1600.65  1604.79  1605.86  1608.92
eigval :     3054.48  3064.56  3071.96  3072.93  3075.47  3075.88
eigval :     3076.49  3082.00  3083.46  3085.57  3087.05  3087.56
eigval :     3088.99  3091.58  3092.87  3096.04  3097.94  3103.00
eigval :     3104.50  3106.12  3107.62

   temp. (K)  partition function   enthalpy   heat capacity  entropy
                                   cal/mol     cal/K/mol   cal/K/mol   J/K/mol
 298.15  VIB  0.155E+12            15044.072    100.108     91.669
         ROT  0.272E+08              888.752      2.981     37.003
         INT  0.423E+19            15932.824    103.089    128.672
         TR   0.953E+28             1481.254      4.968     44.244
         TOT                       17414.0781   108.0571   172.9158   723.4797

       T/K    H(0)-H(T)+PV         H(T)/Eh          T*S/Eh         G(T)/Eh
   ------------------------------------------------------------------------
    298.15    0.277511E-01    0.461122E+00    0.821579E-01    0.378964E+00
   ------------------------------------------------------------------------

         :::::::::::::::::::::::::::::::::::::::::::::::::::::
         ::                  THERMODYNAMIC                  ::
         :::::::::::::::::::::::::::::::::::::::::::::::::::::
         :: total free energy         -90.157371936848 Eh   ::
         ::.................................................::
         :: total energy              -90.536336141289 Eh   ::
         :: zero point energy           0.433370981615 Eh   ::
         :: G(RRHO) w/o ZPVE           -0.054406777174 Eh   ::
         :: G(RRHO) contrib.            0.378964204441 Eh   ::
         :::::::::::::::::::::::::::::::::::::::::::::::::::::

           -------------------------------------------------
          | TOTAL ENERGY              -90.536336141289 Eh   |
          | TOTAL ENTHALPY            -90.075214059804 Eh   |
          | TOTAL FREE ENERGY         -90.157371936848 Eh   |
          | GRADIENT NORM               0.000034602540 Eh/α |
          | HOMO-LUMO GAP               2.289665924520 eV   |
           -------------------------------------------------

 * finished run on 2025/08/26 at 03:52:25.336
