   * xtb version 6.7.1 (edcfbbe) compiled by 'albert@albert-system' on 2024-07-22

   ID    Z sym.   atoms
    1    6 C      1-20, 22-26, 28, 30-33, 35-58
    2    7 N      21, 34
    3    8 O      27, 29
    4    1 H      59-114

          program call               : xtb data2507/gas/DC-TC/DC-TC_gas_S0_crest.xyz --gfn 2 --ohess vtight --parallel 40 --molden --ceasefiles --namespace data2507/gas/DC-TC/DC-TC_gas_S0_finalOpt
          :  Hamiltonian                  GFN2-xTB          :
 * total energy  :  -158.2899850 Eh     change       -0.3164587E-08 Eh
 * total energy  :  -158.2899867 Eh     change       -0.1733081E-05 Eh
 * total energy  :  -158.2899889 Eh     change       -0.2235758E-05 Eh
 * total energy  :  -158.2899927 Eh     change       -0.3727251E-05 Eh
 * total energy  :  -158.2899940 Eh     change       -0.1350664E-05 Eh
 * total energy  :  -158.2899954 Eh     change       -0.1422198E-05 Eh
 * total energy  :  -158.2899972 Eh     change       -0.1742816E-05 Eh
 * total energy  :  -158.2899982 Eh     change       -0.1031823E-05 Eh
 * total energy  :  -158.2899989 Eh     change       -0.7053828E-06 Eh
 * total energy  :  -158.2899998 Eh     change       -0.8295549E-06 Eh
 * total energy  :  -158.2900020 Eh     change       -0.3909674E-06 Eh
 * total energy  :  -158.2900024 Eh     change       -0.4022001E-06 Eh
 * total energy  :  -158.2900028 Eh     change       -0.3381634E-06 Eh
 * total energy  :  -158.2900030 Eh     change       -0.2742944E-06 Eh
 * total energy  :  -158.2900033 Eh     change       -0.2337322E-06 Eh
 * total energy  :  -158.2900035 Eh     change       -0.2237333E-06 Eh
 * total energy  :  -158.2900037 Eh     change       -0.2303089E-06 Eh
 * total energy  :  -158.2900039 Eh     change       -0.2137634E-06 Eh
 * total energy  :  -158.2900039 Eh     change       -0.4111399E-08 Eh
   *** GEOMETRY OPTIMIZATION CONVERGED AFTER 22 ITERATIONS ***

 final structure:
================
114
 xtb: 6.7.1 (edcfbbe)
C           -2.26594071723816       -3.71795616281969        1.76346979876400
C           -1.07684468442560       -3.46195545416457        2.69663572420155
C           -1.58213564103817       -3.19381288792852        4.12165991413472
C           -0.21784166607944       -4.72943008411092        2.73059672181122
C           -0.30522526186878       -2.24550606032078        2.20690452954912
C           -0.94645704310043       -1.00045138445504        2.17239516341887
C           -0.29704808528965        0.16431237490713        1.81753060890564
C            1.04020935473847        0.08431758149665        1.46409598275644
C            1.68242498917776       -1.16699306651634        1.40434209434985
C            1.01595639473547       -2.31869056136115        1.79944176171261
C            3.00707475184141       -0.92220578479886        0.90262374589876
C            4.08332231880848       -1.75704372167575        0.63370507368937
C            5.26653459715379       -1.22271328916045        0.14854841399398
C            6.47788748358786       -2.08091519343817       -0.18520686120077
C            7.64246301221887       -1.67769848450279        0.73018485138647
C            6.87014637858760       -1.85894841259221       -1.65301904270165
C            6.21050863338322       -3.57586042625734        0.01098040745306
C            5.34967928233627        0.16474971100367       -0.02345635289373
C            4.29869689474867        1.01905856637618        0.24523358115203
C            3.10702887049176        0.46803744477957        0.68813306179121
N            1.91664205614218        1.07510026783720        1.04980482880558
C            1.62678203736816        2.43525036094701        1.04770423907112
C            0.99442127076314        3.00936445591048        2.15209263595548
C            0.57594393825819        4.32187207224306        2.11195062956918
C            0.75213696199650        5.07943753690132        0.95467876489848
C           -0.04684580415929        6.31745149308810        0.79508816160313
O           -0.29715080336373        7.12002035327682        1.65785149496545
C           -0.69057205049597        6.32286489385130       -0.61031827448289
O           -0.52657750407637        7.19049478033283       -1.42935131670758
C           -1.35955541819765        5.01887687410673       -0.83250083098536
C           -1.09109001047962        4.33296580123253       -2.01637788262242
C           -1.35847310423149        2.98411929088406       -2.11122556291861
C           -1.93185787365661        2.30215692008665       -1.03706526226470
N           -2.05521164808286        0.91724444085197       -1.08531815500292
C           -3.17196102110815        0.16038872085062       -0.77887091085395
C           -4.44315286078519        0.55664112117849       -0.39629399755499
C           -5.39362516020399       -0.42362843255549       -0.19118542369900
C           -5.13239649128598       -1.78682098056807       -0.37852395756918
C           -6.24502471742016       -2.79189272007098       -0.11917179706826
C           -7.43991105983516       -2.47523452370259       -1.02922492095997
C           -6.67043394852019       -2.69398600790417        1.35291200874785
C           -5.81001271724749       -4.23431899057960       -0.39223288936377
C           -3.86618081387761       -2.16637468080318       -0.79401903780595
C           -2.88359792398935       -1.20453156737033       -0.98348651002259
C           -1.50849604106041       -1.27651426186416       -1.39974240178858
C           -0.66048757309158       -2.32628063188663       -1.71357103764944
C            0.66125813538073       -2.07662433135420       -2.05930097646854
C            1.55781761393631       -3.24123648390865       -2.45574343493573
C            0.97817066407880       -3.89541351226398       -3.71882193985597
C            2.99495099414971       -2.80746419658702       -2.75674325366913
C            1.60548003031521       -4.26708205849791       -1.31655749821450
C            1.11287545840879       -0.75462070963236       -2.05663983609662
C            0.28485450689152        0.31230227400619       -1.76067972374023
C           -1.03772020036419        0.05108090729626       -1.45162654137929
C           -2.33159229800635        3.01946149497867        0.09236368801521
C           -2.02746702016271        4.35821521149967        0.20007785526291
C            1.47424280784375        4.53556036763247       -0.10902553351879
C            1.92542563459555        3.23548706991895       -0.05741149167291
H           -2.83188911317754       -4.58251502457026        2.10605300984326
H           -2.93344931938433       -2.86162828024576        1.72412292144880
H           -1.90719639398456       -3.91204316602429        0.75575275290020
H           -2.10622548124825       -4.06730913946152        4.50420263673882
H           -0.74563049962734       -2.97679144379751        4.78277964088945
H           -2.26564764813810       -2.34990062380681        4.14829051524741
H           -0.81345548265347       -5.56054123785198        3.10326347336719
H            0.63616389883400       -4.60563752111010        3.39250157838116
H            0.13585439112186       -4.99062179501374        1.73599656084274
H           -1.99045668928411       -0.93404722410657        2.43869549802507
H           -0.82329625889632        1.10727611821967        1.80864245588017
H            1.54803096503009       -3.25481325004909        1.78885454939106
H            3.97705029858149       -2.81335035937537        0.81670148131501
H            7.91834717457546       -0.63688931305163        0.58495163749377
H            8.51453644046234       -2.29379514219629        0.52138068201764
H            7.36491167309524       -1.81371817354522        1.77347338796610
H            6.04328918581821       -2.12378351203589       -2.30855922919872
H            7.72561677261505       -2.48061077337525       -1.90866054389106
H            7.13709688782343       -0.82310289240118       -1.84216581822946
H            5.39052103264455       -3.91222894429949       -0.61918918960003
H            7.09913906837504       -4.14112384857065       -0.26259356381343
H            5.97911572313204       -3.80011054890563        1.04968365996247
H            6.27276041177166        0.59984113478252       -0.37450646666504
H            4.41921371065381        2.08480796985117        0.12340268821849
H            0.82795239650463        2.41129123301565        3.03510733256345
H            0.06317938186838        4.76231935421189        2.95383829485852
H           -0.62277937644954        4.86055538589006       -2.83372436035728
H           -1.11508240648557        2.44121734321054       -3.01189893256688
H           -4.69661530246349        1.59879621161694       -0.27231226454339
H           -6.37927646102574       -0.11057753071128        0.11753658344179
H           -7.84548970307535       -1.48812229808947       -0.82637132303757
H           -8.23179774139549       -3.20525268825920       -0.87514580162701
H           -7.13588852182784       -2.51063567760129       -2.07334161909039
H           -7.03792589828343       -1.70047667441108        1.59459288677399
H           -7.46198533014066       -3.41009565045512        1.56323339587124
H           -5.82576586754371       -2.91333127968483        2.00301346261219
H           -6.64023279385816       -4.90734881881585       -0.18754051728480
H           -5.52128177410598       -4.36494936448216       -1.43257276689394
H           -4.97931616994175       -4.52033940698267        0.24842497536149
H           -3.62239700427701       -3.19804437187956       -0.98138648882199
H           -1.04582254189481       -3.33398024595336       -1.68859145512291
H            1.60837807717056       -4.72348603634411       -4.03691651150931
H            0.92660783349292       -3.17015545515331       -4.52828560019233
H           -0.02352321674358       -4.27715956283102       -3.54100053964300
H            3.03044846508955       -2.12530187681240       -3.60319291826418
H            3.59057293508343       -3.68317040200237       -3.00978941720877
H            3.44450198702588       -2.32691353906289       -1.89038600933125
H            2.00071266474344       -3.79841122518390       -0.41990799597722
H            2.24837082297505       -5.10201521124771       -1.58919187401699
H            0.61794046786303       -4.66015154653245       -1.09183114104007
H            2.14152814195114       -0.53618304026581       -2.29088898529318
H            0.66845055203464        1.32151740267976       -1.76474671160525
H           -2.82102389862113        2.50577429392226        0.90575410484451
H           -2.29186300647383        4.89877197244671        1.09722828923558
H            1.66789121375305        5.13614115558740       -0.98583254662364
H            2.45726285141679        2.81322622449241       -0.89604306304005

          :  Hamiltonian                  GFN2-xTB          :
         :: gradient norm              0.000039697154 Eh/a0 ::
         :: HOMO-LUMO gap              1.669902360255 eV    ::
         :: SCC energy              -160.978978944469 Eh    ::
         :: -> dispersion             -0.171004009710 Eh    ::
         :: repulsion energy           2.688975002933 Eh    ::

    * Orbital Energies and Occupations

         #    Occupation            Energy/Eh            Energy/eV
      -------------------------------------------------------------
         1        2.0000           -0.7263573             -19.7652
       ...           ...                  ...                  ...
       135        2.0000           -0.4189761             -11.4009
       136        2.0000           -0.4146824             -11.2841
       137        2.0000           -0.4138326             -11.2610
       138        2.0000           -0.4128505             -11.2342
       139        2.0000           -0.4113300             -11.1929
       140        2.0000           -0.4108743             -11.1805
       141        2.0000           -0.4016087             -10.9283
       142        2.0000           -0.3992587             -10.8644
       143        2.0000           -0.3821793             -10.3996
       144        2.0000           -0.3788069             -10.3079
       145        2.0000           -0.3782327             -10.2922
       146        2.0000           -0.3647511              -9.9254
       147        2.0000           -0.3630634              -9.8795 (HOMO)
       148                         -0.3016956              -8.2096 (LUMO)
       149                         -0.2819379              -7.6719
       150                         -0.2505393              -6.8175
       151                         -0.2474514              -6.7335
       152                         -0.2463050              -6.7023
       153                         -0.2436187              -6.6292
       154                         -0.2386853              -6.4950
       155                         -0.2237129              -6.0875
       156                         -0.2217452              -6.0340
       157                         -0.2109140              -5.7393
       158                         -0.1949489              -5.3048
       ...                                ...                  ...
       288                          0.7416480              20.1813
      -------------------------------------------------------------
                  HL-Gap            0.0613678 Eh            1.6699 eV

     #   Z          covCN         q      C6AA      α(0)
     1   6 C        3.762    -0.101    22.483     6.759
     2   6 C        3.903     0.026    20.086     6.371
     3   6 C        3.762    -0.105    22.558     6.770
     4   6 C        3.762    -0.107    22.596     6.776
     5   6 C        2.973     0.001    28.004     8.680
     6   6 C        2.931    -0.036    28.906     8.817
     7   6 C        2.909    -0.051    29.276     8.872
     8   6 C        3.079     0.042    26.975     8.515
     9   6 C        3.066    -0.017    28.374     8.735
    10   6 C        2.919    -0.042    29.046     8.838
    11   6 C        3.068    -0.017    28.364     8.733
    12   6 C        2.918    -0.043    29.064     8.841
    13   6 C        2.973    -0.001    28.040     8.686
    14   6 C        3.903     0.026    20.082     6.370
    15   6 C        3.762    -0.105    22.561     6.771
    16   6 C        3.761    -0.107    22.584     6.774
    17   6 C        3.761    -0.108    22.606     6.778
    18   6 C        2.931    -0.039    28.972     8.827
    19   6 C        2.909    -0.053    29.314     8.878
    20   6 C        3.073     0.044    26.949     8.512
    21   7 N        2.802    -0.040    22.021     6.970
    22   6 C        2.913     0.073    26.379     8.422
    23   6 C        2.922    -0.043    29.077     8.843
    24   6 C        2.923    -0.019    28.486     8.753
    25   6 C        2.976    -0.020    28.511     8.759
    26   6 C        2.823     0.215    23.455     7.936
    27   8 O        0.856    -0.321    20.164     6.020
    28   6 C        2.823     0.216    23.448     7.934
    29   8 O        0.856    -0.320    20.152     6.019
    30   6 C        2.977    -0.020    28.503     8.757
    31   6 C        2.923    -0.019    28.487     8.753
    32   6 C        2.922    -0.043    29.066     8.841
    33   6 C        2.914     0.072    26.383     8.423
    34   7 N        2.802    -0.042    22.053     6.975
    35   6 C        3.074     0.043    26.953     8.512
    36   6 C        2.908    -0.054    29.329     8.880
    37   6 C        2.931    -0.039    28.971     8.827
    38   6 C        2.973    -0.001    28.046     8.687
    39   6 C        3.903     0.026    20.085     6.370
    40   6 C        3.761    -0.106    22.566     6.772
    41   6 C        3.762    -0.105    22.553     6.770
    42   6 C        3.761    -0.108    22.616     6.779
    43   6 C        2.918    -0.042    29.047     8.838
    44   6 C        3.067    -0.017    28.357     8.732
    45   6 C        3.064    -0.017    28.359     8.733
    46   6 C        2.921    -0.037    28.927     8.820
    47   6 C        2.973     0.000    28.017     8.682
    48   6 C        3.903     0.026    20.087     6.371
    49   6 C        3.762    -0.105    22.548     6.769
    50   6 C        3.761    -0.105    22.562     6.771
    51   6 C        3.762    -0.103    22.522     6.765
    52   6 C        2.929    -0.041    29.014     8.834
    53   6 C        2.910    -0.053    29.317     8.878
    54   6 C        3.079     0.042    26.974     8.515
    55   6 C        2.920    -0.042    29.035     8.836
    56   6 C        2.921    -0.028    28.706     8.786
    57   6 C        2.921    -0.028    28.707     8.786
    58   6 C        2.920    -0.042    29.049     8.838
    59   1 H        0.925     0.033     2.541     2.493
    60   1 H        0.925     0.036     2.501     2.473
    61   1 H        0.925     0.035     2.522     2.484
    62   1 H        0.925     0.037     2.494     2.470
    63   1 H        0.925     0.033     2.544     2.494
    64   1 H        0.925     0.035     2.512     2.478
    65   1 H        0.925     0.036     2.507     2.476
    66   1 H        0.925     0.035     2.514     2.479
    67   1 H        0.925     0.036     2.496     2.471
    68   1 H        0.926     0.029     2.595     2.519
    69   1 H        0.926     0.020     2.730     2.584
    70   1 H        0.926     0.040     2.450     2.448
    71   1 H        0.926     0.039     2.467     2.456
    72   1 H        0.925     0.036     2.507     2.476
    73   1 H        0.925     0.037     2.489     2.467
    74   1 H        0.925     0.033     2.542     2.493
    75   1 H        0.925     0.036     2.505     2.475
    76   1 H        0.925     0.036     2.496     2.471
    77   1 H        0.925     0.035     2.511     2.478
    78   1 H        0.925     0.038     2.474     2.460
    79   1 H        0.925     0.035     2.511     2.478
    80   1 H        0.925     0.035     2.518     2.481
    81   1 H        0.926     0.031     2.565     2.505
    82   1 H        0.926     0.026     2.638     2.540
    83   1 H        0.926     0.052     2.294     2.369
    84   1 H        0.926     0.057     2.233     2.337
    85   1 H        0.926     0.057     2.236     2.338
    86   1 H        0.926     0.052     2.293     2.368
    87   1 H        0.926     0.026     2.649     2.545
    88   1 H        0.926     0.031     2.571     2.507
    89   1 H        0.925     0.036     2.506     2.475
    90   1 H        0.925     0.037     2.493     2.469
    91   1 H        0.925     0.034     2.537     2.491
    92   1 H        0.925     0.035     2.513     2.479
    93   1 H        0.925     0.037     2.493     2.469
    94   1 H        0.925     0.033     2.539     2.492
    95   1 H        0.925     0.036     2.507     2.476
    96   1 H        0.925     0.035     2.513     2.479
    97   1 H        0.925     0.038     2.480     2.463
    98   1 H        0.926     0.040     2.443     2.444
    99   1 H        0.926     0.030     2.580     2.512
   100   1 H        0.925     0.037     2.493     2.469
   101   1 H        0.925     0.032     2.553     2.498
   102   1 H        0.925     0.036     2.509     2.477
   103   1 H        0.925     0.032     2.555     2.500
   104   1 H        0.925     0.033     2.546     2.495
   105   1 H        0.925     0.039     2.463     2.454
   106   1 H        0.925     0.039     2.464     2.455
   107   1 H        0.925     0.034     2.534     2.489
   108   1 H        0.925     0.032     2.559     2.502
   109   1 H        0.926     0.036     2.503     2.474
   110   1 H        0.926     0.020     2.733     2.585
   111   1 H        0.926     0.049     2.330     2.387
   112   1 H        0.926     0.043     2.406     2.426
   113   1 H        0.926     0.043     2.411     2.428
   114   1 H        0.926     0.050     2.319     2.382

molecular dipole:
                 x           y           z       tot (Debye)
 q only:        0.202      -3.044      -0.025
   full:        0.170      -2.870      -0.024       7.308

 projected vibrational frequencies (cm⁻¹)
eigval :       -0.00    -0.00    -0.00     0.00     0.00     0.00
eigval :       18.03    23.11    26.82    29.63    33.96    36.81
eigval :       39.98    42.43    44.18    51.81    53.96    56.58
eigval :       61.45    66.60    71.53    76.64    83.18    92.18
eigval :      105.56   109.72   110.98   123.48   126.96   133.07
eigval :      153.54   161.55   164.08   171.51   174.18   178.79
eigval :      184.34   186.68   191.96   197.25   201.33   208.30
eigval :      218.69   221.27   223.26   226.17   231.71   238.56
eigval :      239.72   252.42   257.96   263.85   271.85   274.58
eigval :      282.68   297.13   303.64   316.12   319.06   320.98
eigval :      323.85   324.69   328.85   335.17   337.34   350.33
eigval :      354.26   358.96   359.92   361.27   363.34   374.24
eigval :      379.15   380.99   393.08   395.95   402.63   409.34
eigval :      414.14   415.37   439.42   442.91   444.32   445.59
eigval :      452.93   456.45   459.90   466.74   467.13   470.62
eigval :      486.09   494.13   503.59   518.15   519.28   523.38
eigval :      565.57   574.55   581.86   582.68   587.32   592.88
eigval :      599.05   602.10   606.98   628.58   634.73   640.74
eigval :      641.04   671.98   675.94   687.74   688.47   698.43
eigval :      704.80   707.08   708.10   719.66   723.25   737.26
eigval :      750.23   756.45   816.24   818.17   823.08   824.19
eigval :      827.76   831.04   832.68   833.15   868.37   871.02
eigval :      873.96   874.43   875.76   878.89   879.75   882.10
eigval :      882.14   908.04   912.28   913.45   914.40   919.58
eigval :      925.84   926.32   928.37   928.85   930.26   932.71
eigval :      935.39   940.36   952.26   960.31   960.71   961.09
eigval :      961.42   963.12   963.16   963.23   963.50   964.07
eigval :      964.54   965.66   967.54   974.31  1018.00  1022.00
eigval :     1032.17  1033.11  1035.81  1035.87  1036.43  1037.19
eigval :     1038.30  1039.81  1041.06  1043.29  1115.95  1116.67
eigval :     1128.68  1130.56  1132.89  1133.93  1142.79  1144.05
eigval :     1175.75  1177.20  1179.32  1181.93  1197.38  1197.81
eigval :     1219.81  1222.42  1227.67  1228.37  1229.67  1229.99
eigval :     1231.19  1232.12  1232.80  1233.49  1236.45  1237.47
eigval :     1246.53  1249.74  1259.20  1259.68  1262.74  1263.15
eigval :     1285.29  1286.45  1302.50  1305.18  1307.99  1308.59
eigval :     1320.88  1322.62  1348.14  1348.61  1358.24  1361.89
eigval :     1374.27  1379.33  1400.44  1401.07  1403.12  1404.38
eigval :     1405.07  1405.17  1405.65  1406.23  1408.06  1408.17
eigval :     1415.50  1416.27  1428.11  1428.94  1430.89  1431.00
eigval :     1438.31  1440.73  1475.02  1481.54  1482.61  1484.46
eigval :     1484.78  1487.53  1490.81  1491.39  1492.52  1492.60
eigval :     1494.22  1494.71  1494.78  1496.07  1500.99  1501.57
eigval :     1502.75  1503.18  1505.04  1505.30  1506.24  1506.38
eigval :     1514.10  1514.81  1515.85  1517.66  1521.07  1521.65
eigval :     1522.08  1524.10  1549.10  1550.52  1572.11  1573.21
eigval :     1579.57  1583.96  1585.49  1587.59  1604.96  1605.63
eigval :     1617.12  1618.62  1734.97  1768.71  3014.59  3016.20
eigval :     3019.84  3021.37  3022.62  3022.69  3023.68  3024.33
eigval :     3027.00  3027.26  3027.45  3027.77  3028.05  3028.42
eigval :     3030.55  3031.09  3031.73  3032.47  3033.39  3034.21
eigval :     3035.02  3036.87  3037.08  3037.83  3039.93  3040.08
eigval :     3041.34  3043.81  3046.41  3046.99  3048.06  3048.35
eigval :     3050.48  3050.87  3051.08  3058.41  3077.28  3080.28
eigval :     3082.10  3082.82  3083.40  3083.72  3087.47  3089.57
eigval :     3089.81  3091.67  3094.37  3095.86  3097.97  3099.42
eigval :     3100.20  3100.88  3115.40  3119.75  3120.51  3124.92

   temp. (K)  partition function   enthalpy   heat capacity  entropy
                                   cal/mol     cal/K/mol   cal/K/mol   J/K/mol
 298.15  VIB  0.375E+24            33089.972    205.448    203.237
         ROT  0.104E+09              888.752      2.981     39.666
         INT  0.390E+32            33978.725    208.429    242.904
         TR   0.205E+29             1481.254      4.968     45.762
         TOT                       35459.9787   213.3967   288.6662  1207.7795

       T/K    H(0)-H(T)+PV         H(T)/Eh          T*S/Eh         G(T)/Eh
   ------------------------------------------------------------------------
    298.15    0.565091E-01    0.100021E+01    0.137155E+00    0.863053E+00
   ------------------------------------------------------------------------

         :::::::::::::::::::::::::::::::::::::::::::::::::::::
         ::                  THERMODYNAMIC                  ::
         :::::::::::::::::::::::::::::::::::::::::::::::::::::
         :: total free energy        -157.426950647795 Eh   ::
         ::.................................................::
         :: total energy             -158.290003941537 Eh   ::
         :: zero point energy           0.943698856550 Eh   ::
         :: G(RRHO) w/o ZPVE           -0.080645562808 Eh   ::
         :: G(RRHO) contrib.            0.863053293742 Eh   ::
         :::::::::::::::::::::::::::::::::::::::::::::::::::::

           -------------------------------------------------
          | TOTAL ENERGY             -158.290003941537 Eh   |
          | TOTAL ENTHALPY           -157.289796011959 Eh   |
          | TOTAL FREE ENERGY        -157.426950647795 Eh   |
          | GRADIENT NORM               0.000039696049 Eh/α |
          | HOMO-LUMO GAP               1.669902143394 eV   |
           -------------------------------------------------

 * finished run on 2025/09/12 at 10:32:24.563
