   * xtb version 6.7.1 (edcfbbe) compiled by 'albert@albert-system' on 2024-07-22

   ID    Z sym.   atoms
    1    6 C      1-20, 22-26, 28, 30-33, 35-58
    2    7 N      21, 34
    3    8 O      27, 29
    4    1 H      59-114

          program call               : xtb data2507/gas/DC-TC/DC-TC.xyz --gfn 2 --ohess vtight --parallel 40 --molden --ceasefiles --namespace data2507/gas/DC-TC/DC-TC_gas_S0_preOpt
          :  Hamiltonian                  GFN2-xTB          :
 * total energy  :  -158.2564798 Eh     change       -0.3554646E-08 Eh
 * total energy  :  -158.2739637 Eh     change       -0.1748398E-01 Eh
 * total energy  :  -158.2791733 Eh     change       -0.5209554E-02 Eh
 * total energy  :  -158.2807105 Eh     change       -0.1537229E-02 Eh
 * total energy  :  -158.2816573 Eh     change       -0.9467944E-03 Eh
 * total energy  :  -158.2820289 Eh     change       -0.3715670E-03 Eh
 * total energy  :  -158.2822223 Eh     change       -0.1933988E-03 Eh
 * total energy  :  -158.2823304 Eh     change       -0.1080879E-03 Eh
 * total energy  :  -158.2823946 Eh     change       -0.6419941E-04 Eh
 * total energy  :  -158.2824483 Eh     change       -0.5372836E-04 Eh
 * total energy  :  -158.2830144 Eh     change       -0.7641634E-06 Eh
 * total energy  :  -158.2830153 Eh     change       -0.8288602E-06 Eh
 * total energy  :  -158.2830160 Eh     change       -0.7613867E-06 Eh
 * total energy  :  -158.2830170 Eh     change       -0.9254798E-06 Eh
 * total energy  :  -158.2830180 Eh     change       -0.1064068E-05 Eh
 * total energy  :  -158.2830192 Eh     change       -0.1161179E-05 Eh
 * total energy  :  -158.2830204 Eh     change       -0.1230955E-05 Eh
 * total energy  :  -158.2830219 Eh     change       -0.1451901E-05 Eh
 * total energy  :  -158.2830219 Eh     change       -0.4736478E-08 Eh
   *** GEOMETRY OPTIMIZATION CONVERGED AFTER 221 ITERATIONS ***

 final structure:
================
114
 xtb: 6.7.1 (edcfbbe)
C           11.19532627691628        2.63950845746345        2.27935390048309
C           10.83488349901944        2.44985565727798        0.79916591547024
C           10.94348661634019        3.79149158076368        0.06074816900369
C           11.85141509587852        1.48537153893829        0.18196471153923
C            9.40589001216043        1.93785975352834        0.69499468748213
C            8.36673186689386        2.72308558567261        1.21019044664973
C            7.04008702236310        2.34542947659674        1.15329126908637
C            6.73233967562235        1.13799989624038        0.54680461017219
C            7.76216770593534        0.31300165200635        0.05260885926231
C            9.08845371166066        0.71647779041619        0.12305438034910
C            7.12981516270046       -0.88085822450138       -0.44112121528538
C            7.61665779018503       -2.02227646378787       -1.05606111687095
C            6.74120264952364       -3.02213903744860       -1.46045104840657
C            7.30219693737318       -4.27076393169485       -2.12606182572190
C            8.04236588120175       -3.86417910349920       -3.40832000556437
C            6.21799041838480       -5.28339810329409       -2.50440412674766
C            8.27701610567517       -4.95783747326077       -1.15909108770662
C            5.37320065094088       -2.83238075053190       -1.25137412494706
C            4.86039008596787       -1.70149467262770       -0.64052465358536
C            5.74597348239026       -0.72836798982618       -0.21125673775495
N            5.51132552600666        0.50082142165438        0.38503397864268
C            4.27392860028381        1.00830338078627        0.76189075543547
C            3.93646047284842        2.33205839405593        0.46513978646205
C            2.71761393321161        2.83535526198715        0.85470599136288
C            1.80264716936860        2.03810203705915        1.55004269179230
C            0.52213394170809        2.63337003060444        1.95873238097936
O            0.18879712778641        3.76622656120141        1.67210185931049
C           -0.38643124053992        1.76341989202126        2.82671048232551
O           -0.04356053435425        1.43592624796500        3.94526885966451
C           -1.69135697129149        1.41939623745648        2.24412815856299
C           -2.65934267793077        0.83311209641056        3.06559413406590
C           -3.90550736244851        0.52250287014515        2.57384280469417
C           -4.21436047258234        0.78386591402892        1.23591375878120
N           -5.47629523942692        0.48779056173726        0.73548597575112
C           -6.18917271161825       -0.68050154736084        0.95519264287586
C           -5.82709095478752       -1.84118202715860        1.61643842321741
C           -6.73403396700154       -2.88561780131118        1.65307773722967
C           -7.98785885776344       -2.81748371418196        1.04107992627879
C           -8.98748813452922       -3.96411024932536        1.09433340230476
C           -9.27520563745364       -4.44474472790748       -0.33513475941837
C          -10.28514865915868       -3.46514213878006        1.74594372595018
C           -8.48060684212127       -5.16015085308714        1.90469684127296
C           -8.32377983756209       -1.66099239996523        0.34862254521006
C           -7.43512611673252       -0.59987133624102        0.29795417334691
C           -7.47944008512474        0.68822689300128       -0.34086000676626
C           -8.45008486394105        1.33278862322801       -1.09533431779782
C           -8.21881883037637        2.61741775704527       -1.56007225650721
C           -9.23226546031515        3.38297063708425       -2.39792819152185
C          -10.49744566208936        2.56795408781769       -2.68002297863620
C           -9.64414919472706        4.65861396128578       -1.64961277076932
C           -8.59434340380148        3.75237066650621       -3.74465152878771
C           -7.00721108415121        3.23794064148199       -1.23023220683546
C           -6.02542533791048        2.61986981847114       -0.48185311658787
C           -6.25487713334001        1.32269272337222       -0.05170456036014
C           -3.24277554486986        1.35069114041428        0.40663658710936
C           -1.99796097694620        1.66687517491616        0.90419072064643
C            2.13608121851103        0.71127484960845        1.83138011040735
C            3.35698270221032        0.20428535208347        1.44396983912900
H           12.22259309807042        2.98541102080265        2.37350218084143
H           10.54640560497908        3.36867387508062        2.75617923394334
H           11.09787201972148        1.69650437875021        2.81335981075373
H           11.96478202538655        4.16363361322492        0.10816189573742
H           10.66922512401074        3.66785961823440       -0.98495708202591
H           10.28906995388788        4.54026194696562        0.49798467048171
H           12.85110214407548        1.90535141491348        0.27366082377311
H           11.64922441907485        1.32782275154999       -0.87502081979284
H           11.84295960865454        0.52647376937801        0.69501592436605
H            8.59920168456244        3.66608533693138        1.68064814726784
H            6.27584166677183        2.97220268809586        1.58696014023392
H            9.84837446791666        0.06009257523988       -0.26662025424857
H            8.67938287973509       -2.11392395302089       -1.21840409799471
H            8.87115609383283       -3.19571142661827       -3.19284328000089
H            7.36277103993502       -3.35538659613816       -4.08893707522384
H            8.43726254184292       -4.74562657058506       -3.90922478038946
H            5.67118736310475       -5.61882022538600       -1.62614980354936
H            6.68174285131600       -6.15436086161360       -2.96337507868007
H            5.51850825245677       -4.86023471005913       -3.22166161796832
H            9.10629711886279       -4.30535823358980       -0.90092190769799
H            7.76284042289572       -5.23427480646337       -0.24088316300962
H            8.68229434695339       -5.85988484791733       -1.61283784860201
H            4.67043080219077       -3.58188683659005       -1.57540170823091
H            3.79352002565338       -1.58693121346458       -0.52161554864889
H            4.62978939366521        2.94527103203859       -0.09005101424306
H            2.44088693028040        3.85470609070179        0.62973719154099
H           -2.41073785093799        0.65213256007140        4.10077384296734
H           -4.66152011547411        0.10636933610585        3.22200038219253
H           -4.85966175128765       -1.94708409704301        2.08361727267969
H           -6.43874394429152       -3.77971628649208        2.17647131509012
H           -8.35593013123034       -4.78059190136478       -0.81064146371048
H           -9.70151064782824       -3.65102485904574       -0.94215787869487
H           -9.97826042915641       -5.27493854513948       -0.31746062038478
H          -10.72835362095341       -2.65271529906131        1.17706280020997
H          -11.01035869008024       -4.27405513218152        1.80545175345493
H          -10.08534146992073       -3.10579854078769        2.75334866072815
H           -9.24178666978581       -5.93783962224373        1.91525401166516
H           -7.57975312297990       -5.58026218337468        1.46340411662494
H           -8.27637313800689       -4.87730931919914        2.93479260030837
H           -9.27076341885014       -1.57270963830538       -0.16090414152216
H           -9.37333520757163        0.81609974646336       -1.29739069514258
H          -11.17990954314989        3.15767898896278       -3.28882997905001
H          -11.01077536242093        2.30968254287133       -1.75667502554169
H          -10.26237658334938        1.65712129115839       -3.22595718119517
H          -10.07563943161466        4.40455702829892       -0.68359593661768
H          -10.38589665564803        5.20796040064356       -2.22567858171871
H           -8.79327804412392        5.31243332068168       -1.48035176731923
H           -9.31282694220412        4.28174702938064       -4.36701271903670
H           -8.27887240537921        2.85316844846662       -4.26997566797369
H           -7.72573364460185        4.39097490332156       -3.61118601873093
H           -6.82114600234386        4.24702955855916       -1.56448750952240
H           -5.11797825417456        3.14754299164907       -0.23072108269721
H           -3.47031171927761        1.51943459700383       -0.63487655539717
H           -1.25682006946477        2.09994747682958        0.24971367551854
H            1.44626104661107        0.08202649281207        2.37236617459543
H            3.62661439585612       -0.81062619589241        1.69312667405985

          :  Hamiltonian                  GFN2-xTB          :
         :: gradient norm              0.000052946123 Eh/a0 ::
         :: HOMO-LUMO gap              1.696029584287 eV    ::
         :: SCC energy              -160.967047916066 Eh    ::
         :: -> dispersion             -0.140445755876 Eh    ::
         :: repulsion energy           2.684026048822 Eh    ::

    * Orbital Energies and Occupations

         #    Occupation            Energy/Eh            Energy/eV
      -------------------------------------------------------------
         1        2.0000           -0.7133339             -19.4108
       ...           ...                  ...                  ...
       135        2.0000           -0.4165623             -11.3352
       136        2.0000           -0.4157809             -11.3140
       137        2.0000           -0.4110158             -11.1843
       138        2.0000           -0.4106220             -11.1736
       139        2.0000           -0.4095767             -11.1451
       140        2.0000           -0.4092047             -11.1350
       141        2.0000           -0.3986202             -10.8470
       142        2.0000           -0.3982439             -10.8368
       143        2.0000           -0.3771644             -10.2632
       144        2.0000           -0.3767820             -10.2528
       145        2.0000           -0.3742878             -10.1849
       146        2.0000           -0.3621811              -9.8554
       147        2.0000           -0.3617213              -9.8429 (HOMO)
       148                         -0.2993934              -8.1469 (LUMO)
       149                         -0.2817897              -7.6679
       150                         -0.2439365              -6.6378
       151                         -0.2432769              -6.6199
       152                         -0.2401111              -6.5338
       153                         -0.2399913              -6.5305
       154                         -0.2211422              -6.0176
       155                         -0.2207613              -6.0072
       156                         -0.2196652              -5.9774
       157                         -0.2059431              -5.6040
       158                         -0.1877677              -5.1094
       ...                                ...                  ...
       288                          0.7421681              20.1954
      -------------------------------------------------------------
                  HL-Gap            0.0623279 Eh            1.6960 eV

     #   Z          covCN         q      C6AA      α(0)
     1   6 C        3.762    -0.106    22.565     6.771
     2   6 C        3.903     0.026    20.085     6.370
     3   6 C        3.762    -0.106    22.565     6.772
     4   6 C        3.761    -0.107    22.594     6.776
     5   6 C        2.973     0.001    28.013     8.682
     6   6 C        2.931    -0.038    28.950     8.824
     7   6 C        2.909    -0.052    29.301     8.876
     8   6 C        3.073     0.043    26.971     8.515
     9   6 C        3.065    -0.018    28.383     8.736
    10   6 C        2.918    -0.043    29.064     8.841
    11   6 C        3.065    -0.017    28.367     8.734
    12   6 C        2.920    -0.039    28.965     8.826
    13   6 C        2.973     0.000    28.018     8.682
    14   6 C        3.903     0.026    20.085     6.370
    15   6 C        3.762    -0.105    22.561     6.771
    16   6 C        3.761    -0.107    22.596     6.776
    17   6 C        3.762    -0.106    22.563     6.771
    18   6 C        2.929    -0.043    29.071     8.842
    19   6 C        2.909    -0.053    29.323     8.879
    20   6 C        3.071     0.042    26.983     8.517
    21   7 N        2.800    -0.039    21.994     6.965
    22   6 C        2.913     0.075    26.315     8.412
    23   6 C        2.919    -0.043    29.067     8.841
    24   6 C        2.924    -0.016    28.406     8.740
    25   6 C        2.971    -0.014    28.370     8.737
    26   6 C        2.821     0.210    23.551     7.952
    27   8 O        0.857    -0.357    20.850     6.122
    28   6 C        2.821     0.211    23.545     7.951
    29   8 O        0.857    -0.357    20.843     6.121
    30   6 C        2.971    -0.014    28.361     8.735
    31   6 C        2.924    -0.015    28.396     8.739
    32   6 C        2.919    -0.043    29.061     8.840
    33   6 C        2.913     0.075    26.316     8.412
    34   7 N        2.801    -0.039    22.000     6.966
    35   6 C        3.071     0.042    26.985     8.518
    36   6 C        2.909    -0.053    29.326     8.880
    37   6 C        2.929    -0.043    29.071     8.842
    38   6 C        2.973     0.000    28.019     8.683
    39   6 C        3.903     0.026    20.085     6.370
    40   6 C        3.762    -0.105    22.559     6.771
    41   6 C        3.762    -0.106    22.562     6.771
    42   6 C        3.761    -0.107    22.598     6.777
    43   6 C        2.920    -0.039    28.966     8.826
    44   6 C        3.065    -0.017    28.371     8.734
    45   6 C        3.065    -0.018    28.386     8.737
    46   6 C        2.918    -0.043    29.066     8.841
    47   6 C        2.973     0.000    28.016     8.682
    48   6 C        3.903     0.026    20.085     6.370
    49   6 C        3.761    -0.107    22.593     6.776
    50   6 C        3.762    -0.106    22.565     6.772
    51   6 C        3.762    -0.106    22.564     6.771
    52   6 C        2.931    -0.038    28.950     8.824
    53   6 C        2.909    -0.053    29.305     8.877
    54   6 C        3.073     0.042    26.975     8.516
    55   6 C        2.920    -0.042    29.048     8.838
    56   6 C        2.919    -0.020    28.514     8.757
    57   6 C        2.919    -0.021    28.531     8.759
    58   6 C        2.920    -0.042    29.049     8.838
    59   1 H        0.925     0.037     2.490     2.468
    60   1 H        0.925     0.036     2.498     2.472
    61   1 H        0.925     0.034     2.535     2.490
    62   1 H        0.925     0.037     2.492     2.469
    63   1 H        0.925     0.033     2.538     2.491
    64   1 H        0.925     0.036     2.499     2.472
    65   1 H        0.925     0.036     2.505     2.475
    66   1 H        0.925     0.035     2.510     2.478
    67   1 H        0.925     0.035     2.510     2.478
    68   1 H        0.926     0.032     2.554     2.499
    69   1 H        0.926     0.029     2.597     2.520
    70   1 H        0.926     0.039     2.468     2.456
    71   1 H        0.926     0.033     2.550     2.497
    72   1 H        0.925     0.036     2.498     2.472
    73   1 H        0.925     0.033     2.541     2.493
    74   1 H        0.925     0.037     2.493     2.469
    75   1 H        0.925     0.035     2.511     2.478
    76   1 H        0.925     0.036     2.502     2.474
    77   1 H        0.925     0.035     2.515     2.480
    78   1 H        0.925     0.036     2.497     2.471
    79   1 H        0.925     0.034     2.537     2.491
    80   1 H        0.925     0.037     2.495     2.470
    81   1 H        0.926     0.038     2.480     2.463
    82   1 H        0.926     0.026     2.644     2.543
    83   1 H        0.926     0.050     2.314     2.379
    84   1 H        0.926     0.066     2.131     2.283
    85   1 H        0.926     0.066     2.132     2.283
    86   1 H        0.926     0.051     2.309     2.376
    87   1 H        0.926     0.027     2.627     2.535
    88   1 H        0.926     0.038     2.474     2.460
    89   1 H        0.925     0.033     2.542     2.493
    90   1 H        0.925     0.036     2.501     2.473
    91   1 H        0.925     0.037     2.494     2.470
    92   1 H        0.925     0.036     2.498     2.472
    93   1 H        0.925     0.037     2.496     2.471
    94   1 H        0.925     0.034     2.536     2.490
    95   1 H        0.925     0.036     2.503     2.474
    96   1 H        0.925     0.035     2.514     2.480
    97   1 H        0.925     0.036     2.508     2.476
    98   1 H        0.926     0.032     2.553     2.499
    99   1 H        0.926     0.038     2.469     2.457
   100   1 H        0.925     0.036     2.506     2.476
   101   1 H        0.925     0.036     2.510     2.477
   102   1 H        0.925     0.035     2.511     2.478
   103   1 H        0.925     0.034     2.535     2.490
   104   1 H        0.925     0.037     2.491     2.468
   105   1 H        0.925     0.036     2.497     2.471
   106   1 H        0.925     0.037     2.493     2.469
   107   1 H        0.925     0.033     2.541     2.493
   108   1 H        0.925     0.036     2.499     2.472
   109   1 H        0.926     0.032     2.553     2.499
   110   1 H        0.926     0.030     2.590     2.517
   111   1 H        0.926     0.049     2.327     2.385
   112   1 H        0.926     0.045     2.378     2.411
   113   1 H        0.926     0.049     2.336     2.390
   114   1 H        0.926     0.050     2.321     2.382

molecular dipole:
                 x           y           z       tot (Debye)
 q only:       -0.005      -1.215      -1.329
   full:        0.001      -1.186      -1.311       4.495

 projected vibrational frequencies (cm⁻¹)
eigval :       -0.00    -0.00     0.00     0.00     0.00     0.00
eigval :        1.23     3.97     5.05    19.59    20.01    26.29
eigval :       29.51    31.33    32.06    32.15    32.68    52.98
eigval :       54.95    66.05    72.94    73.66    76.70    91.03
eigval :       96.33    99.76   105.83   113.44   115.36   124.82
eigval :      134.95   158.57   159.00   165.05   174.91   179.45
eigval :      181.51   183.88   189.79   194.40   194.67   217.30
eigval :      217.46   219.47   220.86   223.59   234.00   239.52
eigval :      241.59   254.43   259.77   265.96   270.34   275.89
eigval :      282.30   301.65   303.42   312.48   318.59   319.43
eigval :      320.14   325.68   325.71   327.61   338.27   349.77
eigval :      351.60   356.90   357.09   357.48   363.03   368.32
eigval :      378.26   380.15   388.29   392.75   400.94   402.05
eigval :      411.95   412.13   440.93   441.75   443.79   444.06
eigval :      455.43   458.15   460.54   462.42   466.89   467.46
eigval :      489.95   491.14   508.51   510.44   519.64   520.04
eigval :      570.98   571.05   582.76   583.34   585.27   589.87
eigval :      602.42   602.55   626.44   627.18   640.62   640.64
eigval :      648.78   663.92   670.78   688.87   688.89   692.21
eigval :      707.68   708.09   717.54   718.12   722.92   729.21
eigval :      750.17   759.53   815.99   817.32   821.42   822.72
eigval :      827.97   832.32   833.07   833.29   863.48   868.14
eigval :      869.22   873.85   874.04   875.59   877.43   881.65
eigval :      882.48   906.57   908.27   913.10   914.85   920.93
eigval :      925.12   925.52   925.87   929.44   930.99   936.39
eigval :      938.97   942.83   950.78   960.19   960.20   960.52
eigval :      960.56   962.83   962.86   962.87   962.93   963.24
eigval :      963.27   963.31   963.32  1002.56  1017.78  1032.70
eigval :     1032.75  1035.73  1035.77  1035.86  1035.88  1035.97
eigval :     1036.01  1039.93  1040.03  1054.37  1116.17  1116.40
eigval :     1130.91  1131.01  1136.15  1136.63  1144.82  1145.00
eigval :     1178.45  1179.38  1180.25  1187.85  1204.90  1212.74
eigval :     1227.52  1227.90  1227.94  1228.35  1228.35  1229.30
eigval :     1231.00  1232.89  1233.24  1234.96  1235.32  1246.12
eigval :     1249.93  1252.86  1260.48  1262.47  1264.21  1264.74
eigval :     1285.64  1285.75  1300.43  1300.61  1306.70  1306.95
eigval :     1329.97  1330.72  1347.85  1348.02  1359.39  1359.93
eigval :     1374.35  1378.31  1401.36  1401.38  1404.83  1404.85
eigval :     1406.18  1406.20  1406.41  1406.43  1409.40  1409.50
eigval :     1417.97  1418.21  1429.71  1429.78  1429.83  1429.92
eigval :     1436.77  1438.75  1474.18  1474.24  1482.47  1482.61
eigval :     1487.52  1488.47  1492.23  1492.28  1492.29  1492.33
eigval :     1494.80  1494.83  1494.85  1494.86  1501.47  1501.53
eigval :     1502.42  1502.45  1505.57  1505.66  1505.92  1505.93
eigval :     1515.07  1515.22  1515.53  1515.57  1520.51  1520.55
eigval :     1520.59  1520.61  1549.75  1550.24  1572.52  1572.64
eigval :     1577.85  1580.90  1585.60  1585.67  1604.11  1604.20
eigval :     1617.05  1617.15  1691.57  1699.66  3021.61  3021.62
eigval :     3021.96  3022.13  3023.40  3023.47  3023.51  3023.83
eigval :     3026.97  3027.06  3027.18  3027.21  3030.32  3030.33
eigval :     3030.63  3030.75  3031.13  3031.20  3031.31  3031.42
eigval :     3035.62  3035.65  3035.92  3035.96  3038.13  3038.40
eigval :     3038.62  3038.65  3047.60  3047.76  3047.85  3047.90
eigval :     3051.34  3051.45  3051.51  3051.61  3083.70  3084.06
eigval :     3084.15  3084.68  3090.48  3090.71  3091.23  3091.51
eigval :     3091.54  3094.41  3096.47  3096.74  3100.50  3101.09
eigval :     3102.07  3105.17  3118.15  3118.27  3120.10  3120.60

   temp. (K)  partition function   enthalpy   heat capacity  entropy
                                   cal/mol     cal/K/mol   cal/K/mol   J/K/mol
 298.15  VIB  0.640E+28            33478.904    203.357    211.810
         ROT  0.284E+09              888.752      2.981     41.659
         INT  0.182E+37            34367.657    206.338    253.469
         TR   0.205E+29             1481.254      4.968     45.762
         TOT                       35848.9105   211.3061   299.2316  1251.9849

       T/K    H(0)-H(T)+PV         H(T)/Eh          T*S/Eh         G(T)/Eh
   ------------------------------------------------------------------------
    298.15    0.571289E-01    0.100013E+01    0.142175E+00    0.857958E+00
   ------------------------------------------------------------------------

         :::::::::::::::::::::::::::::::::::::::::::::::::::::
         ::                  THERMODYNAMIC                  ::
         :::::::::::::::::::::::::::::::::::::::::::::::::::::
         :: total free energy        -157.425064311103 Eh   ::
         ::.................................................::
         :: total energy             -158.283021867243 Eh   ::
         :: zero point energy           0.943003254422 Eh   ::
         :: G(RRHO) w/o ZPVE           -0.085045698282 Eh   ::
         :: G(RRHO) contrib.            0.857957556140 Eh   ::
         :::::::::::::::::::::::::::::::::::::::::::::::::::::

           -------------------------------------------------
          | TOTAL ENERGY             -158.283021867243 Eh   |
          | TOTAL ENTHALPY           -157.282889737530 Eh   |
          | TOTAL FREE ENERGY        -157.425064311103 Eh   |
          | GRADIENT NORM               0.000052940332 Eh/α |
          | HOMO-LUMO GAP               1.696029243611 eV   |
           -------------------------------------------------

 * finished run on 2025/09/12 at 10:20:21.718
