   * xtb version 6.7.1 (edcfbbe) compiled by 'albert@albert-system' on 2024-07-22

   ID    Z sym.   atoms
    1    6 C      1-20, 22-26, 28, 30-33, 35-58
    2    7 N      21, 34
    3    8 O      27, 29
    4    1 H      59-114

          program call               : xtb data2507/gas/DC-TC/DC-TC_gas_S0_finalOpt.xtbopt.xyz --gfn 2 --spinpol --tblite --uhf 2 --ohess vtight --parallel 40 --molden --ceasefiles --namespace data2507/gas/DC-TC/DC-TC_gas_T1_preOpt
 * total energy  :  -158.2198913 Eh     change        0.1956590E-07 Eh
 * total energy  :  -158.2243675 Eh     change       -0.4476205E-02 Eh
 * total energy  :  -158.2263956 Eh     change       -0.2028124E-02 Eh
 * total energy  :  -158.2271492 Eh     change       -0.7536216E-03 Eh
 * total energy  :  -158.2282896 Eh     change       -0.1140333E-02 Eh
 * total energy  :  -158.2289160 Eh     change       -0.6264316E-03 Eh
 * total energy  :  -158.2295917 Eh     change       -0.6757100E-03 Eh
 * total energy  :  -158.2300348 Eh     change       -0.4431146E-03 Eh
 * total energy  :  -158.2303317 Eh     change       -0.2968789E-03 Eh
 * total energy  :  -158.2303242 Eh     change        0.7484941E-05 Eh
 * total energy  :  -158.2318683 Eh     change       -0.1626546E-05 Eh
 * total energy  :  -158.2318700 Eh     change       -0.1701437E-05 Eh
 * total energy  :  -158.2318714 Eh     change       -0.1475894E-05 Eh
 * total energy  :  -158.2318726 Eh     change       -0.1133415E-05 Eh
 * total energy  :  -158.2318735 Eh     change       -0.9310138E-06 Eh
 * total energy  :  -158.2318743 Eh     change       -0.7387445E-06 Eh
 * total energy  :  -158.2318747 Eh     change       -0.4524545E-06 Eh
 * total energy  :  -158.2318749 Eh     change       -0.1751724E-06 Eh
 * total energy  :  -158.2318750 Eh     change       -0.9410823E-07 Eh
   *** GEOMETRY OPTIMIZATION CONVERGED AFTER 87 ITERATIONS ***

 final structure:
================
114
 xtb: 6.7.1 (edcfbbe)
C           -2.25403296693880       -3.53184195707181        1.74802047892625
C           -1.06814053960612       -3.29268450841676        2.69073128280430
C           -1.58167552500730       -2.97224204340600        4.10188865465099
C           -0.25254172948919       -4.58672846605001        2.76479369833876
C           -0.25055032295501       -2.11524728743298        2.18251623754093
C           -0.85690234671962       -0.85656662073970        2.08228248098054
C           -0.17255755411355        0.27535595008221        1.68952849644336
C            1.17140519668261        0.15103990536366        1.36940295343028
C            1.78420771936038       -1.11762638486745        1.39285805916532
C            1.08083198483073       -2.23533661665993        1.81760051543799
C            3.12846471194288       -0.92976697178219        0.91947641606999
C            4.18394465469113       -1.80577491529201        0.70969305761382
C            5.39312283170958       -1.32537656785178        0.22981483457205
C            6.57852351977816       -2.23331950736770       -0.05879552973226
C            7.74860224564787       -1.83740150902193        0.85247509910546
C            6.98739400087024       -2.07432339365332       -1.53041529750979
C            6.25901765216431       -3.71079217145706        0.18539298308831
C            5.52321337025961        0.05232065180289        0.01240873928344
C            4.49136804530954        0.94615287518036        0.21829135522406
C            3.26986330938704        0.44698044676790        0.64485806596910
N            2.08329280645403        1.09676343172795        0.93080460395017
C            1.80571145345174        2.45617725951391        0.78745215034410
C            1.06894517218774        3.11235733040183        1.77413323109190
C            0.64179765390480        4.40639836034990        1.57670417960223
C            0.97601987032641        5.08860877436003        0.40843631325477
C            0.35882468770683        6.42233645644704        0.16290248649087
O            0.97353923399450        7.48928022866455        0.08768796878435
C           -1.11972124785770        6.33908459138333        0.08442255950703
O           -1.85259118915509        7.32323189575712        0.21526756067342
C           -1.58043022549163        4.95784019084187       -0.22773909030010
C           -1.15835515427029        4.36954334967616       -1.41882424284856
C           -1.42764890419007        3.04375290244769       -1.67404935979222
C           -2.09514659525661        2.26766728370987       -0.72623299066923
N           -2.20418727364152        0.89057047260736       -0.92259516713581
C           -3.31481024899145        0.09671833960262       -0.70944219376891
C           -4.60768669389632        0.44173094380317       -0.34553628611992
C           -5.54063433059225       -0.56902042643798       -0.22859034409265
C           -5.24125275897988       -1.91404040860561       -0.48119209315669
C           -6.33261580021989       -2.95804102279938       -0.30251777456578
C           -7.50650767221465       -2.63217030824413       -1.23629340090637
C           -6.80582856458478       -2.93616141099922        1.15816299174367
C           -5.84851260383529       -4.37491859621969       -0.62252513243646
C           -3.95561132124447       -2.24051415235388       -0.88537201225299
C           -2.99352434519458       -1.24729240449551       -0.99388622933762
C           -1.60688633729504       -1.26495160368866       -1.37741875674432
C           -0.73243403427184       -2.27751995609547       -1.73348983250619
C            0.59369469890516       -1.98344622500552       -2.02999888036869
C            1.52837671283773       -3.10894690456169       -2.44765116825898
C            0.99008960066288       -3.74392317224675       -3.73847876537458
C            2.95831824794341       -2.62893337153778       -2.71109329379036
C            1.58305230443985       -4.16230248452559       -1.33348917009910
C            1.01510763847967       -0.65477922888857       -1.94397681651814
C            0.16149607070501        0.37585469468611       -1.59677708948605
C           -1.16209293508198        0.07287857982158       -1.32507386929331
C           -2.59590722170382        2.87999480289710        0.42225001161391
C           -2.35289768214534        4.21981921757183        0.66067466769866
C            1.81196794824171        4.48021079623566       -0.51965813990554
C            2.20954175587013        3.16824931078859       -0.34202024896861
H           -2.83753893435910       -4.38466672707783        2.08989765761321
H           -2.90884067555342       -2.66637911821177        1.69988311758758
H           -1.89162863503470       -3.73623650879170        0.74373525977241
H           -2.14760689471335       -3.81436131230558        4.49476819289403
H           -0.74634100343090       -2.77594757111817        4.77088589304825
H           -2.22895036507186       -2.09978258031371        4.09961075596906
H           -0.88203370737096       -5.39018774519269        3.14211283647982
H            0.59289529469903       -4.47897930057973        3.44030871390246
H            0.10967756342478       -4.87820485069527        1.78166425292299
H           -1.90411695592619       -0.75344688042822        2.32309624685446
H           -0.68122314714888        1.22501375474681        1.62153851928351
H            1.59122202879415       -3.18269512603838        1.86251713481695
H            4.04085109395547       -2.85079487199560        0.92849776823065
H            8.06123703190296       -0.81239450509618        0.67372102884925
H            8.60059397614423       -2.48958393405985        0.67280424012418
H            7.45859693286089       -1.92759606902325        1.89730980592491
H            6.15393804145178       -2.32823800975034       -2.18208768738021
H            7.81971988104121       -2.73605807057429       -1.76018281672182
H            7.29442493304014       -1.05601451371534       -1.75107599027211
H            5.43513741810742       -4.04111970238315       -0.44314028390907
H            7.13098411990357       -4.31440242406751       -0.05790123849637
H            6.00880033122671       -3.89130759843810        1.22823650539716
H            6.46812638861243        0.44667298609845       -0.32808464712768
H            4.64772356510893        2.00227353686411        0.06142522528165
H            0.83258177064377        2.59664881428554        2.69197295791869
H            0.04719065319260        4.89893288262665        2.33112682857131
H           -0.61877159856462        4.95974376852833       -2.14386838266714
H           -1.12030012935242        2.59563819597640       -2.60632450530290
H           -4.88997343886619        1.46867202495321       -0.17059024618429
H           -6.54261414791032       -0.29592645922153        0.06456377667232
H           -7.94262391852145       -1.66436092640256       -1.00572660385773
H           -8.28380798206664       -3.38685503744719       -1.13730435593263
H           -7.17002840402511       -2.61651880315896       -2.27087611435915
H           -7.21613274380573       -1.96725390916265        1.42859471705209
H           -7.57731332100485       -3.68726360186881        1.31328571701836
H           -5.97379680147567       -3.15315239662340        1.82510125159782
H           -6.66391376012240       -5.07889002872526       -0.46935367420046
H           -5.52802731897023       -4.45429579031475       -1.65872186993574
H           -5.02764687843900       -4.66406674417758        0.02962837415816
H           -3.68147569343208       -3.25448069923216       -1.12161826482648
H           -1.09787180329339       -3.29197902986370       -1.77853335748547
H            1.64963741425668       -4.54473754116622       -4.06632542277171
H            0.93323932169610       -2.99839080140485       -4.52887146230156
H           -0.00306775287579       -4.15924693366922       -3.59136881508997
H            2.98764788485313       -1.90979128261097       -3.52649169194772
H            3.57613581138884       -3.47927532682681       -2.99499386800832
H            3.39013021292916       -2.17842309599640       -1.81989935669842
H            1.94476169505323       -3.70526721974051       -0.41655498268780
H            2.25667349004822       -4.97004046247594       -1.61313170868384
H            0.60307112108742       -4.59003754499053       -1.14076631158339
H            2.04270660290099       -0.40305008647380       -2.14755856471367
H            0.53065360514309        1.38754395760200       -1.52724183902695
H           -3.13692953671930        2.29457245799273        1.15032185179490
H           -2.72162845879302        4.68335797708306        1.56309311419681
H            2.11127480991926        5.01906880800996       -1.40582211170964
H            2.79819925353930        2.68010257787190       -1.10373987532665

 projected vibrational frequencies (cm⁻¹)
eigval :       -0.00    -0.00    -0.00     0.00     0.00     0.00
eigval :       15.70    18.93    22.18    28.75    31.39    34.36
eigval :       35.29    40.86    43.38    48.18    50.65    58.04
eigval :       65.77    68.74    70.15    76.38    87.51    94.73
eigval :       96.38   105.49   113.83   125.09   132.92   144.65
eigval :      160.50   161.29   166.36   171.28   177.70   178.75
eigval :      184.92   187.24   191.91   197.62   203.91   208.34
eigval :      217.50   219.77   223.68   224.74   231.09   234.20
eigval :      244.36   252.50   261.92   263.40   273.77   280.19
eigval :      283.04   295.63   304.31   317.31   320.23   321.72
eigval :      325.02   326.61   331.50   332.78   339.00   349.72
eigval :      354.25   354.80   358.58   360.38   381.79   383.99
eigval :      386.24   390.23   391.67   399.47   406.72   409.21
eigval :      412.60   413.90   419.12   443.50   444.86   445.48
eigval :      446.55   458.61   463.61   466.87   468.39   471.28
eigval :      476.88   492.57   505.90   517.13   518.05   528.27
eigval :      548.66   573.59   578.80   579.37   583.37   585.59
eigval :      588.33   592.89   606.43   618.27   630.58   636.49
eigval :      640.94   641.11   652.31   680.21   688.53   689.69
eigval :      691.28   697.65   707.16   708.64   721.01   721.83
eigval :      731.01   754.71   813.95   815.60   824.20   824.74
eigval :      827.47   830.78   832.82   833.31   850.44   863.65
eigval :      868.57   873.33   874.25   875.71   877.34   879.10
eigval :      882.06   908.98   911.92   912.96   915.23   917.15
eigval :      923.84   924.63   925.70   926.74   927.15   934.26
eigval :      939.15   941.31   946.87   960.03   960.35   960.50
eigval :      960.95   962.48   962.77   962.96   963.03   963.27
eigval :      963.50   964.04   965.19   966.08  1015.61  1019.65
eigval :     1031.74  1032.68  1034.79  1034.90  1035.42  1035.95
eigval :     1036.98  1038.80  1040.80  1042.66  1114.66  1116.43
eigval :     1127.68  1129.75  1134.08  1135.10  1144.89  1145.79
eigval :     1164.35  1174.43  1175.11  1176.32  1186.85  1190.11
eigval :     1217.12  1218.98  1227.16  1227.47  1228.27  1228.77
eigval :     1229.47  1231.34  1232.04  1232.32  1234.94  1235.59
eigval :     1244.35  1248.01  1258.90  1259.25  1260.14  1260.54
eigval :     1284.74  1286.05  1299.60  1301.16  1302.71  1304.73
eigval :     1311.70  1315.14  1345.60  1348.30  1351.69  1353.88
eigval :     1369.13  1370.15  1396.48  1398.00  1401.87  1402.91
eigval :     1403.78  1403.82  1403.95  1404.19  1406.36  1406.59
eigval :     1414.07  1414.86  1426.40  1426.47  1427.94  1428.37
eigval :     1437.38  1438.80  1469.01  1472.20  1474.71  1476.34
eigval :     1479.46  1483.15  1487.41  1489.31  1489.97  1490.94
eigval :     1491.13  1492.30  1492.73  1492.78  1494.78  1499.40
eigval :     1499.64  1500.86  1501.12  1503.38  1503.90  1504.36
eigval :     1504.97  1512.54  1513.24  1514.16  1516.24  1519.40
eigval :     1519.70  1520.54  1521.55  1547.34  1548.80  1567.78
eigval :     1568.59  1575.05  1576.13  1579.57  1582.18  1593.70
eigval :     1594.38  1604.20  1609.68  1633.96  3016.14  3018.27
eigval :     3021.44  3022.36  3023.27  3023.45  3024.81  3025.28
eigval :     3027.36  3027.66  3027.91  3028.15  3028.46  3029.06
eigval :     3030.79  3031.46  3031.94  3032.10  3033.54  3034.17
eigval :     3035.51  3036.25  3036.54  3038.07  3039.07  3039.23
eigval :     3042.22  3043.40  3047.37  3047.68  3048.37  3048.74
eigval :     3051.02  3051.49  3051.73  3055.39  3081.36  3084.86
eigval :     3086.26  3087.26  3087.34  3088.32  3089.14  3090.26
eigval :     3090.47  3092.94  3097.27  3098.38  3098.93  3100.04
eigval :     3101.18  3101.76  3115.63  3119.20  3119.38  3123.62

   temp. (K)  partition function   enthalpy   heat capacity  entropy
                                   cal/mol     cal/K/mol   cal/K/mol   J/K/mol
 298.15  VIB  0.781E+24            33149.985    205.752    203.501
         ROT  0.106E+09              888.752      2.981     39.710
         INT  0.831E+32            34038.738    208.733    243.210
         TR   0.205E+29             1481.254      4.968     45.762
         TOT                       35519.9915   213.7015   288.9727  1209.0618

       T/K    H(0)-H(T)+PV         H(T)/Eh          T*S/Eh         G(T)/Eh
   ------------------------------------------------------------------------
    298.15    0.566047E-01    0.998180E+00    0.137300E+00    0.860880E+00
   ------------------------------------------------------------------------

         :::::::::::::::::::::::::::::::::::::::::::::::::::::
         ::                  THERMODYNAMIC                  ::
         :::::::::::::::::::::::::::::::::::::::::::::::::::::
         :: total free energy        -157.370995081768 Eh   ::
         ::.................................................::
         :: total energy             -158.231874967014 Eh   ::
         :: zero point energy           0.941575432015 Eh   ::
         :: G(RRHO) w/o ZPVE           -0.080695546769 Eh   ::
         :: G(RRHO) contrib.            0.860879885246 Eh   ::
         :::::::::::::::::::::::::::::::::::::::::::::::::::::

           -------------------------------------------------
          | TOTAL ENERGY             -158.231874967014 Eh   |
          | TOTAL ENTHALPY           -157.233694825423 Eh   |
          | TOTAL FREE ENERGY        -157.370995081768 Eh   |
          | GRADIENT NORM               0.000097533525 Eh/α |
           -------------------------------------------------

 * finished run on 2025/09/12 at 10:32:53.614
