   * xtb version 6.7.1 (edcfbbe) compiled by 'albert@albert-system' on 2024-07-22

   ID    Z sym.   atoms
    1    6 C      1-20, 22-26, 28, 30-33, 35-58
    2    7 N      21, 34
    3    8 O      27, 29
    4    1 H      59-114

          program call               : xtb data2507/gas/DC-TC/DC-TC_gas_T1_crest.xyz --gfn 2 --spinpol --tblite --uhf 2 --ohess vtight --parallel 40 --molden --ceasefiles --namespace data2507/gas/DC-TC/DC-TC_gas_T1_finalOpt
 * total energy  :  -158.2337379 Eh     change       -0.2639030E-07 Eh
 * total energy  :  -158.2337558 Eh     change       -0.1789851E-04 Eh
 * total energy  :  -158.2337629 Eh     change       -0.7025205E-05 Eh
 * total energy  :  -158.2337655 Eh     change       -0.2612914E-05 Eh
 * total energy  :  -158.2337691 Eh     change       -0.3656608E-05 Eh
 * total energy  :  -158.2337736 Eh     change       -0.4490118E-05 Eh
 * total energy  :  -158.2337776 Eh     change       -0.4029568E-05 Eh
 * total energy  :  -158.2337809 Eh     change       -0.3250271E-05 Eh
 * total energy  :  -158.2337842 Eh     change       -0.3293511E-05 Eh
 * total energy  :  -158.2337881 Eh     change       -0.3881049E-05 Eh
 * total energy  :  -158.2343819 Eh     change       -0.1608055E-05 Eh
 * total energy  :  -158.2343829 Eh     change       -0.1053575E-05 Eh
 * total energy  :  -158.2343841 Eh     change       -0.1199616E-05 Eh
 * total energy  :  -158.2343856 Eh     change       -0.1488794E-05 Eh
 * total energy  :  -158.2343870 Eh     change       -0.1425657E-05 Eh
 * total energy  :  -158.2343882 Eh     change       -0.1154086E-05 Eh
 * total energy  :  -158.2343891 Eh     change       -0.9460035E-06 Eh
 * total energy  :  -158.2343899 Eh     change       -0.7836433E-06 Eh
 * total energy  :  -158.2343899 Eh     change       -0.1236631E-07 Eh
   *** GEOMETRY OPTIMIZATION CONVERGED AFTER 185 ITERATIONS ***

 final structure:
================
114
 xtb: 6.7.1 (edcfbbe)
C           10.15566594090246        4.65822963046233        1.64894373202405
C           10.26030667809525        3.89287114809841        0.32196988310815
C           10.13597576587000        4.87132242575849       -0.85454404149554
C           11.64586355348455        3.24446689497844        0.25626160948929
C            9.13345891341391        2.87364334229966        0.24741048808224
C            7.80813941845473        3.32573872083164        0.29940499996844
C            6.72252685966088        2.47495287021565        0.25298021250709
C            6.96692029122600        1.11283005183084        0.16216486545799
C            8.29117094284497        0.63379991433559        0.07397601738959
C            9.36414745699880        1.51196955211346        0.12196753635066
C            8.19888123447811       -0.79488845266946       -0.06556063812995
C            9.15188054610551       -1.79684357869174       -0.18002778862693
C            8.74983133273671       -3.12019748107674       -0.27854862646218
C            9.73716945316616       -4.26909000185936       -0.41829145138935
C           11.19203881474656       -3.79338152812388       -0.45896075726973
C            9.44737301540514       -5.02424611588678       -1.72335139855132
C            9.57922851265402       -5.21798425621533        0.77826394327902
C            7.37896751010371       -3.40763990716881       -0.23706131205809
C            6.41017740951424       -2.43134948953632       -0.12357225842671
C            6.82361771747478       -1.10935805415725       -0.05770994898540
N            6.08640419748826        0.05125894028591        0.08326809307776
C            4.69432965619300        0.13846790061632        0.13481944679590
C            3.91247394826155       -0.53395175114879       -0.80439538648402
C            2.53757854535814       -0.45873275209003       -0.74910385355075
C            1.90195476421589        0.29170125172017        0.23697442464102
C            0.44632786801955        0.45331385271717        0.38142409128404
O            0.00313085266486        1.29677701962079        1.18216535004661
C           -0.43423426319646       -0.40318028274585       -0.43150251399052
O            0.01781474195307       -1.25246336544506       -1.22168601179148
C           -1.88930901915883       -0.26770729328784       -0.26744513755954
C           -2.67881764832711       -1.16832540976365       -1.00102029782098
C           -4.05003444174488       -1.11833645941038       -0.93746436863982
C           -4.68241013648766       -0.17400550973366       -0.12699951351830
N           -6.07556579699214       -0.11680010898670       -0.05596414088669
C           -6.91904696020658       -1.18813477064692        0.16396392176707
C           -6.62830810744677       -2.52061880148328        0.40456010355929
C           -7.68134259446836       -3.39093528999499        0.62208287115226
C           -9.01556533336221       -2.97564711373399        0.61771232722302
C          -10.17137716034981       -3.93653571509345        0.85546264373140
C          -11.09886513096338       -3.91509816250456       -0.36809275265304
C          -10.94624136788237       -3.48767449500317        2.10282918164266
C           -9.71161888962135       -5.38005974024803        1.07646290512726
C           -9.29189898207583       -1.63020208204638        0.39942833086342
C           -8.25765526961248       -0.73737851489369        0.17828696027101
C           -8.21153911288470        0.68243326353775       -0.05154463281275
C           -9.19438410449848        1.65462268164722       -0.16694838330324
C           -8.83461671092722        2.96950155525313       -0.42200714897817
C           -9.85696234859695        4.08793146427545       -0.55685509938189
C           -9.74690756230136        4.70452272098146       -1.95866385044640
C          -11.29483835150408        3.59761186285611       -0.36539410316201
C           -9.57367920166820        5.15850474504025        0.50655796937702
C           -7.47519593858323        3.27447078742767       -0.57185034837098
C           -6.47711273452562        2.32764842423099       -0.46252534615652
C           -6.84850572864700        1.02123480657236       -0.18348193066369
C           -3.90542291669328        0.71119760552258        0.62013680358631
C           -2.53035424354807        0.66018903979906        0.54969997350113
C            2.69599824720551        0.99078680278117        1.15968184928316
C            4.06649383503330        0.90357337425933        1.11938405109830
H           10.96696321194330        5.37850227597274        1.73107255226446
H            9.21498670197486        5.19631929209337        1.72440423205265
H           10.22112407089163        3.96725350644378        2.48694199798706
H           10.94931834218854        5.59351722641121       -0.82828756192181
H           10.18320903824206        4.33179267566922       -1.79823259864704
H            9.19694093222962        5.41644978720025       -0.82114080682020
H           11.78567897547389        2.71357946911381       -0.68254819779782
H           11.79455291195648        2.55431106523092        1.08353981009890
H           12.41022363351167        4.01624465380256        0.32174831671892
H            7.61310805400457        4.38442995332763        0.37508713808574
H            5.71695946539988        2.86668228069447        0.27377770878690
H           10.36208494498034        1.11187582965279        0.05693619935841
H           10.19304423296597       -1.52087420858124       -0.18523986602509
H           11.36293926696758       -3.12907385795834       -1.30295478195644
H           11.85085021143479       -4.65243728358315       -0.56926639909368
H           11.46236945065534       -3.28029018688627        0.46105386103485
H            9.53689334558332       -4.35171244919974       -2.57401560715836
H            8.44564053360697       -5.44442618547569       -1.72580486504390
H           10.15776331274594       -5.83845638026287       -1.85060542033186
H            9.76190280271243       -4.68333368868352        1.70815847124897
H            8.57983578633681       -5.64168706978508        0.82042334492102
H           10.29269141996878       -6.03607280963649        0.70412453505352
H            7.05205986091433       -4.43461337668237       -0.29196587714195
H            5.36535039792760       -2.69788841187037       -0.07613260403118
H            4.39279328082022       -1.09754971209242       -1.58997068318897
H            1.94457588833113       -0.98585675871096       -1.48198697279171
H           -2.17725923436108       -1.88712128165962       -1.63182392227059
H           -4.64763898521958       -1.79171511556204       -1.53373934815591
H           -5.60965386379265       -2.87639957008841        0.43701503937064
H           -7.44076013680929       -4.42477012774440        0.80552762656897
H          -11.50840165438807       -2.92351550461397       -0.53893898378039
H          -11.92742597338486       -4.60504293516784       -0.22244392861159
H          -10.55179050695590       -4.21572240039531       -1.25927650548625
H          -11.36085854140222       -2.49160968355356        1.97585668688561
H          -11.76605463224873       -4.17463106548250        2.30219327212254
H          -10.28804692790947       -3.47462931627846        2.96913515486379
H          -10.58087118613091       -6.01587541736400        1.23274768502148
H           -9.17250853367689       -5.75702686742271        0.21044094766223
H           -9.07685625699285       -5.45950901239804        1.95593055871483
H          -10.30665611021063       -1.26348324217969        0.40419869101629
H          -10.22551952896760        1.36192651862627       -0.06062354261467
H          -10.48849270640427        5.49120401406453       -2.08086145210705
H           -9.92087016222426        3.94471951527610       -2.71785149535610
H           -8.76410323408437        5.13529749543086       -2.12775091009120
H          -11.55976225830047        2.85803833346099       -1.11750811801255
H          -11.97991712858481        4.43714409044444       -0.46539813612586
H          -11.43337029320776        3.16791712873879        0.62405685351377
H           -9.63030561522549        4.72302005217565        1.50208392390106
H          -10.30769860116930        5.95860729210969        0.43731192653247
H           -8.58576152016842        5.59235841878933        0.38068933278002
H           -7.18174197193663        4.29043063962950       -0.78686213522339
H           -5.44223474624355        2.60041226005794       -0.60310891552253
H           -4.38972795484898        1.42423473938541        1.27033892948695
H           -1.93849508450179        1.34472859395043        1.14019154338391
H            2.19970381201946        1.57883745042979        1.91722585702289
H            4.66496195782117        1.40632615592738        1.86434703721772

 projected vibrational frequencies (cm⁻¹)
eigval :       -0.00    -0.00    -0.00    -0.00     0.00     0.00
eigval :        3.40     4.91    12.05    17.30    22.85    30.54
eigval :       30.68    31.72    32.66    34.09    34.71    51.91
eigval :       54.49    57.07    61.85    73.22    78.98    85.84
eigval :       88.90    91.98   106.16   112.97   120.70   122.58
eigval :      135.65   157.49   159.87   170.34   176.30   181.71
eigval :      186.12   192.83   195.68   199.66   202.30   217.14
eigval :      218.74   221.52   222.71   230.29   238.09   246.78
eigval :      258.01   260.90   265.41   269.43   270.26   283.73
eigval :      295.39   306.85   313.57   318.05   319.22   322.38
eigval :      325.85   326.17   332.67   338.54   340.55   352.00
eigval :      356.01   359.12   360.34   364.61   377.41   379.66
eigval :      383.02   389.71   393.44   398.61   402.69   409.24
eigval :      409.35   425.77   432.17   439.58   442.56   443.26
eigval :      445.24   453.11   459.81   465.12   465.95   470.28
eigval :      479.26   487.45   515.76   518.10   523.29   536.20
eigval :      567.77   574.02   577.50   582.50   584.03   585.56
eigval :      603.81   607.60   617.08   625.33   628.41   636.81
eigval :      640.65   640.94   646.61   675.94   686.25   689.49
eigval :      689.61   704.44   707.69   709.22   719.93   720.60
eigval :      726.69   760.52   814.39   815.05   821.45   823.71
eigval :      826.17   826.52   829.78   832.61   841.32   857.82
eigval :      858.51   871.75   871.89   872.87   873.64   873.70
eigval :      879.82   906.38   909.03   911.01   912.95   920.10
eigval :      920.16   921.95   924.32   926.40   926.71   927.93
eigval :      930.18   940.05   947.43   960.04   960.32   960.39
eigval :      960.41   962.73   962.80   962.85   963.07   963.13
eigval :      963.18   963.25   963.26   997.87  1009.70  1030.98
eigval :     1032.35  1035.34  1035.36  1035.42  1035.44  1035.65
eigval :     1035.74  1039.89  1041.47  1059.23  1114.50  1115.28
eigval :     1128.43  1129.38  1130.72  1133.17  1140.76  1141.95
eigval :     1147.44  1154.35  1172.74  1173.81  1191.86  1194.96
eigval :     1214.85  1218.97  1227.01  1227.50  1227.58  1227.59
eigval :     1228.81  1231.01  1231.52  1232.07  1234.28  1235.51
eigval :     1243.50  1247.46  1253.93  1255.28  1258.49  1259.08
eigval :     1283.72  1284.10  1298.04  1302.54  1302.85  1303.33
eigval :     1322.27  1323.95  1346.72  1348.01  1350.77  1352.27
eigval :     1366.11  1369.22  1399.93  1400.03  1404.45  1404.58
eigval :     1405.07  1405.48  1405.61  1405.81  1405.89  1405.93
eigval :     1413.84  1413.99  1428.36  1428.54  1428.63  1428.65
eigval :     1434.82  1436.08  1457.17  1466.96  1468.74  1474.03
eigval :     1479.05  1479.99  1482.46  1491.68  1491.73  1491.74
eigval :     1491.83  1494.29  1494.37  1494.42  1494.46  1500.85
eigval :     1500.87  1500.92  1501.64  1505.01  1505.06  1505.17
eigval :     1505.19  1514.76  1514.93  1514.98  1515.11  1519.68
eigval :     1519.96  1520.10  1520.52  1536.48  1537.54  1544.73
eigval :     1566.46  1567.60  1571.15  1574.60  1579.61  1581.76
eigval :     1592.85  1593.19  1607.56  1610.48  3021.87  3021.94
eigval :     3022.09  3022.10  3023.50  3023.71  3023.72  3023.77
eigval :     3027.12  3027.17  3027.21  3027.52  3030.19  3030.31
eigval :     3030.33  3030.69  3031.07  3031.20  3031.27  3031.43
eigval :     3035.65  3035.71  3035.91  3036.23  3038.27  3038.30
eigval :     3038.48  3038.72  3047.67  3048.02  3048.28  3048.30
eigval :     3051.00  3051.34  3051.61  3051.62  3066.87  3074.12
eigval :     3083.45  3083.56  3084.31  3084.86  3085.85  3086.98
eigval :     3090.81  3092.41  3093.82  3094.79  3095.65  3096.48
eigval :     3096.72  3097.05  3116.28  3117.95  3119.73  3121.60

   temp. (K)  partition function   enthalpy   heat capacity  entropy
                                   cal/mol     cal/K/mol   cal/K/mol   J/K/mol
 298.15  VIB  0.612E+27            33381.736    203.593    209.060
         ROT  0.310E+09              888.752      2.981     41.836
         INT  0.190E+36            34270.488    206.574    250.896
         TR   0.205E+29             1481.254      4.968     45.762
         TOT                       35751.7423   211.5421   296.6579  1241.2168

       T/K    H(0)-H(T)+PV         H(T)/Eh          T*S/Eh         G(T)/Eh
   ------------------------------------------------------------------------
    298.15    0.569740E-01    0.997689E+00    0.140952E+00    0.856737E+00
   ------------------------------------------------------------------------

         :::::::::::::::::::::::::::::::::::::::::::::::::::::
         ::                  THERMODYNAMIC                  ::
         :::::::::::::::::::::::::::::::::::::::::::::::::::::
         :: total free energy        -157.377653148093 Eh   ::
         ::.................................................::
         :: total energy             -158.234389959500 Eh   ::
         :: zero point energy           0.940714542082 Eh   ::
         :: G(RRHO) w/o ZPVE           -0.083977730675 Eh   ::
         :: G(RRHO) contrib.            0.856736811407 Eh   ::
         :::::::::::::::::::::::::::::::::::::::::::::::::::::

           -------------------------------------------------
          | TOTAL ENERGY             -158.234389959500 Eh   |
          | TOTAL ENTHALPY           -157.236701389507 Eh   |
          | TOTAL FREE ENERGY        -157.377653148093 Eh   |
          | GRADIENT NORM               0.000091729962 Eh/α |
           -------------------------------------------------

 * finished run on 2025/09/12 at 10:51:54.582
