   * xtb version 6.7.1 (edcfbbe) compiled by 'albert@albert-system' on 2024-07-22

   ID    Z sym.   atoms
    1    6 C      1-4, 6-24, 26-35, 37-40, 42-47, 49-62
    2    7 N      5, 25, 41
    3    8 O      36, 48
    4    1 H      63-101

          program call               : xtb data2507/toluene/CDBP-BP-PXZ/CDBP-BP-PXZ_toluene_T1_crest.xyz --gfn 2 --uhf 2 --gbsa toluene --ohess vtight --parallel 40 --molden --ceasefiles --namespace data2507/toluene/CDBP-BP-PXZ/CDBP-BP-PXZ_toluene_T1_finalOpt
      * Solvation model:               GBSA
        Solvent                        toluene
        Solvent mass                       9.2140E+01 g/mol
          :  Hamiltonian                  GFN2-xTB          :
 * total energy  :  -158.9421463 Eh     change       -0.9411553E-07 Eh
 * total energy  :  -158.9422809 Eh     change       -0.1346292E-03 Eh
 * total energy  :  -158.9423217 Eh     change       -0.4076933E-04 Eh
 * total energy  :  -158.9423319 Eh     change       -0.1026144E-04 Eh
 * total energy  :  -158.9423390 Eh     change       -0.7057309E-05 Eh
 * total energy  :  -158.9423439 Eh     change       -0.4885509E-05 Eh
 * total energy  :  -158.9423468 Eh     change       -0.2883534E-05 Eh
 * total energy  :  -158.9423495 Eh     change       -0.2779223E-05 Eh
 * total energy  :  -158.9423525 Eh     change       -0.2923931E-05 Eh
 * total energy  :  -158.9423549 Eh     change       -0.2472270E-05 Eh
 * total energy  :  -158.9423750 Eh     change       -0.2558738E-06 Eh
 * total energy  :  -158.9423753 Eh     change       -0.2540875E-06 Eh
 * total energy  :  -158.9423756 Eh     change       -0.2800636E-06 Eh
 * total energy  :  -158.9423759 Eh     change       -0.3256777E-06 Eh
 * total energy  :  -158.9423763 Eh     change       -0.3866007E-06 Eh
 * total energy  :  -158.9423767 Eh     change       -0.4602861E-06 Eh
 * total energy  :  -158.9423772 Eh     change       -0.4430788E-06 Eh
 * total energy  :  -158.9423775 Eh     change       -0.3229122E-06 Eh
 * total energy  :  -158.9423775 Eh     change       -0.6172172E-08 Eh
   *** GEOMETRY OPTIMIZATION CONVERGED AFTER 44 ITERATIONS ***

 final structure:
================
101
 xtb: 6.7.1 (edcfbbe)
C            5.49912042546125       -1.50911680981425       -1.73802808603868
C            6.34197649484748       -0.73801579148432       -0.76766726647475
C            7.69517557319165       -1.01486309464227       -0.64626913392834
C            8.49634579557372       -0.31156917659889        0.24696027372904
N            9.86207379751233       -0.61815633419524        0.35888686238925
C           10.90142062920689        0.28575181970833        0.28111233969976
C           10.86857602083815        1.65058171834262        0.02839256019095
C           12.07285444191618        2.32671671741642       -0.02190464709612
C           13.28594080484872        1.66679211866460        0.16494615692553
C           13.32648300537006        0.30481997376656        0.39407247147127
C           12.12938470354390       -0.39653188597956        0.44966484400528
C           11.80145530539915       -1.78193164556123        0.64618521438274
C           12.56042545249595       -2.92062333063103        0.88151518859061
C           11.90884767111438       -4.12685397921495        1.05333683190702
C           10.51829800642715       -4.20386921232217        1.00530923202581
C            9.74137339732352       -3.08479522189342        0.77295297642797
C           10.39118032117863       -1.87337132175174        0.57842198132592
C            7.93689024946663        0.69530298695063        1.02674840629587
C            6.59257178708819        0.98483906072053        0.90038463248444
C            5.78553452879661        0.27764528282780        0.01628981074589
C            4.34382258172463        0.60207799045713       -0.07150683552952
C            3.41300864195033       -0.26659352221398        0.48833467741564
C            2.06147883375873        0.01030888558129        0.44490270436123
C            1.61986618985352        1.17243470366355       -0.18165261409997
N            0.25160517424557        1.46670241279130       -0.24355125504508
C           -0.33327955755497        2.66799596365513        0.10086370595180
C            0.24534556391109        3.81450467632955        0.62940975919483
C           -0.58387902939160        4.88244765560720        0.91911321801132
C           -1.95753367143398        4.81590203945364        0.70066566100163
C           -2.54299987302277        3.66733168223673        0.19784498395492
C           -1.73149293176119        2.58383167965565       -0.10169277509898
C           -1.99405091117332        1.25704949717434       -0.59712317647131
C           -3.14958471096658        0.61142813537353       -0.99490659640986
C           -3.06891622590479       -0.71391328743614       -1.44245930832026
C           -4.24265667559142       -1.45744403886175       -1.90628789298906
O           -4.09730324310695       -2.31646218446143       -2.83906498685420
C           -5.53549421355823       -1.22483239295119       -1.32394093326033
C           -6.68286125620191       -1.70286730782494       -2.00874399568369
C           -7.94175078804221       -1.52857008585727       -1.50487916300501
C           -8.12207276812467       -0.88664115971937       -0.27117572734116
N           -9.42446795678291       -0.68801660121436        0.25130505593422
C          -10.19542449056415       -1.76841231568584        0.64188727563831
C           -9.71575783789000       -3.07901872299475        0.59427002588503
C          -10.51772662625085       -4.13375327629696        0.98420683567763
C          -11.81032059599805       -3.90838829156415        1.43683600284243
C          -12.29733886502323       -2.61513340407849        1.51486666686604
C          -11.49949244932361       -1.54943191636729        1.12817195498429
O          -12.02360472329536       -0.29585842329750        1.25029390162736
C          -11.24663932992342        0.76205004765884        0.87856244778181
C          -11.79163833933177        2.03046001979792        1.00781657800579
C          -11.06038512352790        3.14063585450622        0.62285734491573
C           -9.78765116618601        2.97983440824157        0.09331073447731
C           -9.23598389074339        1.72049726763718       -0.03931998578721
C           -9.94656514333006        0.58861894491689        0.36490858414810
C           -7.00048558650946       -0.46146248490208        0.45295545695417
C           -5.73891572818045       -0.63477941826609       -0.05371821822905
C           -1.80092629849788       -1.32015368486090       -1.56227062049504
C           -0.64143818259727       -0.68711341984846       -1.17956321466550
C           -0.74068399957688        0.60236110397712       -0.66477394170377
C            2.54744925700406        2.03961388552769       -0.75148934247305
C            3.90657886739937        1.77329277400404       -0.69880494865772
C            4.88400174705872        2.72435147248993       -1.32102762452932
H            4.93021751238492       -2.27797463631405       -1.21521249839283
H            4.78656768128450       -0.85596574267418       -2.23769661876055
H            6.12053191068009       -1.99690420928635       -2.48509341796666
H            8.14301131392697       -1.77947627722709       -1.26461680821571
H            9.93455251024396        2.16708859755374       -0.13288404406502
H           12.07440584522065        3.38990718969392       -0.21364833397775
H           14.20622983803260        2.23064736195378        0.12074420340841
H           14.26802301075689       -0.20773395845110        0.52380829584290
H           13.63731745443942       -2.86015518328558        0.93353975174619
H           12.48128389857809       -5.02449826916571        1.23600579559511
H           10.03687320350692       -5.15902588636469        1.15725118982531
H            8.66417405557234       -3.15121418532200        0.75416080231131
H            8.55113821572659        1.23222086926905        1.73362549406485
H            6.15196956688108        1.75996704860715        1.51013557768243
H            3.75933241116989       -1.16337797722981        0.98106548631066
H            1.34740947061923       -0.65652971984300        0.90382757205734
H            1.30629708302048        3.86942574868533        0.81913230544517
H           -0.15687903930027        5.78657128667184        1.32777849800781
H           -2.57304849571305        5.67114870603151        0.93775362552595
H           -3.61029384818768        3.60915585950676        0.04492050746954
H           -4.09341611151246        1.13456632573279       -0.99750290415777
H           -6.52440128663986       -2.19261993327478       -2.95892110964368
H           -8.80673029334308       -1.86683375719811       -2.05784126145809
H           -8.70853130156085       -3.25596926827843        0.25265303565239
H          -10.12781147129845       -5.13847262141626        0.93685286645309
H          -12.43470108905845       -4.73443246383689        1.73740870661872
H          -13.29101842667691       -2.40597943926234        1.87735952329821
H          -12.78896211198213        2.12078893581402        1.40740445226716
H          -11.48732144850626        4.12523964460546        0.72716447899765
H           -9.22011428771188        3.84097890373434       -0.22297516864757
H           -8.25259589248127        1.59636048878923       -0.46313192440976
H           -7.14028369956280       -0.01668180788528        1.42847238621961
H           -4.88559953084161       -0.35219351596596        0.54389597401185
H           -1.76667741988416       -2.32131997146122       -1.96792839282395
H            0.31431007466074       -1.17774576319063       -1.28616050954733
H            2.19450539254008        2.92419044208255       -1.26150778677500
H            5.31905949470451        3.36876160777060       -0.55717357901322
H            4.39057080252324        3.35558665822654       -2.05604077486085
H            5.69748273494126        2.18489795535915       -1.80142913061808

          :  Hamiltonian                  GFN2-xTB          :
         :: gradient norm              0.000076324482 Eh/a0 ::
         :: HOMO-LUMO gap              0.318495559705 eV    ::
         :: SCC energy              -161.790335256541 Eh    ::
         :: -> dispersion             -0.141069954148 Eh    ::
         :: -> Gsolv                  -0.079573622855 Eh    ::
         :: repulsion energy           2.847957747978 Eh    ::

    * Orbital Energies and Occupations

         #    Occupation            Energy/Eh            Energy/eV
      -------------------------------------------------------------
         1        2.0000           -0.7568522             -20.5950
       ...           ...                  ...                  ...
       136        2.0000           -0.4065943             -11.0640
       137        2.0000           -0.4035492             -10.9811
       138        2.0000           -0.4022182             -10.9449
       139        2.0000           -0.4008233             -10.9070
       140        2.0000           -0.3976384             -10.8203
       141        2.0000           -0.3938272             -10.7166
       142        2.0000           -0.3803238             -10.3491
       143        2.0000           -0.3784723             -10.2988
       144        1.9868           -0.3642741              -9.9124
       145        1.9349           -0.3627068              -9.8698
       146        1.7483           -0.3612111              -9.8291
       147        1.3301           -0.3595037              -9.7826
       148        0.9979           -0.2715259              -7.3886 (HOMO)
       149        0.0021           -0.2598214              -7.0701 (LUMO)
       150                         -0.2480699              -6.7503
       151                         -0.2469126              -6.7188
       152                         -0.2452076              -6.6724
       153                         -0.2393478              -6.5130
       154                         -0.2335442              -6.3551
       155                         -0.2286085              -6.2208
       156                         -0.2283592              -6.2140
       157                         -0.2255732              -6.1382
       158                         -0.2250868              -6.1249
       159                         -0.2238267              -6.0906
       ...                                ...                  ...
       287                          0.7428360              20.2136
      -------------------------------------------------------------
                  HL-Gap            0.0117046 Eh            0.3185 eV

     #   Z          covCN         q      C6AA      α(0)
     1   6 C        3.758    -0.109    22.641     6.784
     2   6 C        2.968     0.018    27.602     8.618
     3   6 C        2.927    -0.053    29.316     8.879
     4   6 C        2.911     0.060    26.664     8.467
     5   7 N        2.802    -0.040    22.003     6.967
     6   6 C        3.076     0.048    26.852     8.496
     7   6 C        2.909    -0.050    29.247     8.868
     8   6 C        2.923    -0.035    28.859     8.810
     9   6 C        2.920    -0.041    29.022     8.834
    10   6 C        2.912    -0.034    28.845     8.807
    11   6 C        3.067    -0.018    28.382     8.736
    12   6 C        3.067    -0.018    28.383     8.736
    13   6 C        2.912    -0.034    28.846     8.807
    14   6 C        2.920    -0.041    29.022     8.834
    15   6 C        2.923    -0.035    28.859     8.810
    16   6 C        2.909    -0.050    29.247     8.868
    17   6 C        3.076     0.048    26.851     8.496
    18   6 C        2.920    -0.047    29.176     8.858
    19   6 C        2.924    -0.032    28.810     8.802
    20   6 C        2.981     0.004    27.938     8.670
    21   6 C        2.981     0.003    27.940     8.671
    22   6 C        2.924    -0.032    28.804     8.801
    23   6 C        2.920    -0.047    29.164     8.856
    24   6 C        2.911     0.059    26.668     8.468
    25   7 N        2.801    -0.033    21.880     6.947
    26   6 C        3.071     0.047    26.864     8.498
    27   6 C        2.909    -0.049    29.220     8.864
    28   6 C        2.923    -0.035    28.865     8.811
    29   6 C        2.920    -0.040    28.995     8.830
    30   6 C        2.912    -0.033    28.830     8.805
    31   6 C        3.066    -0.016    28.347     8.730
    32   6 C        3.059    -0.017    28.380     8.736
    33   6 C        2.913    -0.045    29.118     8.849
    34   6 C        2.969    -0.019    28.472     8.752
    35   6 C        2.833     0.160    24.546     8.119
    36   8 O        0.858    -0.534    24.546     6.642
    37   6 C        2.966    -0.026    28.647     8.779
    38   6 C        2.923    -0.035    28.865     8.811
    39   6 C        2.912    -0.044    29.088     8.844
    40   6 C        2.923     0.023    27.482     8.597
    41   7 N        2.751    -0.013    21.503     6.887
    42   6 C        2.926     0.047    26.943     8.512
    43   6 C        2.920    -0.048    29.182     8.859
    44   6 C        2.918    -0.028    28.710     8.787
    45   6 C        2.919    -0.028    28.700     8.785
    46   6 C        2.916    -0.051    29.276     8.873
    47   6 C        2.886     0.131    25.125     8.218
    48   8 O        1.709    -0.222    17.682     5.677
    49   6 C        2.886     0.131    25.124     8.217
    50   6 C        2.916    -0.051    29.273     8.872
    51   6 C        2.919    -0.028    28.702     8.785
    52   6 C        2.918    -0.028    28.711     8.787
    53   6 C        2.920    -0.048    29.190     8.860
    54   6 C        2.926     0.047    26.944     8.513
    55   6 C        2.914    -0.044    29.083     8.843
    56   6 C        2.917    -0.047    29.171     8.857
    57   6 C        2.928    -0.032    28.800     8.801
    58   6 C        2.906    -0.050    29.249     8.868
    59   6 C        3.073     0.040    27.021     8.523
    60   6 C        2.927    -0.053    29.325     8.881
    61   6 C        2.968     0.018    27.601     8.617
    62   6 C        3.758    -0.110    22.656     6.786
    63   1 H        0.925     0.053     2.279     2.361
    64   1 H        0.925     0.049     2.338     2.391
    65   1 H        0.925     0.048     2.346     2.395
    66   1 H        0.926     0.043     2.408     2.426
    67   1 H        0.926     0.033     2.540     2.492
    68   1 H        0.926     0.032     2.561     2.502
    69   1 H        0.926     0.029     2.597     2.520
    70   1 H        0.926     0.031     2.567     2.505
    71   1 H        0.926     0.031     2.565     2.505
    72   1 H        0.926     0.029     2.599     2.521
    73   1 H        0.926     0.031     2.567     2.506
    74   1 H        0.926     0.033     2.540     2.492
    75   1 H        0.926     0.042     2.426     2.436
    76   1 H        0.926     0.041     2.441     2.443
    77   1 H        0.926     0.040     2.449     2.447
    78   1 H        0.926     0.040     2.451     2.448
    79   1 H        0.926     0.037     2.491     2.468
    80   1 H        0.926     0.035     2.520     2.483
    81   1 H        0.926     0.032     2.552     2.498
    82   1 H        0.926     0.032     2.553     2.499
    83   1 H        0.926     0.031     2.571     2.507
    84   1 H        0.926     0.028     2.608     2.525
    85   1 H        0.926     0.030     2.581     2.512
    86   1 H        0.926     0.057     2.239     2.340
    87   1 H        0.926     0.057     2.230     2.335
    88   1 H        0.926     0.061     2.186     2.312
    89   1 H        0.926     0.067     2.118     2.276
    90   1 H        0.926     0.067     2.121     2.277
    91   1 H        0.926     0.061     2.185     2.312
    92   1 H        0.926     0.058     2.221     2.331
    93   1 H        0.926     0.057     2.232     2.336
    94   1 H        0.926     0.032     2.557     2.500
    95   1 H        0.926     0.031     2.573     2.509
    96   1 H        0.926     0.028     2.610     2.527
    97   1 H        0.926     0.032     2.558     2.501
    98   1 H        0.926     0.044     2.396     2.421
    99   1 H        0.925     0.056     2.252     2.347
   100   1 H        0.925     0.048     2.340     2.392
   101   1 H        0.925     0.050     2.321     2.383

molecular dipole:
                 x           y           z       tot (Debye)
 q only:       -0.978       2.054       2.559
   full:       -0.940       1.984       2.563       8.578

 projected vibrational frequencies (cm⁻¹)
eigval :       -0.00    -0.00    -0.00     0.00     0.00     0.00
eigval :       -3.50     3.54     7.97    13.64    15.32    17.89
eigval :       32.95    34.92    41.25    43.06    43.48    46.89
eigval :       56.88    62.11    65.84    72.09    76.68    93.04
eigval :      100.54   103.30   105.39   116.48   119.89   129.87
eigval :      134.48   139.88   155.94   163.70   178.62   183.58
eigval :      192.82   207.91   213.71   215.49   228.75   234.87
eigval :      242.47   246.49   261.28   271.32   274.05   280.57
eigval :      293.43   303.28   308.18   332.63   336.58   363.59
eigval :      366.57   380.17   384.42   388.16   394.47   399.42
eigval :      401.17   406.78   413.81   419.11   423.19   427.33
eigval :      427.99   432.48   436.48   444.68   459.95   468.99
eigval :      470.14   485.12   493.73   494.96   506.16   513.17
eigval :      518.21   527.85   531.20   536.92   538.50   538.63
eigval :      542.11   551.10   568.22   577.32   582.98   587.25
eigval :      591.46   596.85   603.51   611.54   617.31   623.25
eigval :      628.26   650.29   657.08   668.25   672.23   673.26
eigval :      674.35   679.96   691.27   692.72   699.76   705.23
eigval :      707.31   715.76   731.51   754.60   767.79   773.49
eigval :      776.86   778.54   780.85   789.98   793.93   805.42
eigval :      815.31   834.20   835.26   837.16   840.57   841.52
eigval :      855.56   865.48   866.44   867.35   869.53   870.97
eigval :      874.29   883.91   885.41   892.45   897.42   897.78
eigval :      901.81   902.58   903.41   903.73   905.85   907.09
eigval :      908.76   911.26   919.76   919.95   920.53   920.63
eigval :      921.42   923.42   925.25   926.06   947.21   988.52
eigval :      993.38   994.07   996.12  1010.02  1018.22  1022.98
eigval :     1027.22  1028.03  1032.03  1066.96  1068.57  1070.06
eigval :     1080.43  1082.15  1112.13  1113.87  1115.84  1118.85
eigval :     1127.44  1129.15  1142.85  1147.24  1150.65  1155.40
eigval :     1162.06  1168.70  1170.20  1170.86  1174.59  1179.65
eigval :     1179.78  1180.03  1187.55  1203.11  1207.94  1208.93
eigval :     1216.59  1228.29  1233.06  1234.83  1235.82  1240.92
eigval :     1250.04  1250.63  1251.34  1252.49  1256.68  1266.92
eigval :     1287.95  1296.67  1297.22  1297.59  1301.00  1303.12
eigval :     1310.74  1311.93  1317.85  1328.97  1341.97  1343.93
eigval :     1348.77  1354.15  1355.53  1358.91  1370.72  1401.52
eigval :     1403.19  1404.50  1409.29  1410.29  1410.42  1415.10
eigval :     1418.91  1422.34  1427.20  1427.91  1433.92  1435.70
eigval :     1439.24  1451.32  1455.78  1464.46  1468.05  1470.05
eigval :     1471.72  1473.09  1475.00  1480.51  1481.15  1485.21
eigval :     1504.44  1523.82  1545.43  1549.67  1551.09  1554.07
eigval :     1555.40  1559.94  1570.34  1574.19  1576.10  1580.56
eigval :     1584.16  1585.85  1591.00  1592.38  1595.84  1607.85
eigval :     3001.17  3001.46  3031.62  3034.05  3040.27  3040.69
eigval :     3063.87  3065.97  3071.80  3072.09  3074.24  3076.48
eigval :     3077.36  3078.11  3079.38  3079.82  3080.18  3080.37
eigval :     3080.60  3084.45  3085.51  3085.74  3086.64  3086.87
eigval :     3088.18  3089.41  3092.08  3093.13  3094.28  3094.83
eigval :     3095.29  3096.83  3097.95  3105.23  3105.34  3113.29
eigval :     3114.03  3116.40  3116.72

   temp. (K)  partition function   enthalpy   heat capacity  entropy
                                   cal/mol     cal/K/mol   cal/K/mol   J/K/mol
 298.15  VIB  0.208E+26            29990.923    186.621    190.533
         ROT  0.290E+09              888.752      2.981     41.702
         INT  0.602E+34            30879.675    189.602    232.235
         TR   0.218E+29             1481.254      4.968     45.888
         TOT                       32360.9292   194.5698   278.1225  1163.6644

       T/K    H(0)-H(T)+PV         H(T)/Eh          T*S/Eh         G(T)/Eh
   ------------------------------------------------------------------------
    298.15    0.515704E-01    0.823780E+00    0.132145E+00    0.691635E+00
   ------------------------------------------------------------------------

         :::::::::::::::::::::::::::::::::::::::::::::::::::::
         ::                  THERMODYNAMIC                  ::
         :::::::::::::::::::::::::::::::::::::::::::::::::::::
         :: total free energy        -158.250742661104 Eh   ::
         ::.................................................::
         :: total energy             -158.942377507858 Eh   ::
         :: zero point energy           0.772209387611 Eh   ::
         :: G(RRHO) w/o ZPVE           -0.080574540857 Eh   ::
         :: G(RRHO) contrib.            0.691634846754 Eh   ::
         :::::::::::::::::::::::::::::::::::::::::::::::::::::

           -------------------------------------------------
          | TOTAL ENERGY             -158.942377507858 Eh   |
          | TOTAL ENTHALPY           -158.118597697033 Eh   |
          | TOTAL FREE ENERGY        -158.250742661104 Eh   |
          | GRADIENT NORM               0.000076308979 Eh/α |
          | HOMO-LUMO GAP               0.318497820024 eV   |
           -------------------------------------------------

 * finished run on 2025/09/09 at 07:09:09.902
