   * xtb version 6.7.1 (edcfbbe) compiled by 'albert@albert-system' on 2024-07-22

   ID    Z sym.   atoms
    1    6 C      1-4, 6-24, 26-35, 37-40, 42-47, 49-62
    2    7 N      5, 25, 41
    3    8 O      36, 48
    4    1 H      63-101

          program call               : xtb data2507/toluene/CDBP-BP-PXZ/CDBP-BP-PXZ_toluene_S0_crest.xyz --gfn 2 --gbsa toluene --ohess vtight --parallel 40 --molden --ceasefiles --namespace data2507/toluene/CDBP-BP-PXZ/CDBP-BP-PXZ_toluene_S0_finalOpt
      * Solvation model:               GBSA
        Solvent                        toluene
        Solvent mass                       9.2140E+01 g/mol
          :  Hamiltonian                  GFN2-xTB          :
 * total energy  :  -159.0219886 Eh     change       -0.6364587E-08 Eh
 * total energy  :  -159.0220897 Eh     change       -0.1010742E-03 Eh
 * total energy  :  -159.0221227 Eh     change       -0.3303896E-04 Eh
 * total energy  :  -159.0221331 Eh     change       -0.1037349E-04 Eh
 * total energy  :  -159.0221451 Eh     change       -0.1201500E-04 Eh
 * total energy  :  -159.0221568 Eh     change       -0.1174425E-04 Eh
 * total energy  :  -159.0221653 Eh     change       -0.8480063E-05 Eh
 * total energy  :  -159.0221729 Eh     change       -0.7574556E-05 Eh
 * total energy  :  -159.0221798 Eh     change       -0.6870084E-05 Eh
 * total energy  :  -159.0221852 Eh     change       -0.5427059E-05 Eh
 * total energy  :  -159.0222291 Eh     change       -0.2022612E-05 Eh
 * total energy  :  -159.0222307 Eh     change       -0.1623799E-05 Eh
 * total energy  :  -159.0222321 Eh     change       -0.1418898E-05 Eh
 * total energy  :  -159.0222336 Eh     change       -0.1485034E-05 Eh
 * total energy  :  -159.0222351 Eh     change       -0.1505751E-05 Eh
 * total energy  :  -159.0222365 Eh     change       -0.1359083E-05 Eh
 * total energy  :  -159.0222375 Eh     change       -0.9865114E-06 Eh
 * total energy  :  -159.0222382 Eh     change       -0.7178743E-06 Eh
 * total energy  :  -159.0222382 Eh     change       -0.6172968E-08 Eh
   *** GEOMETRY OPTIMIZATION CONVERGED AFTER 44 ITERATIONS ***

 final structure:
================
101
 xtb: 6.7.1 (edcfbbe)
C            5.57998673774727       -1.88123230319025       -1.37648281647202
C            6.37683626488431       -0.89250848792764       -0.58014252081857
C            7.74329996258590       -1.05848728653180       -0.41537840697973
C            8.49302632888650       -0.15321638256710        0.32802376127748
N            9.87983575590370       -0.33447601564905        0.46495325292090
C           10.77398189723495       -0.51603197634372       -0.57013010659220
C           10.55027927631721       -0.52541319631360       -1.94013600502062
C           11.63908794409570       -0.70703818382076       -2.77108924304496
C           12.92586091523841       -0.86792538492173       -2.26006932461533
C           13.15819896601993       -0.83701387701041       -0.89938002819341
C           12.07931336790103       -0.65616680719652       -0.04294205480827
C           11.95415339899438       -0.55884843503513        1.38442196411290
C           12.86266000801746       -0.63648289290984        2.43259108257154
C           12.39295927374069       -0.52349125208930        3.72611647576319
C           11.03445291228350       -0.34531401145194        3.98207639477183
C           10.11164449585535       -0.26362365247250        2.95695698145296
C           10.58001015936287       -0.35684376369271        1.65348416398398
C            7.86347797146166        0.93115331757725        0.92847783730264
C            6.50039424325480        1.09763926846658        0.77417698946807
C            5.75097177840804        0.20295999356362        0.02111356219793
C            4.29287945178424        0.42113012336084       -0.13313858138030
C            3.40496643637473       -0.22029842004984        0.72041899169378
C            2.04160032290356       -0.01955954358326        0.61070115962220
C            1.55427005646054        0.82695180356365       -0.37738666164691
N            0.16953374142696        1.04481763939529       -0.50867535700437
C           -0.44802202242886        2.28188925839055       -0.54320788008070
C            0.10333603633498        3.54834181637729       -0.41035873554886
C           -0.75333404484975        4.63167547264351       -0.46197376268438
C           -2.12674041096560        4.46715317768367       -0.63303934874786
C           -2.68358909014115        3.20829081627293       -0.74378874984108
C           -1.84167148308618        2.10439609666925       -0.69726575239606
C           -2.06478590115129        0.68585048211772       -0.75788050271378
C           -3.20088260648494       -0.08827763194364       -0.90911728177760
C           -3.06884739162402       -1.47533185991618       -0.94341177548049
C           -4.23020120992876       -2.36044209427977       -1.12892497622589
O           -4.12214575412579       -3.48585932864334       -1.60268492109073
C           -5.56028308310230       -1.83606566563571       -0.72353835193523
C           -6.67664088157133       -2.16157951019560       -1.49235282798029
C           -7.92963212520740       -1.69878195991115       -1.14644272637102
C           -8.09247294805411       -0.92160468823857       -0.00144271825953
N           -9.36964155768729       -0.43991475874402        0.35608557216965
C          -10.40488013607544       -1.32714438877228        0.66376160371738
C          -10.21517063011454       -2.70318080570803        0.70795401936597
C          -11.26328164327823       -3.55598155713758        1.02033387499285
C          -12.51500427910922       -3.04925608561869        1.30636824230507
C          -12.71354513264603       -1.67605566840523        1.29798434680133
C          -11.67108021913263       -0.82210589575026        0.98870428955713
O          -11.93889373849738        0.52672888318046        1.03314459312299
C          -10.90544603851581        1.38647558753733        0.74069370826051
C          -11.18786441642094        2.73926290255637        0.78609802088936
C          -10.20818221012251        3.67073461851812        0.47337584441223
C           -8.95305603847572        3.23536254937628        0.09906472605734
C           -8.66522846380363        1.87950082531966        0.05375812446907
C           -9.62529051624577        0.93386792472304        0.39364721871092
C           -6.98591541198555       -0.62519090791387        0.79170107679619
C           -5.73070194893994       -1.07275123172759        0.43097397458402
C           -1.79247082496074       -2.06139628962208       -0.86357919388057
C           -0.65210431926330       -1.30903774247243       -0.70454565778365
C           -0.78958799399477        0.07460817155658       -0.63452359015830
C            2.43856709757027        1.46536064036599       -1.23948669294805
C            3.80732119013670        1.27933417567781       -1.12453626309916
C            4.75295347947395        1.98416428502218       -2.04862359870225
H            4.91152604889920       -1.37238297961257       -2.06864766318122
H            6.23434538768787       -2.54441662432029       -1.93671827326406
H            4.96335427351119       -2.48694956287527       -0.71263852053396
H            8.23830540118838       -1.90881425665549       -0.86194616837568
H            9.55965005114854       -0.38627674338082       -2.34605746625256
H           11.49075866490281       -0.72143461924816       -3.84124872310047
H           13.75105526243229       -1.00990988696784       -2.94273613856524
H           14.15747718677331       -0.94716504929114       -0.50478285895918
H           13.91368785812243       -0.78811814907160        2.23559144045038
H           13.08367288912031       -0.58038273247456        4.55483710959491
H           10.69539714104270       -0.27357904732586        5.00551139735841
H            9.05949722520164       -0.14068860956414        3.16561615100981
H            8.44245539002285        1.64139977487128        1.49920803344230
H            6.00671513261482        1.93854515152015        1.23989640342197
H            3.79085587331015       -0.87561496160044        1.48783433396405
H            1.35774807999547       -0.50469469363922        1.29069678088367
H            1.16358334054557        3.68466437036338       -0.26241743721505
H           -0.34970866997804        5.62879398443652       -0.36430140403950
H           -2.76205477980782        5.33970546794397       -0.67006963718370
H           -3.74896171983473        3.07983384072838       -0.86197363937835
H           -4.16560731076722        0.37886538827346       -1.03171389728124
H           -6.53949964842421       -2.76665380858955       -2.37663016480573
H           -8.78765748649280       -1.93359390394489       -1.75879152525206
H           -9.23884279845099       -3.11287709460677        0.50210224274005
H          -11.08689786015388       -4.62055142560073        1.04101816980360
H          -13.33506378754075       -3.70778921221618        1.54561651281856
H          -13.67353319247450       -1.24484472914299        1.53520632659839
H          -12.18494203932729        3.04306462336444        1.06413847833816
H          -10.43767386212324        4.72384536407000        0.51450086617445
H           -8.18501078876731        3.94598696069332       -0.16530755333779
H           -7.68545336909849        1.55327559520095       -0.25646684030593
H           -7.11943742734679       -0.04490312033009        1.69272311023637
H           -4.88198177133381       -0.85412272279381        1.06143010718633
H           -1.73281013788516       -3.13837905381205       -0.92466476946031
H            0.31814125055513       -1.77775446300432       -0.64789610389450
H            2.04653121397417        2.10767883374370       -2.01470825051491
H            4.21227986051893        2.49168687001961       -2.84340638986411
H            5.45579595840385        1.28031991873150       -2.49100516775640
H            5.33603065005551        2.72229805517156       -1.49854623926538

          :  Hamiltonian                  GFN2-xTB          :
         :: gradient norm              0.000058477563 Eh/a0 ::
         :: HOMO-LUMO gap              1.575028983930 eV    ::
         :: SCC energy              -161.886064957528 Eh    ::
         :: -> dispersion             -0.141295649380 Eh    ::
         :: -> Gsolv                  -0.068987682604 Eh    ::
         :: repulsion energy           2.863826752714 Eh    ::

    * Orbital Energies and Occupations

         #    Occupation            Energy/Eh            Energy/eV
      -------------------------------------------------------------
         1        2.0000           -0.7306926             -19.8832
       ...           ...                  ...                  ...
       135        2.0000           -0.4139162             -11.2632
       136        2.0000           -0.4100357             -11.1576
       137        2.0000           -0.4069720             -11.0743
       138        2.0000           -0.4040770             -10.9955
       139        2.0000           -0.4012926             -10.9197
       140        2.0000           -0.3985537             -10.8452
       141        2.0000           -0.3921735             -10.6716
       142        2.0000           -0.3916049             -10.6561
       143        2.0000           -0.3878118             -10.5529
       144        2.0000           -0.3774576             -10.2711
       145        2.0000           -0.3708194             -10.0905
       146        2.0000           -0.3606329              -9.8133
       147        2.0000           -0.3452497              -9.3947 (HOMO)
       148                         -0.2873685              -7.8197 (LUMO)
       149                         -0.2538389              -6.9073
       150                         -0.2448551              -6.6628
       151                         -0.2420892              -6.5876
       152                         -0.2407829              -6.5520
       153                         -0.2393624              -6.5134
       154                         -0.2351562              -6.3989
       155                         -0.2310308              -6.2867
       156                         -0.2300678              -6.2605
       157                         -0.2295678              -6.2469
       158                         -0.2271210              -6.1803
       ...                                ...                  ...
       287                          0.7456223              20.2894
      -------------------------------------------------------------
                  HL-Gap            0.0578812 Eh            1.5750 eV

     #   Z          covCN         q      C6AA      α(0)
     1   6 C        3.758    -0.109    22.636     6.783
     2   6 C        2.969     0.017    27.621     8.621
     3   6 C        2.927    -0.053    29.326     8.881
     4   6 C        2.911     0.060    26.655     8.466
     5   7 N        2.802    -0.047    22.151     6.990
     6   6 C        3.077     0.048    26.847     8.495
     7   6 C        2.909    -0.052    29.300     8.876
     8   6 C        2.924    -0.036    28.888     8.814
     9   6 C        2.919    -0.043    29.079     8.843
    10   6 C        2.912    -0.035    28.880     8.812
    11   6 C        3.067    -0.020    28.427     8.743
    12   6 C        3.067    -0.020    28.427     8.743
    13   6 C        2.912    -0.035    28.881     8.812
    14   6 C        2.919    -0.043    29.079     8.843
    15   6 C        2.924    -0.036    28.887     8.814
    16   6 C        2.909    -0.052    29.298     8.876
    17   6 C        3.077     0.048    26.848     8.495
    18   6 C        2.920    -0.048    29.191     8.860
    19   6 C        2.924    -0.034    28.838     8.807
    20   6 C        2.982     0.002    27.969     8.675
    21   6 C        2.982     0.005    27.910     8.666
    22   6 C        2.924    -0.032    28.810     8.802
    23   6 C        2.920    -0.047    29.168     8.857
    24   6 C        2.912     0.057    26.724     8.477
    25   7 N        2.803    -0.032    21.857     6.944
    26   6 C        3.081     0.047    26.850     8.495
    27   6 C        2.909    -0.049    29.205     8.861
    28   6 C        2.924    -0.032    28.807     8.802
    29   6 C        2.920    -0.040    28.983     8.828
    30   6 C        2.912    -0.033    28.814     8.802
    31   6 C        3.065    -0.017    28.358     8.732
    32   6 C        3.067    -0.015    28.326     8.727
    33   6 C        2.914    -0.030    28.759     8.794
    34   6 C        2.972    -0.029    28.716     8.790
    35   6 C        2.830     0.224    23.299     7.910
    36   8 O        0.858    -0.436    22.422     6.349
    37   6 C        2.971    -0.014    28.364     8.736
    38   6 C        2.924    -0.018    28.454     8.748
    39   6 C        2.919    -0.039    28.967     8.826
    40   6 C        2.921     0.070    26.428     8.430
    41   7 N        2.751    -0.071    22.624     7.064
    42   6 C        2.921     0.042    27.051     8.529
    43   6 C        2.924    -0.060    29.499     8.907
    44   6 C        2.919    -0.039    28.965     8.826
    45   6 C        2.919    -0.041    29.016     8.833
    46   6 C        2.919    -0.058    29.440     8.898
    47   6 C        2.882     0.122    25.311     8.248
    48   8 O        1.708    -0.272    18.510     5.809
    49   6 C        2.882     0.123    25.307     8.247
    50   6 C        2.919    -0.058    29.437     8.897
    51   6 C        2.919    -0.041    29.019     8.834
    52   6 C        2.919    -0.039    28.968     8.826
    53   6 C        2.924    -0.061    29.508     8.908
    54   6 C        2.921     0.042    27.053     8.529
    55   6 C        2.920    -0.039    28.978     8.828
    56   6 C        2.920    -0.026    28.646     8.777
    57   6 C        2.928    -0.023    28.582     8.768
    58   6 C        2.907    -0.049    29.209     8.862
    59   6 C        3.077     0.054    26.701     8.472
    60   6 C        2.927    -0.052    29.300     8.877
    61   6 C        2.969     0.019    27.585     8.615
    62   6 C        3.758    -0.110    22.651     6.785
    63   1 H        0.925     0.050     2.316     2.380
    64   1 H        0.925     0.046     2.366     2.406
    65   1 H        0.925     0.052     2.294     2.369
    66   1 H        0.926     0.041     2.433     2.439
    67   1 H        0.926     0.031     2.575     2.509
    68   1 H        0.926     0.029     2.601     2.522
    69   1 H        0.926     0.026     2.644     2.543
    70   1 H        0.926     0.028     2.614     2.528
    71   1 H        0.926     0.028     2.611     2.527
    72   1 H        0.926     0.026     2.643     2.543
    73   1 H        0.926     0.029     2.607     2.525
    74   1 H        0.926     0.029     2.594     2.519
    75   1 H        0.926     0.039     2.463     2.454
    76   1 H        0.926     0.037     2.485     2.465
    77   1 H        0.926     0.039     2.458     2.452
    78   1 H        0.926     0.041     2.436     2.441
    79   1 H        0.926     0.038     2.479     2.462
    80   1 H        0.926     0.036     2.507     2.476
    81   1 H        0.926     0.033     2.541     2.493
    82   1 H        0.926     0.035     2.522     2.483
    83   1 H        0.926     0.043     2.415     2.430
    84   1 H        0.926     0.049     2.330     2.387
    85   1 H        0.926     0.050     2.320     2.382
    86   1 H        0.926     0.039     2.463     2.454
    87   1 H        0.926     0.041     2.435     2.440
    88   1 H        0.926     0.042     2.419     2.432
    89   1 H        0.926     0.048     2.344     2.394
    90   1 H        0.926     0.048     2.349     2.397
    91   1 H        0.926     0.042     2.417     2.431
    92   1 H        0.926     0.042     2.421     2.433
    93   1 H        0.926     0.039     2.458     2.451
    94   1 H        0.926     0.052     2.291     2.367
    95   1 H        0.926     0.051     2.311     2.377
    96   1 H        0.926     0.045     2.388     2.417
    97   1 H        0.926     0.043     2.408     2.427
    98   1 H        0.926     0.044     2.391     2.418
    99   1 H        0.925     0.048     2.347     2.396
   100   1 H        0.925     0.051     2.305     2.374
   101   1 H        0.925     0.054     2.273     2.358

molecular dipole:
                 x           y           z       tot (Debye)
 q only:        1.201       1.721       0.165
   full:        1.209       1.703       0.215       5.337

 projected vibrational frequencies (cm⁻¹)
eigval :       -0.00    -0.00    -0.00    -0.00     0.00     0.00
eigval :        6.36     6.62     9.55    13.11    16.24    17.27
eigval :       32.12    34.28    40.59    41.45    43.84    50.82
eigval :       54.15    63.77    66.09    72.99    75.37    86.62
eigval :       90.56    91.75   102.41   117.76   121.54   129.40
eigval :      134.19   139.47   159.34   166.65   171.91   182.13
eigval :      194.05   206.62   209.94   217.46   224.61   233.53
eigval :      241.98   249.61   267.42   271.17   273.89   280.48
eigval :      288.23   300.70   311.50   328.80   346.03   368.99
eigval :      375.08   378.17   381.68   384.56   394.64   398.70
eigval :      407.82   414.62   416.74   422.51   423.61   428.14
eigval :      429.50   432.12   441.24   445.71   457.12   464.83
eigval :      471.81   488.80   510.07   510.35   516.86   517.80
eigval :      523.04   527.90   530.72   539.07   539.81   542.52
eigval :      553.31   560.30   570.87   583.12   587.91   588.31
eigval :      593.62   602.00   608.44   624.14   625.93   632.67
eigval :      654.48   660.36   661.71   667.68   671.61   679.37
eigval :      687.40   695.79   696.51   699.78   708.61   710.14
eigval :      721.88   729.77   734.43   755.64   767.76   775.63
eigval :      777.26   779.49   781.74   793.08   810.43   824.26
eigval :      828.39   833.56   837.52   841.20   844.88   853.09
eigval :      865.81   865.83   868.89   870.37   872.01   874.44
eigval :      884.26   888.93   889.31   893.01   898.07   898.13
eigval :      900.81   901.42   902.10   906.24   912.30   912.94
eigval :      915.68   917.28   918.49   918.61   920.36   924.03
eigval :      924.49   924.80   928.01   935.32   963.71   991.15
eigval :      995.68   997.61  1010.42  1017.48  1023.54  1024.13
eigval :     1028.53  1030.36  1032.78  1067.85  1068.25  1071.72
eigval :     1089.08  1090.59  1106.37  1115.20  1118.01  1119.26
eigval :     1129.95  1133.09  1145.62  1151.10  1154.91  1162.73
eigval :     1170.27  1172.31  1173.45  1174.87  1179.10  1181.17
eigval :     1181.49  1182.71  1187.48  1197.81  1204.57  1214.92
eigval :     1218.43  1228.81  1235.52  1236.78  1241.57  1243.53
eigval :     1250.10  1251.34  1254.16  1259.76  1261.76  1282.03
eigval :     1290.47  1301.12  1303.28  1304.21  1306.47  1308.51
eigval :     1310.69  1312.50  1312.74  1332.74  1352.59  1352.70
eigval :     1355.49  1358.38  1360.96  1363.73  1374.06  1400.14
eigval :     1401.89  1407.44  1412.24  1416.29  1422.40  1425.22
eigval :     1427.67  1436.79  1441.05  1441.35  1469.45  1470.12
eigval :     1472.25  1472.93  1473.05  1475.44  1480.05  1481.82
eigval :     1483.25  1483.64  1487.73  1502.75  1507.41  1554.55
eigval :     1556.06  1562.81  1566.11  1566.31  1572.85  1575.07
eigval :     1577.01  1579.03  1585.91  1587.24  1588.45  1595.35
eigval :     1595.86  1597.32  1601.95  1606.96  1613.63  1638.40
eigval :     3002.79  3005.44  3025.70  3026.87  3043.09  3044.85
eigval :     3069.85  3070.49  3074.96  3075.44  3075.51  3076.15
eigval :     3078.53  3080.92  3081.14  3082.57  3083.48  3083.49
eigval :     3084.22  3084.70  3084.96  3087.44  3087.55  3089.60
eigval :     3090.43  3092.75  3093.65  3094.94  3095.20  3095.76
eigval :     3095.91  3096.09  3096.43  3096.56  3098.08  3104.86
eigval :     3105.86  3109.51  3110.66

   temp. (K)  partition function   enthalpy   heat capacity  entropy
                                   cal/mol     cal/K/mol   cal/K/mol   J/K/mol
 298.15  VIB  0.620E+25            29862.921    185.313    188.942
         ROT  0.276E+09              888.752      2.981     41.607
         INT  0.171E+34            30751.674    188.294    230.549
         TR   0.218E+29             1481.254      4.968     45.888
         TOT                       32232.9276   193.2623   276.4364  1156.6099

       T/K    H(0)-H(T)+PV         H(T)/Eh          T*S/Eh         G(T)/Eh
   ------------------------------------------------------------------------
    298.15    0.513664E-01    0.826919E+00    0.131344E+00    0.695575E+00
   ------------------------------------------------------------------------

         :::::::::::::::::::::::::::::::::::::::::::::::::::::
         ::                  THERMODYNAMIC                  ::
         :::::::::::::::::::::::::::::::::::::::::::::::::::::
         :: total free energy        -158.326662833385 Eh   ::
         ::.................................................::
         :: total energy             -159.022238207236 Eh   ::
         :: zero point energy           0.775552789928 Eh   ::
         :: G(RRHO) w/o ZPVE           -0.079977416077 Eh   ::
         :: G(RRHO) contrib.            0.695575373851 Eh   ::
         :::::::::::::::::::::::::::::::::::::::::::::::::::::

           -------------------------------------------------
          | TOTAL ENERGY             -159.022238207236 Eh   |
          | TOTAL ENTHALPY           -158.195318977483 Eh   |
          | TOTAL FREE ENERGY        -158.326662833385 Eh   |
          | GRADIENT NORM               0.000058469487 Eh/α |
          | HOMO-LUMO GAP               1.575028098196 eV   |
           -------------------------------------------------

 * finished run on 2025/09/09 at 06:54:53.903
