   * xtb version 6.7.1 (edcfbbe) compiled by 'albert@albert-system' on 2024-07-22

   ID    Z sym.   atoms
    1    6 C      1-4, 6-24, 26-35, 37-40, 42-47, 49-62
    2    7 N      5, 25, 41
    3    8 O      36, 48
    4    1 H      63-101

          program call               : xtb data2507/toluene/CDBP-BP-PXZ/CDBP-BP-PXZ_toluene_S0_finalOpt.xtbopt.xyz --gfn 2 --uhf 2 --gbsa toluene --ohess vtight --parallel 40 --molden --ceasefiles --namespace data2507/toluene/CDBP-BP-PXZ/CDBP-BP-PXZ_toluene_T1_preOpt
      * Solvation model:               GBSA
        Solvent                        toluene
        Solvent mass                       9.2140E+01 g/mol
          :  Hamiltonian                  GFN2-xTB          :
 * total energy  :  -158.9352974 Eh     change       -0.2836686E-08 Eh
 * total energy  :  -158.9391976 Eh     change       -0.3900209E-02 Eh
 * total energy  :  -158.9403485 Eh     change       -0.1150921E-02 Eh
 * total energy  :  -158.9405479 Eh     change       -0.1993937E-03 Eh
 * total energy  :  -158.9407541 Eh     change       -0.2061413E-03 Eh
 * total energy  :  -158.9409050 Eh     change       -0.1509299E-03 Eh
 * total energy  :  -158.9410267 Eh     change       -0.1217142E-03 Eh
 * total energy  :  -158.9410918 Eh     change       -0.6512688E-04 Eh
 * total energy  :  -158.9411308 Eh     change       -0.3899279E-04 Eh
 * total energy  :  -158.9411734 Eh     change       -0.4254699E-04 Eh
 * total energy  :  -158.9422996 Eh     change       -0.3005006E-06 Eh
 * total energy  :  -158.9422999 Eh     change       -0.2594371E-06 Eh
 * total energy  :  -158.9423001 Eh     change       -0.2216493E-06 Eh
 * total energy  :  -158.9423003 Eh     change       -0.1588643E-06 Eh
 * total energy  :  -158.9423005 Eh     change       -0.1968022E-06 Eh
 * total energy  :  -158.9423007 Eh     change       -0.2306379E-06 Eh
 * total energy  :  -158.9423011 Eh     change       -0.3668024E-06 Eh
 * total energy  :  -158.9423015 Eh     change       -0.4046614E-06 Eh
 * total energy  :  -158.9423015 Eh     change       -0.3243628E-08 Eh
   *** GEOMETRY OPTIMIZATION CONVERGED AFTER 94 ITERATIONS ***

 final structure:
================
101
 xtb: 6.7.1 (edcfbbe)
C            5.52064614013834       -1.77377834976427       -1.40279136446789
C            6.36458145901379       -0.84263586030011       -0.58625826100537
C            7.72268457489161       -1.07512641551739       -0.43401329716631
C            8.51742051595081       -0.22103855531458        0.32327026274714
N            9.89337170259030       -0.47284676036112        0.45273850348622
C           10.77517377741015       -0.68477483423963       -0.58680215503525
C           10.54979230962361       -0.65728382676090       -1.95655353316610
C           11.62667587311332       -0.88425216564582       -2.79240050407653
C           12.90237845802357       -1.12577472835584       -2.28609059434749
C           13.13757270743280       -1.13107433489549       -0.92463351342031
C           12.07128891083187       -0.90562429237173       -0.06417192973955
C           11.95250961073426       -0.82481952960607        1.36571183665940
C           12.85595914923039       -0.96691251847751        2.41058286947259
C           12.39307429815128       -0.84866537523226        3.70706066221894
C           11.04626732876781       -0.60330045899068        3.96792140848102
C           10.12826603805938       -0.45711438164897        2.94530255161576
C           10.59111803376943       -0.55372093193968        1.63986550479836
C            7.94385457509550        0.88204610405944        0.94592583982653
C            6.58978512832449        1.11601495963663        0.80175584923201
C            5.79393107156226        0.26983697846075        0.03957171852601
C            4.34613570066353        0.55363597981638       -0.09761655647082
C            3.43077795418221       -0.13993704074263        0.68489290501461
C            2.07574902702566        0.10944428293678        0.58679551261452
C            1.61868092936505        1.06306607327805       -0.31757914697273
N            0.24733699458910        1.32397796900146       -0.44222865505088
C           -0.34171788239967        2.57126137957447       -0.42311042271284
C            0.23155200411396        3.81657905867619       -0.20103636766985
C           -0.60092825489866        4.92060848109563       -0.20165098117142
C           -1.97247186084010        4.79626391779896       -0.40823426551072
C           -2.55255060245137        3.55559802703480       -0.60626066072795
C           -1.73781285646318        2.43380035697547       -0.61070126648508
C           -1.99412892142643        1.02340372859382       -0.75236213728819
C           -3.14433195574108        0.29414584611599       -0.98739891611664
C           -3.05881275571881       -1.10167415049520       -1.07845499559650
C           -4.22491482653132       -1.94167206354396       -1.35859972977417
O           -4.06215724292489       -3.01768235500258       -2.02566427783334
C           -5.53285349611958       -1.55961455507488       -0.90105205793346
C           -6.66406540901884       -2.18886551694245       -1.48225230916800
C           -7.93638699352416       -1.87706254360436       -1.09086797721507
C           -8.14733731315815       -0.93492095020923       -0.07371829936632
N           -9.46309895208500       -0.58927786439557        0.32327476115372
C          -10.27599819412698       -1.52054869616945        0.94425407413325
C           -9.82830079596226       -2.80566834263922        1.25756504880890
C          -10.67202813994293       -3.71220664499571        1.86896844690323
C          -11.97543081238387       -3.35880217979247        2.18976288873812
C          -12.43205365223603       -2.08246641072859        1.91031339780880
C          -11.59235006740252       -1.16448152994049        1.29863940744611
O          -12.08879088478830        0.08514679242459        1.06937962422944
C          -11.27232260489936        0.99864989346099        0.46981334065797
C          -11.79119749427913        2.26371088043416        0.23957291438370
C          -11.01895008085380        3.22460703064219       -0.38935999952422
C           -9.73034207583027        2.91429343133024       -0.80101968384623
C           -9.20422666469673        1.65731849757615       -0.57542025635811
C           -9.95759408772229        0.67975078377982        0.07753608143797
C           -7.04398890168004       -0.35010914442547        0.56144542615797
C           -5.76891213501183       -0.66152975140970        0.16683201296747
C           -1.78948948646029       -1.71482609017069       -1.02041382807024
C           -0.63483616468445       -1.00132767521439       -0.79911691900802
C           -0.73967825000676        0.37719440231411       -0.63690313524768
C            2.53241263900475        1.75585690192602       -1.10681841970511
C            3.89333567147131        1.51773779894743       -1.00416332000504
C            4.86351820979199        2.27301557973715       -1.86106467437258
H            4.87335103639256       -1.21693959690774       -2.07813667502573
H            6.14192507200576       -2.45125352858713       -1.98323305227582
H            4.87908056606690       -2.36832078021900       -0.75278916159743
H            8.17452908346073       -1.93938726257703       -0.89917227335463
H            9.56812985474265       -0.45617607122849       -2.35799150556886
H           11.47709552916561       -0.87151408430112       -3.86227344140404
H           13.71811670668650       -1.30192606900956       -2.97196744246395
H           14.12941776312372       -1.30360695475126       -0.53413003623560
H           13.89719210840259       -1.17137587568683        2.21030271195976
H           13.08048886265331       -0.95471686036064        4.53351642705581
H           10.71187989551289       -0.52984089722520        4.99259108181220
H            9.08412770989850       -0.28262016201967        3.15668158652082
H            8.55967436913583        1.55445627173650        1.52389718040350
H            6.13844015793068        1.97044419523116        1.28502187624279
H            3.78984446035673       -0.87605308968124        1.38955812000890
H            1.37201179892665       -0.41723756562869        1.21333237079016
H            1.29092677187741        3.92109096305310       -0.02335348381649
H           -0.17816949139361        5.90039980360434       -0.03408784155460
H           -2.59057573878146        5.68194345201310       -0.40315115752505
H           -3.61826339567743        3.45734353556329       -0.74935504533568
H           -4.08719842120210        0.79693488040221       -1.13749362047681
H           -6.48192777624390       -2.90874331716577       -2.26736582124425
H           -8.78788581926069       -2.33781327299936       -1.57144901574816
H           -8.81309729350631       -3.07932955879096        1.01900456243998
H          -10.30654328434610       -4.70065201626857        2.09937215350456
H          -12.63189065575383       -4.07050743035339        2.66420522761915
H          -13.43373869992874       -1.77230616191079        2.16138134759944
H          -12.80130121793780        2.46786424070825        0.55668173582171
H          -11.42564407589133        4.20759949364197       -0.56522743191044
H           -9.13034547882782        3.65527133639564       -1.30560726118631
H           -8.20761010454737        1.41431557292319       -0.90674419191135
H           -7.20930019791832        0.33270612478875        1.38326362082128
H           -4.93188573936585       -0.24366185615280        0.70526286208060
H           -1.75095362344959       -2.78678433155119       -1.15268750645720
H            0.32207818999834       -1.49998538115087       -0.76322417019290
H            2.16559311786087        2.47569775274168       -1.82404342940781
H            4.34395697599417        2.81191776442359       -2.64930658067895
H            5.58823500200729        1.59664048497439       -2.31041204759839
H            5.41745888197708        2.99217675471069       -1.25823338271195

          :  Hamiltonian                  GFN2-xTB          :
         :: gradient norm              0.000048357765 Eh/a0 ::
         :: HOMO-LUMO gap              0.315954931236 eV    ::
         :: SCC energy              -161.790521824470 Eh    ::
         :: -> dispersion             -0.141085482412 Eh    ::
         :: -> Gsolv                  -0.079519553830 Eh    ::
         :: repulsion energy           2.848220334730 Eh    ::

    * Orbital Energies and Occupations

         #    Occupation            Energy/Eh            Energy/eV
      -------------------------------------------------------------
         1        2.0000           -0.7571921             -20.6042
       ...           ...                  ...                  ...
       136        2.0000           -0.4064684             -11.0606
       137        2.0000           -0.4036869             -10.9849
       138        2.0000           -0.4023133             -10.9475
       139        2.0000           -0.4000284             -10.8853
       140        2.0000           -0.3982275             -10.8363
       141        2.0000           -0.3941126             -10.7244
       142        2.0000           -0.3801110             -10.3433
       143        2.0000           -0.3784185             -10.2973
       144        1.9697           -0.3637580              -9.8984
       145        1.9380           -0.3630469              -9.8790
       146        1.7658           -0.3615921              -9.8394
       147        1.3266           -0.3597791              -9.7901
       148        0.9978           -0.2717076              -7.3935 (HOMO)
       149        0.0022           -0.2600959              -7.0776 (LUMO)
       150                         -0.2472924              -6.7292
       151                         -0.2471474              -6.7252
       152                         -0.2449440              -6.6653
       153                         -0.2371693              -6.4537
       154                         -0.2337792              -6.3615
       155                         -0.2289051              -6.2288
       156                         -0.2280018              -6.2042
       157                         -0.2278118              -6.1991
       158                         -0.2252092              -6.1283
       159                         -0.2236285              -6.0852
       ...                                ...                  ...
       287                          0.7430386              20.2191
      -------------------------------------------------------------
                  HL-Gap            0.0116117 Eh            0.3160 eV

     #   Z          covCN         q      C6AA      α(0)
     1   6 C        3.758    -0.109    22.637     6.783
     2   6 C        2.969     0.018    27.600     8.617
     3   6 C        2.927    -0.053    29.311     8.879
     4   6 C        2.911     0.060    26.665     8.468
     5   7 N        2.802    -0.040    22.012     6.968
     6   6 C        3.076     0.048    26.848     8.495
     7   6 C        2.909    -0.050    29.249     8.868
     8   6 C        2.923    -0.035    28.862     8.810
     9   6 C        2.920    -0.041    29.025     8.835
    10   6 C        2.912    -0.034    28.846     8.807
    11   6 C        3.067    -0.018    28.385     8.736
    12   6 C        3.067    -0.018    28.386     8.736
    13   6 C        2.912    -0.034    28.847     8.807
    14   6 C        2.920    -0.041    29.025     8.835
    15   6 C        2.923    -0.035    28.860     8.810
    16   6 C        2.909    -0.050    29.248     8.868
    17   6 C        3.076     0.048    26.850     8.496
    18   6 C        2.920    -0.047    29.173     8.857
    19   6 C        2.924    -0.033    28.816     8.803
    20   6 C        2.981     0.004    27.932     8.669
    21   6 C        2.981     0.004    27.933     8.669
    22   6 C        2.923    -0.033    28.810     8.802
    23   6 C        2.920    -0.047    29.161     8.855
    24   6 C        2.912     0.059    26.670     8.468
    25   7 N        2.801    -0.033    21.885     6.948
    26   6 C        3.072     0.047    26.862     8.498
    27   6 C        2.909    -0.049    29.218     8.864
    28   6 C        2.923    -0.035    28.866     8.811
    29   6 C        2.920    -0.040    28.997     8.830
    30   6 C        2.912    -0.033    28.830     8.805
    31   6 C        3.065    -0.016    28.350     8.731
    32   6 C        3.060    -0.017    28.379     8.736
    33   6 C        2.913    -0.045    29.124     8.849
    34   6 C        2.969    -0.019    28.475     8.753
    35   6 C        2.834     0.159    24.547     8.119
    36   8 O        0.858    -0.533    24.528     6.640
    37   6 C        2.966    -0.025    28.636     8.778
    38   6 C        2.923    -0.035    28.861     8.810
    39   6 C        2.912    -0.044    29.087     8.844
    40   6 C        2.923     0.024    27.480     8.597
    41   7 N        2.751    -0.012    21.491     6.885
    42   6 C        2.926     0.047    26.943     8.512
    43   6 C        2.920    -0.048    29.180     8.858
    44   6 C        2.918    -0.028    28.708     8.786
    45   6 C        2.919    -0.028    28.696     8.785
    46   6 C        2.916    -0.051    29.273     8.872
    47   6 C        2.886     0.131    25.122     8.217
    48   8 O        1.710    -0.221    17.674     5.676
    49   6 C        2.886     0.132    25.121     8.217
    50   6 C        2.916    -0.051    29.270     8.872
    51   6 C        2.919    -0.028    28.698     8.785
    52   6 C        2.918    -0.028    28.708     8.786
    53   6 C        2.920    -0.048    29.187     8.859
    54   6 C        2.927     0.047    26.945     8.513
    55   6 C        2.914    -0.044    29.082     8.843
    56   6 C        2.917    -0.047    29.166     8.856
    57   6 C        2.928    -0.032    28.799     8.801
    58   6 C        2.906    -0.050    29.248     8.868
    59   6 C        3.073     0.040    27.018     8.523
    60   6 C        2.927    -0.053    29.317     8.880
    61   6 C        2.968     0.018    27.597     8.617
    62   6 C        3.758    -0.110    22.652     6.786
    63   1 H        0.925     0.050     2.323     2.383
    64   1 H        0.925     0.047     2.355     2.400
    65   1 H        0.925     0.052     2.290     2.367
    66   1 H        0.926     0.043     2.411     2.428
    67   1 H        0.926     0.033     2.541     2.493
    68   1 H        0.926     0.031     2.566     2.505
    69   1 H        0.926     0.029     2.600     2.522
    70   1 H        0.926     0.031     2.568     2.506
    71   1 H        0.926     0.031     2.567     2.505
    72   1 H        0.926     0.029     2.599     2.521
    73   1 H        0.926     0.031     2.569     2.506
    74   1 H        0.926     0.032     2.556     2.500
    75   1 H        0.926     0.041     2.431     2.438
    76   1 H        0.926     0.039     2.457     2.451
    77   1 H        0.926     0.039     2.460     2.453
    78   1 H        0.926     0.040     2.452     2.449
    79   1 H        0.926     0.037     2.495     2.470
    80   1 H        0.926     0.035     2.522     2.483
    81   1 H        0.926     0.032     2.552     2.498
    82   1 H        0.926     0.032     2.552     2.498
    83   1 H        0.926     0.031     2.567     2.506
    84   1 H        0.926     0.029     2.605     2.524
    85   1 H        0.926     0.031     2.577     2.511
    86   1 H        0.926     0.057     2.237     2.339
    87   1 H        0.926     0.058     2.228     2.334
    88   1 H        0.926     0.061     2.184     2.311
    89   1 H        0.926     0.067     2.116     2.275
    90   1 H        0.926     0.067     2.119     2.276
    91   1 H        0.926     0.061     2.183     2.310
    92   1 H        0.926     0.058     2.219     2.330
    93   1 H        0.926     0.057     2.230     2.335
    94   1 H        0.926     0.032     2.552     2.498
    95   1 H        0.926     0.031     2.569     2.507
    96   1 H        0.926     0.028     2.609     2.526
    97   1 H        0.926     0.032     2.562     2.503
    98   1 H        0.926     0.044     2.400     2.423
    99   1 H        0.925     0.048     2.347     2.396
   100   1 H        0.925     0.051     2.313     2.378
   101   1 H        0.925     0.055     2.257     2.349

molecular dipole:
                 x           y           z       tot (Debye)
 q only:       -1.244       2.686       1.773
   full:       -1.202       2.618       1.798       8.632

 projected vibrational frequencies (cm⁻¹)
eigval :       -0.00    -0.00    -0.00     0.00     0.00     0.00
eigval :       -6.77     5.50     8.24    13.76    16.39    17.08
eigval :       32.19    35.64    39.07    41.41    44.98    46.88
eigval :       60.27    64.08    66.80    68.00    74.05    86.77
eigval :       91.68   100.14   101.29   115.58   117.70   130.78
eigval :      134.00   141.37   156.19   166.39   171.81   182.50
eigval :      195.47   208.80   211.00   217.61   227.17   236.08
eigval :      242.83   246.87   261.82   268.68   273.30   279.54
eigval :      294.62   302.54   311.11   329.51   340.35   354.75
eigval :      374.67   380.29   383.59   386.18   393.12   397.99
eigval :      401.45   408.57   412.86   419.87   423.06   425.70
eigval :      427.30   433.34   439.41   444.99   458.53   464.18
eigval :      469.93   489.14   493.49   495.99   506.04   513.33
eigval :      516.86   528.79   531.10   532.74   538.54   540.82
eigval :      541.86   559.06   562.51   575.59   582.88   587.44
eigval :      591.39   597.05   603.74   612.24   622.20   623.65
eigval :      626.45   649.95   657.10   669.79   671.99   674.04
eigval :      674.85   679.84   691.95   693.74   699.50   704.08
eigval :      708.91   715.71   732.61   755.33   767.50   771.66
eigval :      775.51   778.22   778.23   789.83   795.49   804.88
eigval :      813.46   831.79   834.18   837.75   839.90   841.82
eigval :      855.38   866.43   867.24   868.03   869.24   870.99
eigval :      876.06   883.64   888.11   889.25   898.03   900.01
eigval :      900.03   902.24   903.46   904.22   905.62   906.54
eigval :      907.39   911.88   917.51   918.56   918.91   920.75
eigval :      921.27   921.56   923.32   923.72   946.96   989.59
eigval :      993.66   994.81   996.79  1010.26  1017.26  1023.83
eigval :     1026.15  1028.97  1031.15  1068.10  1068.29  1071.38
eigval :     1079.32  1080.80  1112.18  1113.39  1116.94  1118.02
eigval :     1127.33  1129.25  1143.48  1148.19  1149.79  1154.50
eigval :     1160.99  1168.63  1169.01  1172.37  1174.41  1179.50
eigval :     1181.39  1181.62  1186.90  1202.51  1207.97  1208.48
eigval :     1216.81  1228.10  1233.75  1234.37  1235.89  1241.74
eigval :     1248.82  1249.74  1251.70  1253.29  1256.26  1266.87
eigval :     1288.13  1296.87  1297.34  1298.05  1301.49  1303.25
eigval :     1310.87  1311.54  1318.14  1329.23  1341.72  1343.73
eigval :     1348.44  1354.21  1355.85  1358.99  1371.14  1401.35
eigval :     1402.98  1406.63  1409.12  1410.02  1410.33  1414.86
eigval :     1419.14  1422.87  1427.23  1427.49  1434.84  1435.58
eigval :     1439.13  1451.30  1455.60  1464.32  1468.37  1469.84
eigval :     1471.61  1472.10  1475.04  1480.04  1481.77  1485.72
eigval :     1504.46  1523.29  1544.96  1549.50  1551.18  1554.65
eigval :     1556.01  1560.88  1570.52  1573.98  1576.25  1580.49
eigval :     1585.19  1588.08  1591.14  1593.59  1595.66  1607.78
eigval :     3003.91  3004.99  3025.85  3027.82  3042.70  3043.17
eigval :     3065.29  3067.32  3072.24  3072.67  3074.24  3076.39
eigval :     3077.31  3077.53  3077.97  3078.59  3079.98  3080.47
eigval :     3081.42  3082.75  3085.23  3085.83  3086.83  3087.00
eigval :     3087.84  3090.32  3092.10  3092.45  3092.97  3093.47
eigval :     3094.88  3096.68  3097.20  3104.92  3105.47  3113.59
eigval :     3114.49  3116.37  3117.09

   temp. (K)  partition function   enthalpy   heat capacity  entropy
                                   cal/mol     cal/K/mol   cal/K/mol   J/K/mol
 298.15  VIB  0.847E+25            30020.208    186.580    189.889
         ROT  0.287E+09              888.752      2.981     41.682
         INT  0.243E+34            30908.960    189.561    231.571
         TR   0.218E+29             1481.254      4.968     45.888
         TOT                       32390.2143   194.5293   277.4588  1160.8877

       T/K    H(0)-H(T)+PV         H(T)/Eh          T*S/Eh         G(T)/Eh
   ------------------------------------------------------------------------
    298.15    0.516171E-01    0.823754E+00    0.131830E+00    0.691925E+00
   ------------------------------------------------------------------------

         :::::::::::::::::::::::::::::::::::::::::::::::::::::
         ::                  THERMODYNAMIC                  ::
         :::::::::::::::::::::::::::::::::::::::::::::::::::::
         :: total free energy        -158.250376937626 Eh   ::
         ::.................................................::
         :: total energy             -158.942301488744 Eh   ::
         :: zero point energy           0.772137093119 Eh   ::
         :: G(RRHO) w/o ZPVE           -0.080212542000 Eh   ::
         :: G(RRHO) contrib.            0.691924551118 Eh   ::
         :::::::::::::::::::::::::::::::::::::::::::::::::::::

           -------------------------------------------------
          | TOTAL ENERGY             -158.942301488744 Eh   |
          | TOTAL ENTHALPY           -158.118547303508 Eh   |
          | TOTAL FREE ENERGY        -158.250376937626 Eh   |
          | GRADIENT NORM               0.000050599372 Eh/α |
          | HOMO-LUMO GAP               0.315971593328 eV   |
           -------------------------------------------------

 * finished run on 2025/09/09 at 06:55:15.520
