   * xtb version 6.7.1 (edcfbbe) compiled by 'albert@albert-system' on 2024-07-22

   ID    Z sym.   atoms
    1    6 C      1-4, 6-24, 26-35, 37-40, 42-47, 49-62
    2    7 N      5, 25, 41
    3    8 O      36, 48
    4    1 H      63-101

          program call               : xtb data2507/toluene/CDBP-BP-PXZ/CDBP-BP-PXZ.xyz --gfn 2 --gbsa toluene --ohess vtight --parallel 40 --molden --ceasefiles --namespace data2507/toluene/CDBP-BP-PXZ/CDBP-BP-PXZ_toluene_S0_preOpt
      * Solvation model:               GBSA
        Solvent                        toluene
        Solvent mass                       9.2140E+01 g/mol
          :  Hamiltonian                  GFN2-xTB          :
 * total energy  :  -158.9952375 Eh     change       -0.9580958E-08 Eh
 * total energy  :  -159.0126795 Eh     change       -0.1744206E-01 Eh
 * total energy  :  -159.0172418 Eh     change       -0.4562306E-02 Eh
 * total energy  :  -159.0184352 Eh     change       -0.1193351E-02 Eh
 * total energy  :  -159.0194633 Eh     change       -0.1028127E-02 Eh
 * total energy  :  -159.0199719 Eh     change       -0.5085360E-03 Eh
 * total energy  :  -159.0203086 Eh     change       -0.3367872E-03 Eh
 * total energy  :  -159.0205707 Eh     change       -0.2621055E-03 Eh
 * total energy  :  -159.0207661 Eh     change       -0.1953648E-03 Eh
 * total energy  :  -159.0208996 Eh     change       -0.1335189E-03 Eh
 * total energy  :  -159.0222762 Eh     change       -0.4412184E-06 Eh
 * total energy  :  -159.0222765 Eh     change       -0.3221885E-06 Eh
 * total energy  :  -159.0222768 Eh     change       -0.3320617E-06 Eh
 * total energy  :  -159.0222772 Eh     change       -0.4017293E-06 Eh
 * total energy  :  -159.0222778 Eh     change       -0.5637836E-06 Eh
 * total energy  :  -159.0222785 Eh     change       -0.7260602E-06 Eh
 * total energy  :  -159.0222793 Eh     change       -0.7877342E-06 Eh
 * total energy  :  -159.0222801 Eh     change       -0.7304587E-06 Eh
 * total energy  :  -159.0222801 Eh     change       -0.5262393E-08 Eh
   *** GEOMETRY OPTIMIZATION CONVERGED AFTER 122 ITERATIONS ***

 final structure:
================
101
 xtb: 6.7.1 (edcfbbe)
C            5.02437092171307       -2.11654999447812       -0.61002110620623
C            5.94627210282254       -0.98282868530483       -0.27614642895107
C            7.32034636547544       -1.16584374066518       -0.29084160400476
C            8.18691616625688       -0.12603627776976        0.02803490415440
N            9.57626934363591       -0.33640113576648        0.00138986577705
C           10.29381807925874       -0.85204341651914       -1.05800207694822
C            9.85705280429713       -1.23062632173906       -2.32011578816820
C           10.79888776729358       -1.70003948641764       -3.21539657278104
C           12.14765594021502       -1.78610687660539       -2.87432982656771
C           12.59147749076674       -1.39177293369962       -1.62769489171790
C           11.66346167004236       -0.91627203473077       -0.70959591296125
C           11.76539475654499       -0.41650744178667        0.63300396614333
C           12.82593782041471       -0.24883059687075        1.51462288322894
C           12.56728119317073        0.25459660508002        2.77405818467961
C           11.26867321513872        0.57796209276099        3.16393110426967
C           10.19740835570069        0.41994911662596        2.30574622401554
C           10.45363864052835       -0.06684428764260        1.03125659020860
C            7.67164950223803        1.11836871511624        0.37229824069141
C            6.30255406555404        1.30481916535606        0.39593413522048
C            5.43418483516797        0.26993858412996        0.07302504253701
C            3.97056756542717        0.50043580657126        0.11861415036029
C            3.26081759901446        0.15626274986987        1.26183342121891
C            1.89749152720830        0.36730595044303        1.34351995258560
C            1.22686430738453        0.92076971857500        0.25950568541593
N           -0.16318719959557        1.13554133216869        0.32234493862528
C           -0.80503539174377        2.33595648507966        0.07760857887292
C           -0.27064113475850        3.57035973108067       -0.26298416197286
C           -1.14673436488662        4.62552287967475       -0.43458060484339
C           -2.52106574530112        4.46636473568021       -0.26591334967377
C           -3.05665402711458        3.24493582681997        0.09230007405758
C           -2.19516617262704        2.17016133880883        0.27193596874137
C           -2.39094573278175        0.79650242561844        0.64707758495701
C           -3.51364233447384        0.04809640791042        0.95111436915292
C           -3.35659483030349       -1.29992868413266        1.26854616618000
C           -4.50012448302132       -2.14506886460363        1.64790413958321
O           -4.36656018964433       -3.14927647941899        2.33797376946253
C           -5.84491771608077       -1.73061540587891        1.16959894307305
C           -6.04925873137989       -1.24774210429830       -0.12234313051801
C           -7.31713745283537       -0.89977834730137       -0.54433204636573
C           -8.40156940106270       -1.01347981817486        0.32300692366859
N           -9.69241592843968       -0.63107943907455       -0.09975281793610
C          -10.72825106098313       -1.56789836063472       -0.15368445754022
C          -10.51980694151645       -2.91942112404719        0.09420187279269
C          -11.56843856854461       -3.82460098017299        0.02839558474903
C          -12.84012800731077       -3.39793628086610       -0.29768921642403
C          -13.05898468369097       -2.05714333975703       -0.57986886494122
C          -12.01608138577792       -1.15159020130595       -0.51675941418234
O          -12.30573140262953        0.15397264612721       -0.84006746350944
C          -11.27171133979829        1.06050887677573       -0.79662489481879
C          -11.57665763003027        2.36929767985803       -1.12215967782053
C          -10.59680936103379        3.35039513969313       -1.07294519300382
C           -9.31747585064546        3.01209517647583       -0.68082492206637
C           -9.00713558956705        1.70039282559775       -0.35446728901308
C           -9.96906153199963        0.69985823172919       -0.42593384124788
C           -8.20420362516832       -1.51088519240216        1.60960693878060
C           -6.93947057342927       -1.87944078899984        2.01975194088492
C           -2.07220886703426       -1.87376752718573        1.28221693707684
C           -0.94523931307329       -1.14840121543028        0.97382326102333
C           -1.10304275800441        0.20051227750331        0.66746436658771
C            1.93170700029234        1.26305185035432       -0.88862669443844
C            3.30186736355473        1.06673990311349       -0.97049255968160
C            4.05396693132879        1.45288899807130       -2.20746976998635
H            4.23274386615215       -1.78790498398507       -1.28075723058083
H            5.56939981886270       -2.93391154344529       -1.07558617512239
H            4.55026937460463       -2.49278150637715        0.29649673793520
H            7.73079497769458       -2.13352953911505       -0.54142468153980
H            8.81676670381106       -1.15344450463411       -2.59806365095981
H           10.48403341839982       -2.00367150122584       -4.20341242958012
H           12.85322460752368       -2.16082051247519       -3.60159707923349
H           13.63868091809712       -1.44625953068682       -1.36914293593568
H           13.83072681804798       -0.51169148447272        1.21827107015052
H           13.37873362274938        0.39398376116036        3.47352128010235
H           11.09613734910957        0.95791297547198        4.16061963525478
H            9.19292907599207        0.65936273932362        2.62112186199009
H            8.34181210473410        1.93127108772905        0.60830338837760
H            5.89707525144750        2.26893129460851        0.66738662534832
H            3.78901358267611       -0.27281649229418        2.10098744838357
H            1.35492655956731        0.11677876666961        2.24265400432360
H            0.79323674683730        3.70609960388115       -0.38229205818869
H           -0.75723199416054        5.59678217992061       -0.70230240855023
H           -3.17245349389205        5.31535216827741       -0.41190595669447
H           -4.11985917792545        3.12429454522576        0.23582419090962
H           -4.48816411813747        0.51054675611155        0.96880221806425
H           -5.21675620265627       -1.17249539877174       -0.80568391481979
H           -7.47714803070673       -0.54043132643208       -1.55014285629546
H           -9.52846450024909       -3.26963299092964        0.33519707566894
H          -11.37718399765332       -4.86704281178824        0.23224231133184
H          -13.66060841696803       -4.09643006979055       -0.34599545681394
H          -14.03584125642510       -1.69248258150151       -0.85662906119257
H          -12.59128522130110        2.60085561750727       -1.40624588473795
H          -10.84406955854475        4.36811683002320       -1.33090659604978
H           -8.54782896877306        3.76620625107781       -0.62011008935298
H           -8.00757512415796        1.45445148684099       -0.03353755734103
H           -9.04557721739029       -1.60477885760575        2.28010645743985
H           -6.77658292731081       -2.26996606336531        3.01361189018719
H           -1.99526335506457       -2.92122739399394        1.53529170239676
H            0.02884080221403       -1.61260674978983        0.96761654520732
H            1.39743067023912        1.67823202321809       -1.73089274610748
H            4.67361524562508        2.32778669681126       -2.01164832941988
H            3.37024510639599        1.68891159559996       -3.01893545454044
H            4.71681493641953        0.64924257433297       -2.52282302042126

          :  Hamiltonian                  GFN2-xTB          :
         :: gradient norm              0.000050845242 Eh/a0 ::
         :: HOMO-LUMO gap              1.581989513020 eV    ::
         :: SCC energy              -161.886151227063 Eh    ::
         :: -> dispersion             -0.141269716605 Eh    ::
         :: -> Gsolv                  -0.069141720682 Eh    ::
         :: repulsion energy           2.863871170292 Eh    ::

    * Orbital Energies and Occupations

         #    Occupation            Energy/Eh            Energy/eV
      -------------------------------------------------------------
         1        2.0000           -0.7306435             -19.8818
       ...           ...                  ...                  ...
       135        2.0000           -0.4138484             -11.2614
       136        2.0000           -0.4100744             -11.1587
       137        2.0000           -0.4070075             -11.0752
       138        2.0000           -0.4040403             -10.9945
       139        2.0000           -0.4012540             -10.9187
       140        2.0000           -0.3985641             -10.8455
       141        2.0000           -0.3922138             -10.6727
       142        2.0000           -0.3916030             -10.6561
       143        2.0000           -0.3878259             -10.5533
       144        2.0000           -0.3774274             -10.2703
       145        2.0000           -0.3709407             -10.0938
       146        2.0000           -0.3606446              -9.8136
       147        2.0000           -0.3451923              -9.3932 (HOMO)
       148                         -0.2870553              -7.8112 (LUMO)
       149                         -0.2539114              -6.9093
       150                         -0.2448082              -6.6616
       151                         -0.2421960              -6.5905
       152                         -0.2407842              -6.5521
       153                         -0.2392785              -6.5111
       154                         -0.2353794              -6.4050
       155                         -0.2309913              -6.2856
       156                         -0.2300689              -6.2605
       157                         -0.2294398              -6.2434
       158                         -0.2272020              -6.1825
       ...                                ...                  ...
       287                          0.7456586              20.2904
      -------------------------------------------------------------
                  HL-Gap            0.0581371 Eh            1.5820 eV

     #   Z          covCN         q      C6AA      α(0)
     1   6 C        3.758    -0.109    22.639     6.784
     2   6 C        2.969     0.017    27.623     8.621
     3   6 C        2.927    -0.053    29.324     8.881
     4   6 C        2.911     0.060    26.656     8.466
     5   7 N        2.802    -0.047    22.155     6.991
     6   6 C        3.077     0.048    26.846     8.495
     7   6 C        2.909    -0.052    29.300     8.876
     8   6 C        2.924    -0.036    28.888     8.814
     9   6 C        2.919    -0.043    29.080     8.843
    10   6 C        2.912    -0.035    28.880     8.812
    11   6 C        3.067    -0.020    28.428     8.743
    12   6 C        3.067    -0.020    28.428     8.743
    13   6 C        2.912    -0.035    28.881     8.812
    14   6 C        2.919    -0.043    29.079     8.843
    15   6 C        2.924    -0.036    28.887     8.814
    16   6 C        2.909    -0.052    29.298     8.876
    17   6 C        3.077     0.048    26.847     8.495
    18   6 C        2.920    -0.048    29.187     8.859
    19   6 C        2.924    -0.034    28.836     8.806
    20   6 C        2.982     0.002    27.968     8.675
    21   6 C        2.982     0.005    27.909     8.666
    22   6 C        2.924    -0.032    28.807     8.802
    23   6 C        2.920    -0.047    29.164     8.856
    24   6 C        2.912     0.057    26.724     8.477
    25   7 N        2.803    -0.032    21.857     6.944
    26   6 C        3.080     0.047    26.849     8.495
    27   6 C        2.909    -0.049    29.207     8.862
    28   6 C        2.924    -0.032    28.806     8.802
    29   6 C        2.920    -0.040    28.983     8.828
    30   6 C        2.912    -0.033    28.813     8.802
    31   6 C        3.066    -0.017    28.357     8.732
    32   6 C        3.067    -0.015    28.325     8.727
    33   6 C        2.914    -0.030    28.758     8.794
    34   6 C        2.972    -0.029    28.716     8.790
    35   6 C        2.830     0.224    23.295     7.909
    36   8 O        0.858    -0.436    22.416     6.348
    37   6 C        2.972    -0.014    28.360     8.735
    38   6 C        2.920    -0.026    28.647     8.777
    39   6 C        2.920    -0.039    28.980     8.828
    40   6 C        2.921     0.070    26.432     8.431
    41   7 N        2.751    -0.072    22.627     7.065
    42   6 C        2.921     0.042    27.052     8.529
    43   6 C        2.924    -0.060    29.496     8.906
    44   6 C        2.919    -0.039    28.966     8.826
    45   6 C        2.919    -0.041    29.016     8.833
    46   6 C        2.919    -0.058    29.441     8.898
    47   6 C        2.882     0.122    25.311     8.248
    48   8 O        1.708    -0.272    18.511     5.809
    49   6 C        2.882     0.123    25.308     8.247
    50   6 C        2.919    -0.058    29.437     8.897
    51   6 C        2.919    -0.041    29.020     8.834
    52   6 C        2.919    -0.039    28.969     8.826
    53   6 C        2.924    -0.061    29.513     8.909
    54   6 C        2.921     0.042    27.052     8.529
    55   6 C        2.919    -0.039    28.965     8.826
    56   6 C        2.923    -0.018    28.457     8.748
    57   6 C        2.928    -0.023    28.582     8.768
    58   6 C        2.907    -0.049    29.208     8.862
    59   6 C        3.078     0.054    26.700     8.472
    60   6 C        2.926    -0.052    29.303     8.877
    61   6 C        2.969     0.019    27.584     8.615
    62   6 C        3.758    -0.110    22.654     6.786
    63   1 H        0.925     0.050     2.315     2.379
    64   1 H        0.925     0.047     2.363     2.404
    65   1 H        0.925     0.052     2.294     2.368
    66   1 H        0.926     0.041     2.434     2.440
    67   1 H        0.926     0.031     2.578     2.511
    68   1 H        0.926     0.029     2.601     2.522
    69   1 H        0.926     0.026     2.645     2.543
    70   1 H        0.926     0.028     2.614     2.528
    71   1 H        0.926     0.028     2.612     2.527
    72   1 H        0.926     0.026     2.644     2.543
    73   1 H        0.926     0.029     2.608     2.525
    74   1 H        0.926     0.029     2.596     2.520
    75   1 H        0.926     0.039     2.462     2.454
    76   1 H        0.926     0.038     2.482     2.464
    77   1 H        0.926     0.039     2.462     2.454
    78   1 H        0.926     0.040     2.443     2.444
    79   1 H        0.926     0.038     2.477     2.461
    80   1 H        0.926     0.036     2.506     2.476
    81   1 H        0.926     0.033     2.541     2.493
    82   1 H        0.926     0.035     2.522     2.483
    83   1 H        0.926     0.042     2.416     2.431
    84   1 H        0.926     0.050     2.314     2.379
    85   1 H        0.926     0.053     2.285     2.364
    86   1 H        0.926     0.039     2.465     2.455
    87   1 H        0.926     0.041     2.435     2.440
    88   1 H        0.926     0.042     2.419     2.432
    89   1 H        0.926     0.048     2.345     2.394
    90   1 H        0.926     0.048     2.349     2.397
    91   1 H        0.926     0.042     2.418     2.431
    92   1 H        0.926     0.042     2.421     2.433
    93   1 H        0.926     0.040     2.454     2.450
    94   1 H        0.926     0.050     2.325     2.385
    95   1 H        0.926     0.049     2.337     2.390
    96   1 H        0.926     0.044     2.391     2.418
    97   1 H        0.926     0.043     2.406     2.426
    98   1 H        0.926     0.045     2.382     2.413
    99   1 H        0.925     0.054     2.270     2.356
   100   1 H        0.925     0.048     2.342     2.393
   101   1 H        0.925     0.051     2.306     2.375

molecular dipole:
                 x           y           z       tot (Debye)
 q only:        1.121       1.537      -1.207
   full:        1.137       1.534      -1.137       5.649

 projected vibrational frequencies (cm⁻¹)
eigval :       -0.00    -0.00     0.00     0.00     0.00     0.00
eigval :        6.94     8.77    14.60    15.14    16.31    18.54
eigval :       34.68    36.58    41.26    42.70    44.01    52.45
eigval :       56.96    66.89    68.14    74.22    85.86    89.27
eigval :       93.38   104.12   105.99   118.35   121.04   129.77
eigval :      133.80   143.58   160.17   166.94   171.69   182.58
eigval :      190.21   205.60   211.06   217.09   226.61   234.61
eigval :      245.87   251.70   268.49   273.89   275.08   280.02
eigval :      283.58   298.50   315.00   328.48   345.95   371.59
eigval :      374.54   378.25   382.33   385.72   394.30   398.55
eigval :      411.75   414.63   416.34   420.81   425.00   426.93
eigval :      430.86   433.48   441.30   446.83   457.76   465.55
eigval :      471.68   489.15   509.09   511.48   517.44   518.16
eigval :      524.11   529.62   534.28   539.02   542.17   542.92
eigval :      554.52   560.59   568.84   584.06   587.59   588.60
eigval :      593.50   602.21   608.39   624.66   626.11   633.74
eigval :      653.96   661.29   662.76   668.44   674.64   679.65
eigval :      688.55   695.96   697.25   699.86   710.06   710.25
eigval :      722.51   730.03   734.41   755.21   769.03   773.03
eigval :      778.45   780.01   780.61   793.12   810.87   824.74
eigval :      827.42   835.29   840.24   840.61   844.82   853.06
eigval :      866.70   866.82   868.88   869.87   873.29   875.37
eigval :      884.80   888.99   892.67   893.12   898.68   898.77
eigval :      899.62   901.53   903.02   904.30   912.60   913.47
eigval :      915.42   916.39   918.52   920.19   920.45   924.11
eigval :      925.89   927.45   927.84   936.18   963.82   991.09
eigval :      996.19   997.93  1010.60  1017.43  1024.02  1025.10
eigval :     1029.38  1030.93  1033.34  1068.73  1069.33  1071.86
eigval :     1089.13  1090.86  1106.39  1115.26  1117.93  1119.04
eigval :     1129.94  1131.23  1148.22  1151.47  1154.53  1163.41
eigval :     1170.15  1171.94  1172.32  1175.36  1179.69  1180.70
eigval :     1180.81  1183.92  1186.67  1197.79  1204.86  1215.23
eigval :     1218.55  1228.69  1235.94  1237.00  1241.43  1242.95
eigval :     1250.00  1250.55  1254.84  1259.66  1261.07  1282.30
eigval :     1290.35  1301.74  1302.74  1304.18  1306.58  1309.25
eigval :     1310.63  1311.95  1312.36  1332.70  1352.37  1352.76
eigval :     1355.52  1358.86  1361.24  1363.96  1374.32  1399.75
eigval :     1402.81  1407.82  1412.69  1416.88  1422.54  1425.28
eigval :     1427.81  1437.08  1441.27  1441.48  1469.20  1470.00
eigval :     1472.38  1473.05  1474.14  1475.52  1480.06  1482.40
eigval :     1483.11  1484.22  1487.65  1502.73  1507.46  1554.64
eigval :     1555.96  1563.16  1566.31  1566.48  1572.97  1575.07
eigval :     1577.17  1579.09  1585.93  1587.53  1588.60  1595.03
eigval :     1596.01  1597.43  1602.01  1606.97  1613.60  1638.79
eigval :     3003.24  3004.18  3027.60  3028.33  3043.71  3044.82
eigval :     3069.46  3069.89  3074.78  3074.89  3075.61  3076.03
eigval :     3077.76  3080.56  3080.92  3082.73  3083.01  3083.24
eigval :     3084.40  3084.66  3084.93  3087.19  3087.31  3089.84
eigval :     3089.90  3092.36  3093.03  3093.11  3093.80  3095.42
eigval :     3095.61  3096.02  3096.39  3096.56  3098.37  3104.62
eigval :     3105.96  3109.47  3111.47

   temp. (K)  partition function   enthalpy   heat capacity  entropy
                                   cal/mol     cal/K/mol   cal/K/mol   J/K/mol
 298.15  VIB  0.120E+25            29757.354    185.572    187.042
         ROT  0.274E+09              888.752      2.981     41.588
         INT  0.327E+33            30646.106    188.553    228.630
         TR   0.218E+29             1481.254      4.968     45.888
         TOT                       32127.3602   193.5210   274.5178  1148.5825

       T/K    H(0)-H(T)+PV         H(T)/Eh          T*S/Eh         G(T)/Eh
   ------------------------------------------------------------------------
    298.15    0.511982E-01    0.827047E+00    0.130432E+00    0.696615E+00
   ------------------------------------------------------------------------

         :::::::::::::::::::::::::::::::::::::::::::::::::::::
         ::                  THERMODYNAMIC                  ::
         :::::::::::::::::::::::::::::::::::::::::::::::::::::
         :: total free energy        -158.325665033806 Eh   ::
         ::.................................................::
         :: total energy             -159.022280061027 Eh   ::
         :: zero point energy           0.775849083433 Eh   ::
         :: G(RRHO) w/o ZPVE           -0.079234056213 Eh   ::
         :: G(RRHO) contrib.            0.696615027221 Eh   ::
         :::::::::::::::::::::::::::::::::::::::::::::::::::::

           -------------------------------------------------
          | TOTAL ENERGY             -159.022280061027 Eh   |
          | TOTAL ENTHALPY           -158.195232770282 Eh   |
          | TOTAL FREE ENERGY        -158.325665033806 Eh   |
          | GRADIENT NORM               0.000050813351 Eh/α |
          | HOMO-LUMO GAP               1.581990342361 eV   |
           -------------------------------------------------

 * finished run on 2025/09/09 at 06:44:18.109
