   * xtb version 6.7.1 (edcfbbe) compiled by 'albert@albert-system' on 2024-07-22

   ID    Z sym.   atoms
    1    6 C      1-12, 14-25, 27, 28, 30, 32-40, 42-57
    2    7 N      13, 26, 29, 31, 41, 58
    3    1 H      59-90

          program call               : xtb data2507/gas/CZ9CZPZ/CZ9CZPZ_gas_S0_finalOpt.xtbopt.xyz --gfn 2 --spinpol --tblite --uhf 2 --ohess vtight --parallel 40 --molden --ceasefiles --namespace data2507/gas/CZ9CZPZ/CZ9CZPZ_gas_T1_preOpt
 * total energy  :  -145.2842468 Eh     change       -0.1175593E-07 Eh
 * total energy  :  -145.2873343 Eh     change       -0.3087434E-02 Eh
 * total energy  :  -145.2879885 Eh     change       -0.6541968E-03 Eh
 * total energy  :  -145.2880710 Eh     change       -0.8255717E-04 Eh
 * total energy  :  -145.2881263 Eh     change       -0.5533193E-04 Eh
 * total energy  :  -145.2881504 Eh     change       -0.2405952E-04 Eh
 * total energy  :  -145.2881721 Eh     change       -0.2165129E-04 Eh
 * total energy  :  -145.2882098 Eh     change       -0.3772018E-04 Eh
 * total energy  :  -145.2882302 Eh     change       -0.2045668E-04 Eh
 * total energy  :  -145.2882710 Eh     change       -0.4073568E-04 Eh
 * total energy  :  -145.2885650 Eh     change       -0.1600449E-05 Eh
 * total energy  :  -145.2885665 Eh     change       -0.1557472E-05 Eh
 * total energy  :  -145.2885681 Eh     change       -0.1596407E-05 Eh
 * total energy  :  -145.2885696 Eh     change       -0.1439482E-05 Eh
 * total energy  :  -145.2885709 Eh     change       -0.1297730E-05 Eh
 * total energy  :  -145.2885720 Eh     change       -0.1135336E-05 Eh
 * total energy  :  -145.2885730 Eh     change       -0.9991806E-06 Eh
 * total energy  :  -145.2885729 Eh     change        0.8456237E-07 Eh
 * total energy  :  -145.2885730 Eh     change       -0.8204489E-07 Eh
   *** GEOMETRY OPTIMIZATION CONVERGED AFTER 69 ITERATIONS ***

 final structure:
================
90
 xtb: 6.7.1 (edcfbbe)
C           -9.51635413400175        3.79458658650781       -0.89937824074557
C           -8.32076417797124        3.79473937176216       -0.18445048738220
C           -7.49187601077198        2.68933090242413       -0.16371684530075
C           -7.88380003228338        1.57254450863027       -0.88876982597595
C           -9.10801510942931        1.55467929183955       -1.59678003530459
C           -9.92374321361591        2.67758623078429       -1.60249827822857
C           -9.22251026341760        0.24625367645500       -2.17941526635205
C          -10.17708812318542       -0.36168372012176       -2.98271092656016
C           -9.96396677970978       -1.66312634011708       -3.39386800866235
C           -8.80985968117427       -2.35109977765635       -3.02608409181770
C           -7.84497573453406       -1.76706050590366       -2.22768788230043
C           -8.06469611641308       -0.46777425390083       -1.79166251130264
N           -7.26486848133164        0.34554958811347       -1.01562569802937
C           -6.03679996779750       -0.01592675750408       -0.44396258710961
C           -4.92308878391639        0.81711339825778       -0.62298641225001
C           -3.69978272272424        0.50694181918465       -0.06841008141367
C           -3.59760724421671       -0.65964388581563        0.67621638273745
C           -4.71071436516272       -1.51760391223662        0.84946183123058
C           -5.93581770749685       -1.18926265388969        0.29294764336832
C           -4.26055049098112       -2.60891164652212        1.66652320802886
C           -4.88785746689290       -3.73771996044662        2.17562338073059
C           -4.16049162780040       -4.59139827153701        2.98140307485760
C           -2.83139875332704       -4.31777117834444        3.29673460396699
C           -2.18411625435491       -3.20322412011072        2.79677065798698
C           -2.89825427083669       -2.35802091406048        1.95900030412783
N           -2.50858873547357       -1.18372044768289        1.33958844164367
C           -1.23679300960489       -0.62888155802912        1.33620744548562
C           -0.10382902397014       -1.39938259509578        1.22264902252531
N            1.12815185649647       -0.88141339897702        1.30523399724292
C            1.23355188623086        0.47264178490829        1.40367426113310
N            2.50523243805875        1.02319656888870        1.47473331365236
C            2.89354416848955        2.11616936214357        2.22910680114215
C            2.17771547478616        2.85646704812317        3.15956542890543
C            2.82379452436603        3.90429216795657        3.78868624631533
C            4.15331778779300        4.21339315760168        3.51008032808890
C            4.88229952453544        3.46093141723415        2.61035601458078
C            4.25622049194569        2.40002638399838        1.97049562366476
C            4.70797615010027        1.41297604826061        1.03088902315709
C            5.93398050863766        1.15289102696295        0.44125040007203
C            6.03634296081945        0.07501743280955       -0.42920102155970
N            7.26533829905369       -0.21609843086176       -1.03781743358285
C            7.88431637690974       -1.44948022972534       -1.05647448956753
C            7.49122657723345       -2.64458046639586       -0.47018278881141
C            8.32033770712861       -3.73972033101631       -0.62072017306527
C            9.51731459880975       -3.65456683862888       -1.32821220473767
C            9.92587766349278       -2.46184926060569       -1.89259155756707
C            9.10990597162476       -1.34757296409157       -1.75493102080546
C            9.22522292644190        0.02081935104216       -2.17771029996095
C           10.18122563288513        0.71990733737985       -2.90120077128449
C            9.96850674300694        2.06093330513722       -3.15538058703010
C            8.81340943184827        2.70026344055953       -2.71092508644561
C            7.84714031272590        2.02549981211369       -1.98942358176761
C            8.06644951521105        0.68368234244056       -1.71019921156409
C            4.92313374579881       -0.73111933010725       -0.70716679103282
C            3.69896703243264       -0.48892746943018       -0.12150746644884
C            3.59539689106308        0.58137005239535        0.75573050621887
C            0.10074396596302        1.25129445033451        1.37917293239250
N           -1.13133929436850        0.72735353972848        1.39780088022414
H          -10.13519701061051        4.67946517003172       -0.89282205806452
H           -8.03698324638278        4.67733013958248        0.36952366025036
H           -6.57637116995669        2.69213882752454        0.40802690501978
H          -10.85860493336440        2.67183754450537       -2.14235465180132
H          -11.06424704647463        0.17641546551997       -3.28075188359988
H          -10.69566031450927       -2.15536484754584       -4.01703998603377
H           -8.66406381939639       -3.36246978561185       -3.37583898985069
H           -6.94504937147983       -2.30132405231150       -1.96285802843293
H           -5.03216372696969        1.70751642765737       -1.22323680252851
H           -2.84495241979967        1.15092408452528       -0.20082226194231
H           -6.80179893280327       -1.81432338144704        0.44740509591820
H           -5.92464003397587       -3.93553972455565        1.94939569451765
H           -4.62821915389068       -5.47588072655260        3.38691724029872
H           -2.29480552120863       -4.98891271162542        3.95055119150949
H           -1.16221740243749       -2.99158708119812        3.07040396397817
H           -0.16908576369456       -2.46453157648448        1.06770970801472
H            1.15540196269689        2.61388335232182        3.40447337530013
H            2.28589191959454        4.49353019088598        4.51621780166628
H            4.62008395098474        5.04388172235332        4.01795762113343
H            5.91937883004412        3.68425263092856        2.41079565807941
H            6.79957149760110        1.75534700248791        0.66989072033710
H            6.57464914848409       -2.71538439847348        0.09542516962231
H            8.03560406237851       -4.68195307073563       -0.17630076237075
H           10.13628140101569       -4.53398203469780       -1.42582695177610
H           10.86179227327492       -2.39193406656293       -2.42608888617468
H           11.06916205596696        0.22106689549253       -3.25919457361297
H           10.70128954861996        2.62373760578935       -3.71422008179625
H            8.66792343980533        3.74595991322228       -2.93853841702454
H            6.94647928444087        2.52446244039115       -1.66494725890357
H            5.03326978129711       -1.54413577273626       -1.40850768502734
H            2.84450848943236       -1.11282279987865       -0.33040698806473
H            0.16621866322363        2.32726445792180        1.35064679549143

 projected vibrational frequencies (cm⁻¹)
eigval :       -0.00    -0.00     0.00     0.00     0.00     0.00
eigval :        6.30    10.16    11.43    22.48    24.12    28.69
eigval :       31.72    39.13    44.78    64.73    64.88    80.34
eigval :       93.11   101.08   104.01   104.90   110.05   128.95
eigval :      131.22   143.11   144.64   148.07   149.73   164.04
eigval :      170.47   198.26   209.47   233.53   247.65   258.14
eigval :      269.20   271.91   273.29   277.67   283.84   297.60
eigval :      316.00   321.64   336.49   350.76   375.89   376.76
eigval :      393.47   395.26   398.01   398.40   416.00   419.22
eigval :      420.69   422.11   425.36   425.90   432.94   436.50
eigval :      438.33   465.51   467.44   502.97   517.22   517.50
eigval :      526.73   530.86   530.96   538.04   538.99   540.12
eigval :      540.15   548.02   555.97   558.79   561.70   587.32
eigval :      587.42   594.65   595.01   600.21   617.39   621.24
eigval :      628.87   630.47   636.04   663.92   674.19   674.22
eigval :      678.56   678.99   692.39   705.22   706.37   708.53
eigval :      709.71   713.42   745.97   755.06   755.16   756.80
eigval :      769.65   769.69   771.07   779.75   780.25   780.58
eigval :      792.14   792.69   796.30   824.27   824.80   865.26
eigval :      865.53   872.51   872.59   876.02   876.61   880.83
eigval :      882.26   887.35   894.15   896.26   897.76   899.70
eigval :      901.61   901.62   904.45   904.47   905.32   905.38
eigval :      912.35   912.36   922.35   922.50   922.73   922.75
eigval :      924.01   924.02   952.98   967.63   972.34   987.34
eigval :     1011.91  1011.99  1025.65  1026.23  1069.64  1069.66
eigval :     1071.70  1071.74  1072.94  1073.03  1089.52  1102.50
eigval :     1107.31  1115.01  1124.70  1144.24  1144.85  1150.26
eigval :     1150.32  1165.22  1172.64  1173.06  1177.86  1180.05
eigval :     1180.78  1180.79  1183.44  1183.73  1185.39  1207.61
eigval :     1220.06  1221.40  1224.50  1235.20  1235.74  1239.92
eigval :     1241.51  1247.26  1261.47  1272.88  1274.65  1292.80
eigval :     1293.97  1296.96  1300.52  1302.37  1302.60  1304.34
eigval :     1342.36  1342.75  1354.09  1355.40  1356.90  1357.29
eigval :     1358.85  1359.93  1360.87  1364.15  1371.50  1393.05
eigval :     1408.36  1416.78  1417.41  1423.59  1423.63  1430.72
eigval :     1433.84  1440.55  1444.23  1468.73  1468.75  1472.85
eigval :     1473.14  1486.27  1486.86  1487.11  1487.21  1515.12
eigval :     1557.34  1557.63  1572.17  1572.39  1574.93  1578.68
eigval :     1585.16  1586.29  1587.16  1587.33  1593.15  1593.17
eigval :     1598.64  1601.44  1610.98  1611.18  3077.48  3077.49
eigval :     3078.07  3078.09  3081.37  3081.39  3082.53  3082.54
eigval :     3084.04  3084.06  3085.70  3085.90  3087.14  3087.27
eigval :     3089.69  3089.70  3091.63  3091.68  3094.02  3094.04
eigval :     3094.82  3094.89  3096.07  3096.08  3097.23  3097.49
eigval :     3097.79  3097.99  3100.53  3100.89  3104.92  3105.06

   temp. (K)  partition function   enthalpy   heat capacity  entropy
                                   cal/mol     cal/K/mol   cal/K/mol   J/K/mol
 298.15  VIB  0.554E+20            25562.250    166.043    157.410
         ROT  0.107E+09              888.752      2.981     39.716
         INT  0.591E+28            26451.002    169.024    197.126
         TR   0.195E+29             1481.254      4.968     45.667
         TOT                       27932.2561   173.9925   242.7929  1015.8454

       T/K    H(0)-H(T)+PV         H(T)/Eh          T*S/Eh         G(T)/Eh
   ------------------------------------------------------------------------
    298.15    0.445129E-01    0.722414E+00    0.115359E+00    0.607055E+00
   ------------------------------------------------------------------------

         :::::::::::::::::::::::::::::::::::::::::::::::::::::
         ::                  THERMODYNAMIC                  ::
         :::::::::::::::::::::::::::::::::::::::::::::::::::::
         :: total free energy        -144.681517592500 Eh   ::
         ::.................................................::
         :: total energy             -145.288572989854 Eh   ::
         :: zero point energy           0.677901241940 Eh   ::
         :: G(RRHO) w/o ZPVE           -0.070845844586 Eh   ::
         :: G(RRHO) contrib.            0.607055397354 Eh   ::
         :::::::::::::::::::::::::::::::::::::::::::::::::::::

           -------------------------------------------------
          | TOTAL ENERGY             -145.288572989854 Eh   |
          | TOTAL ENTHALPY           -144.566158864434 Eh   |
          | TOTAL FREE ENERGY        -144.681517592500 Eh   |
          | GRADIENT NORM               0.000066619307 Eh/α |
           -------------------------------------------------

 * finished run on 2025/08/21 at 19:09:24.571
