   * xtb version 6.7.1 (edcfbbe) compiled by 'albert@albert-system' on 2024-07-22

   ID    Z sym.   atoms
    1    6 C      1-12, 14-25, 27, 28, 30, 32-40, 42-57
    2    7 N      13, 26, 29, 31, 41, 58
    3    1 H      59-90

          program call               : xtb data2507/gas/CZ9CZPZ/CZ9CZPZ_gas_S0_crest.xyz --gfn 2 --ohess vtight --parallel 40 --molden --ceasefiles --namespace data2507/gas/CZ9CZPZ/CZ9CZPZ_gas_S0_finalOpt
          :  Hamiltonian                  GFN2-xTB          :
 * total energy  :  -145.3646680 Eh     change       -0.2892818E-08 Eh
 * total energy  :  -145.3646695 Eh     change       -0.1423222E-05 Eh
 * total energy  :  -145.3646714 Eh     change       -0.1938602E-05 Eh
 * total energy  :  -145.3646753 Eh     change       -0.3909230E-05 Eh
 * total energy  :  -145.3646776 Eh     change       -0.2279790E-05 Eh
 * total energy  :  -145.3646784 Eh     change       -0.8254593E-06 Eh
 * total energy  :  -145.3646792 Eh     change       -0.7734151E-06 Eh
 * total energy  :  -145.3646804 Eh     change       -0.1160324E-05 Eh
 * total energy  :  -145.3646814 Eh     change       -0.1049271E-05 Eh
 * total energy  :  -145.3646823 Eh     change       -0.8587398E-06 Eh
 * total energy  :  -145.3646863 Eh     change       -0.8250393E-06 Eh
 * total energy  :  -145.3646869 Eh     change       -0.6000966E-06 Eh
 * total energy  :  -145.3646875 Eh     change       -0.5936944E-06 Eh
 * total energy  :  -145.3646882 Eh     change       -0.6950873E-06 Eh
 * total energy  :  -145.3646891 Eh     change       -0.9187328E-06 Eh
 * total energy  :  -145.3646901 Eh     change       -0.1075604E-05 Eh
 * total energy  :  -145.3646911 Eh     change       -0.9566990E-06 Eh
 * total energy  :  -145.3646919 Eh     change       -0.7796708E-06 Eh
 * total energy  :  -145.3646919 Eh     change       -0.5119205E-08 Eh
   *** GEOMETRY OPTIMIZATION CONVERGED AFTER 22 ITERATIONS ***

 final structure:
================
90
 xtb: 6.7.1 (edcfbbe)
C           -9.64612251147631        3.81017377267830       -0.60689699341343
C           -8.43707094054363        3.79425174152732        0.08542939713319
C           -7.59501493031224        2.69986529659145        0.04274135707467
C           -7.98679241047949        1.61070728065670       -0.72281784899296
C           -9.22321680056444        1.60810180028015       -1.40894702668107
C          -10.05248108010028        2.72054045977302       -1.35045622419720
C           -9.33092809527699        0.32785722274048       -2.04995840951968
C          -10.29298800032955       -0.25555037512872       -2.86392642859010
C          -10.07047715256608       -1.53148843442432       -3.34125133973814
C           -8.89976644223263       -2.21916583118906       -3.02849895122861
C           -7.92831668717176       -1.66041698027180       -2.22057674081510
C           -8.15660031881831       -0.38697488119312       -1.71859207321220
N           -7.35356862952809        0.40007055467706       -0.91845208936840
C           -6.10599449397430        0.03187706998623       -0.39255017418901
C           -5.00804233213864        0.88299089281707       -0.56340793166163
C           -3.76501673469926        0.56962757799095       -0.05122845315679
C           -3.62552367318043       -0.62854515237568        0.63129672652101
C           -4.72014966696848       -1.50427660551158        0.79094133456038
C           -5.96768643292658       -1.17000491763162        0.28764224316342
C           -4.23637879015170       -2.64315455737297        1.52281918285441
C           -4.85453156355074       -3.79081608163473        1.99866608424369
C           -4.10404002093966       -4.69126079635008        2.72851461375027
C           -2.76319124196438       -4.44081212926954        3.00376149452070
C           -2.12712611423911       -3.30482609325312        2.53631870284739
C           -2.86342683116332       -2.41588411665144        1.76702788143907
N           -2.49527027069877       -1.20081575325134        1.20288154444401
C           -1.22708593782905       -0.65366822211245        1.18289547530199
C           -0.06647174043413       -1.43128133658959        1.08069134860797
N            1.13186070913529       -0.89127761801896        1.13492032248166
C            1.22761633094278        0.43430228147920        1.26498939025892
N            2.49209099488469        0.98103417872033        1.36549616509797
C            2.83536200097466        2.14197672189756        2.04718406654665
C            2.08268600657464        2.93014190786941        2.90539080171216
C            2.69446904258426        4.02787537500518        3.48340791569826
C            4.02738261771346        4.33707675917698        3.22994170003690
C            4.79483383279147        3.53324711821260        2.41039618170192
C            4.20121926597294        2.42484355793484        1.82317251896781
C            4.70692651173927        1.37625356062606        0.97968408109897
C            5.95733501669988        1.12642056653540        0.43655948720661
C            6.11993294344369        0.00066532286340       -0.35871057518402
N            7.37015626310617       -0.27344276516550       -0.93409730264758
C            8.05281080882464       -1.47006610679914       -0.85663222722329
C            7.71714472123121       -2.63697695511804       -0.18486239129784
C            8.60210384497202       -3.69579040243106       -0.25072345836961
C            9.79834175805549       -3.60193338048342       -0.95901937337258
C           10.14788362005846       -2.43642881143106       -1.61078087756429
C            9.27478864588686       -1.35770854255760       -1.55941614976833
C            9.31990540596205       -0.02339756128890       -2.08782034019935
C           10.24078532935789        0.66687787205445       -2.86505339482262
C            9.95837803785225        1.96910539243309       -3.22544352026459
C            8.76923117561925        2.57957081098962       -2.83219429255644
C            7.83796298261312        1.91418537980110       -2.05852500418348
C            8.12594972494525        0.61201672039585       -1.67500794505942
C            5.04480376289581       -0.86238260388866       -0.59940536309401
C            3.79813821379423       -0.63209292153242       -0.05259947977733
C            3.63284975631785        0.49329218759576        0.73921749009296
C            0.06817040268807        1.21968471265715        1.22538773549135
N           -1.12977026056353        0.67834269858858        1.19855846408601
H          -10.27476986221078        4.68645949564945       -0.55052302841006
H           -8.15320232250111        4.65594914764116        0.67167490693706
H           -6.66831040478835        2.69009818160759        0.59653944998566
H          -10.99648214866211        2.72647565058089       -1.87435397432556
H          -11.19311845288356        0.28352833119066       -3.11846031262815
H          -10.80714179336622       -2.00448562411480       -3.97356482041673
H           -8.74675578626378       -3.21048768977926       -3.42937981188423
H           -7.01668870720651       -2.19458309509242       -1.99809571928289
H           -5.14281538833353        1.79911761186897       -1.11805753074976
H           -2.92829211197855        1.23626440603274       -0.17720427553511
H           -6.81614655678837       -1.82113522996404        0.42945498974967
H           -5.90215938149963       -3.96556498263421        1.80726785502600
H           -4.56273396485811       -5.59225502646182        3.10669521731249
H           -2.20519408959117       -5.14556647134908        3.60185918576010
H           -1.09607584217078       -3.11713771852900        2.79197448667800
H           -0.09972859680933       -2.49751399703117        0.91009990008246
H            1.05795713099290        2.69194722376706        3.14419874306103
H            2.12375334893212        4.65461811527293        4.15215689751748
H            4.46686620617259        5.20602709378054        3.69575273877370
H            5.83698398183135        3.75154155192666        2.23450941980137
H            6.78973602194775        1.78420906974382        0.63269009362548
H            6.80024956956817       -2.71288677585468        0.38011196316848
H            8.36295507267987       -4.61623789172351        0.26148946964773
H           10.46216912646399       -4.45324551519590       -0.98828595116975
H           11.08155030120844       -2.35860674759532       -2.14731648628254
H           11.15546090483577        0.18888057620722       -3.18210528171118
H           10.66194053942717        2.52420813319582       -3.82802278003075
H            8.56941821933952        3.59490770914859       -3.14205785962908
H            6.91164783149436        2.38970971717036       -1.77249627541878
H            5.19989071326243       -1.71935622983978       -1.23715240805467
H            2.97750827085082       -1.30570201985436       -0.23515127403762
H            0.10400771039069        2.29806988530420        1.17150633874960

          :  Hamiltonian                  GFN2-xTB          :
         :: gradient norm              0.000053681239 Eh/a0 ::
         :: HOMO-LUMO gap              1.907090227729 eV    ::
         :: SCC energy              -148.045860966713 Eh    ::
         :: -> dispersion             -0.130405468451 Eh    ::
         :: repulsion energy           2.681169078440 Eh    ::

    * Orbital Energies and Occupations

         #    Occupation            Energy/Eh            Energy/eV
      -------------------------------------------------------------
         1        2.0000           -0.7031588             -19.1339
       ...           ...                  ...                  ...
       123        2.0000           -0.4140309             -11.2664
       124        2.0000           -0.4139202             -11.2633
       125        2.0000           -0.4014683             -10.9245
       126        2.0000           -0.4014325             -10.9235
       127        2.0000           -0.3941199             -10.7245
       128        2.0000           -0.3921717             -10.6715
       129        2.0000           -0.3919987             -10.6668
       130        2.0000           -0.3762370             -10.2379
       131        2.0000           -0.3747815             -10.1983
       132        2.0000           -0.3747381             -10.1971
       133        2.0000           -0.3735806             -10.1656
       134        2.0000           -0.3575684              -9.7299
       135        2.0000           -0.3563957              -9.6980 (HOMO)
       136                         -0.2863114              -7.7909 (LUMO)
       137                         -0.2683684              -7.3027
       138                         -0.2578248              -7.0158
       139                         -0.2532533              -6.8914
       140                         -0.2422793              -6.5928
       141                         -0.2420776              -6.5873
       142                         -0.2348540              -6.3907
       143                         -0.2347058              -6.3867
       144                         -0.2180545              -5.9336
       145                         -0.2179975              -5.9320
       146                         -0.2160593              -5.8793
       ...                                ...                  ...
       264                          0.7500505              20.4099
      -------------------------------------------------------------
                  HL-Gap            0.0700843 Eh            1.9071 eV

     #   Z          covCN         q      C6AA      α(0)
     1   6 C        2.920    -0.041    29.029     8.835
     2   6 C        2.924    -0.034    28.840     8.807
     3   6 C        2.910    -0.051    29.276     8.872
     4   6 C        3.077     0.046    26.883     8.501
     5   6 C        3.068    -0.017    28.374     8.734
     6   6 C        2.912    -0.033    28.824     8.804
     7   6 C        3.068    -0.017    28.373     8.734
     8   6 C        2.912    -0.033    28.823     8.804
     9   6 C        2.920    -0.041    29.030     8.836
    10   6 C        2.924    -0.034    28.844     8.807
    11   6 C        2.910    -0.051    29.277     8.872
    12   6 C        3.077     0.046    26.885     8.501
    13   7 N        2.803    -0.043    22.075     6.978
    14   6 C        2.913     0.057    26.723     8.477
    15   6 C        2.927    -0.045    29.115     8.849
    16   6 C        2.910    -0.045    29.114     8.848
    17   6 C        3.066     0.049    26.838     8.495
    18   6 C        3.065    -0.012    28.256     8.717
    19   6 C        2.916    -0.047    29.161     8.855
    20   6 C        3.066    -0.011    28.231     8.712
    21   6 C        2.913    -0.031    28.766     8.795
    22   6 C        2.920    -0.037    28.922     8.819
    23   6 C        2.924    -0.031    28.769     8.796
    24   6 C        2.910    -0.050    29.238     8.866
    25   6 C        3.062     0.046    26.919     8.508
    26   7 N        2.802    -0.038    21.970     6.962
    27   6 C        2.891     0.132    25.108     8.215
    28   6 C        2.898     0.037    27.178     8.548
    29   7 N        1.848    -0.231    26.902     7.687
    30   6 C        2.891     0.132    25.106     8.215
    31   7 N        2.802    -0.038    21.973     6.962
    32   6 C        3.063     0.045    26.920     8.508
    33   6 C        2.910    -0.050    29.234     8.866
    34   6 C        2.924    -0.031    28.769     8.796
    35   6 C        2.920    -0.037    28.921     8.819
    36   6 C        2.913    -0.031    28.766     8.795
    37   6 C        3.066    -0.011    28.231     8.713
    38   6 C        3.065    -0.012    28.256     8.717
    39   6 C        2.916    -0.047    29.155     8.854
    40   6 C        2.913     0.057    26.723     8.477
    41   7 N        2.803    -0.044    22.080     6.979
    42   6 C        3.077     0.046    26.882     8.500
    43   6 C        2.910    -0.051    29.275     8.872
    44   6 C        2.924    -0.034    28.840     8.807
    45   6 C        2.920    -0.041    29.030     8.835
    46   6 C        2.912    -0.033    28.824     8.804
    47   6 C        3.069    -0.018    28.376     8.735
    48   6 C        3.068    -0.017    28.374     8.734
    49   6 C        2.912    -0.033    28.823     8.804
    50   6 C        2.920    -0.041    29.031     8.836
    51   6 C        2.924    -0.034    28.844     8.807
    52   6 C        2.910    -0.051    29.277     8.872
    53   6 C        3.077     0.046    26.884     8.501
    54   6 C        2.927    -0.045    29.111     8.848
    55   6 C        2.910    -0.045    29.121     8.849
    56   6 C        3.065     0.049    26.838     8.495
    57   6 C        2.899     0.037    27.175     8.547
    58   7 N        1.848    -0.231    26.900     7.687
    59   1 H        0.926     0.027     2.631     2.537
    60   1 H        0.926     0.028     2.615     2.529
    61   1 H        0.926     0.028     2.620     2.531
    62   1 H        0.926     0.030     2.587     2.515
    63   1 H        0.926     0.030     2.585     2.514
    64   1 H        0.926     0.027     2.631     2.537
    65   1 H        0.926     0.028     2.620     2.531
    66   1 H        0.926     0.026     2.645     2.543
    67   1 H        0.926     0.046     2.376     2.410
    68   1 H        0.926     0.056     2.250     2.346
    69   1 H        0.926     0.045     2.383     2.414
    70   1 H        0.926     0.038     2.477     2.461
    71   1 H        0.926     0.035     2.513     2.479
    72   1 H        0.926     0.036     2.499     2.472
    73   1 H        0.926     0.032     2.557     2.501
    74   1 H        0.926     0.052     2.300     2.372
    75   1 H        0.926     0.032     2.556     2.500
    76   1 H        0.926     0.036     2.497     2.471
    77   1 H        0.926     0.035     2.511     2.478
    78   1 H        0.926     0.038     2.476     2.461
    79   1 H        0.926     0.045     2.383     2.414
    80   1 H        0.926     0.027     2.624     2.533
    81   1 H        0.926     0.028     2.615     2.529
    82   1 H        0.926     0.027     2.632     2.537
    83   1 H        0.926     0.030     2.587     2.515
    84   1 H        0.926     0.030     2.585     2.514
    85   1 H        0.926     0.027     2.632     2.537
    86   1 H        0.926     0.028     2.621     2.532
    87   1 H        0.926     0.026     2.648     2.545
    88   1 H        0.926     0.046     2.377     2.411
    89   1 H        0.926     0.056     2.244     2.342
    90   1 H        0.926     0.052     2.300     2.372

molecular dipole:
                 x           y           z       tot (Debye)
 q only:       -0.008      -0.034       0.456
   full:       -0.007      -0.043       0.567       1.446

 projected vibrational frequencies (cm⁻¹)
eigval :       -0.00    -0.00    -0.00    -0.00     0.00     0.00
eigval :        5.91    10.88    11.64    23.24    23.89    27.84
eigval :       32.05    37.51    45.36    65.94    66.62    84.26
eigval :       91.67   101.05   102.71   104.87   113.81   128.01
eigval :      132.67   142.96   144.92   149.84   150.71   171.54
eigval :      175.40   205.65   210.80   232.68   247.68   259.10
eigval :      269.82   272.03   272.99   280.75   282.13   300.82
eigval :      319.52   342.42   355.29   371.45   383.07   392.81
eigval :      395.06   395.69   399.87   404.28   414.40   421.41
eigval :      422.71   422.83   427.83   429.36   436.84   437.16
eigval :      441.41   466.47   468.49   495.32   518.05   518.13
eigval :      529.00   529.35   536.83   539.46   540.07   541.25
eigval :      541.40   543.64   558.96   559.42   587.87   587.89
eigval :      592.75   593.73   603.07   613.03   624.99   628.62
eigval :      637.95   643.30   665.59   673.69   673.75   681.23
eigval :      681.39   696.37   706.46   709.16   709.24   709.41
eigval :      715.12   727.78   755.59   755.60   760.46   769.44
eigval :      769.52   776.91   777.27   780.74   780.78   794.04
eigval :      798.56   827.38   827.77   848.80   866.45   866.62
eigval :      869.47   872.92   873.07   881.41   883.31   884.01
eigval :      890.09   896.05   897.94   898.13   898.21   901.60
eigval :      901.62   903.82   903.94   907.59   912.93   915.10
eigval :      915.25   922.61   922.69   924.25   924.73   925.17
eigval :      927.73   935.93   968.49   971.76   974.62  1012.20
eigval :     1012.27  1027.54  1029.55  1033.71  1069.92  1070.15
eigval :     1073.28  1073.59  1076.59  1076.77  1109.13  1109.24
eigval :     1127.86  1132.18  1147.92  1148.54  1152.60  1152.85
eigval :     1173.77  1173.90  1179.78  1180.42  1181.50  1181.54
eigval :     1183.84  1183.88  1188.16  1192.54  1219.21  1220.79
eigval :     1229.35  1234.88  1237.05  1237.69  1241.03  1243.17
eigval :     1248.82  1250.07  1270.38  1276.26  1289.16  1292.01
eigval :     1301.72  1303.66  1304.64  1306.75  1309.43  1342.89
eigval :     1343.21  1355.69  1357.35  1357.41  1357.59  1362.67
eigval :     1362.86  1368.28  1368.80  1395.82  1402.41  1417.63
eigval :     1418.30  1420.16  1428.51  1428.57  1436.85  1437.32
eigval :     1443.07  1454.05  1474.20  1474.89  1476.86  1477.83
eigval :     1488.69  1488.91  1488.93  1489.01  1497.09  1567.09
eigval :     1568.93  1573.89  1575.06  1576.41  1584.47  1585.24
eigval :     1589.24  1589.35  1597.73  1597.95  1599.44  1599.49
eigval :     1611.70  1612.07  1615.64  1615.83  3071.94  3073.52
eigval :     3074.66  3074.80  3075.31  3075.34  3079.90  3080.06
eigval :     3081.24  3081.38  3083.12  3083.13  3086.92  3087.14
eigval :     3088.81  3088.88  3088.89  3089.09  3094.04  3094.19
eigval :     3095.82  3095.88  3096.11  3096.47  3096.50  3096.88
eigval :     3100.47  3100.86  3102.32  3102.57  3119.94  3120.37

   temp. (K)  partition function   enthalpy   heat capacity  entropy
                                   cal/mol     cal/K/mol   cal/K/mol   J/K/mol
 298.15  VIB  0.383E+20            25309.442    164.458    155.861
         ROT  0.212E+09              888.752      2.981     41.080
         INT  0.811E+28            26198.195    167.439    196.941
         TR   0.195E+29             1481.254      4.968     45.667
         TOT                       27679.4486   172.4073   242.6074  1015.0693

       T/K    H(0)-H(T)+PV         H(T)/Eh          T*S/Eh         G(T)/Eh
   ------------------------------------------------------------------------
    298.15    0.441100E-01    0.725567E+00    0.115271E+00    0.610296E+00
   ------------------------------------------------------------------------

         :::::::::::::::::::::::::::::::::::::::::::::::::::::
         ::                  THERMODYNAMIC                  ::
         :::::::::::::::::::::::::::::::::::::::::::::::::::::
         :: total free energy        -144.754395681328 Eh   ::
         ::.................................................::
         :: total energy             -145.364691888274 Eh   ::
         :: zero point energy           0.681456797965 Eh   ::
         :: G(RRHO) w/o ZPVE           -0.071160591019 Eh   ::
         :: G(RRHO) contrib.            0.610296206945 Eh   ::
         :::::::::::::::::::::::::::::::::::::::::::::::::::::

           -------------------------------------------------
          | TOTAL ENERGY             -145.364691888274 Eh   |
          | TOTAL ENTHALPY           -144.639125081264 Eh   |
          | TOTAL FREE ENERGY        -144.754395681328 Eh   |
          | GRADIENT NORM               0.000053679375 Eh/α |
          | HOMO-LUMO GAP               1.907090383722 eV   |
           -------------------------------------------------

 * finished run on 2025/08/21 at 19:09:07.410
