   * xtb version 6.7.1 (edcfbbe) compiled by 'albert@albert-system' on 2024-07-22

   ID    Z sym.   atoms
    1    6 C      1-12, 14-25, 27, 28, 30, 32-40, 42-57
    2    7 N      13, 26, 29, 31, 41, 58
    3    1 H      59-90

          program call               : xtb data2507/gas/CZ9CZPZ/CZ9CZPZ.xyz --gfn 2 --ohess vtight --parallel 40 --molden --ceasefiles --namespace data2507/gas/CZ9CZPZ/CZ9CZPZ_gas_S0_preOpt
          :  Hamiltonian                  GFN2-xTB          :
 * total energy  :  -145.3296970 Eh     change       -0.1661078E-08 Eh
 * total energy  :  -145.3535058 Eh     change       -0.2380886E-01 Eh
 * total energy  :  -145.3600278 Eh     change       -0.6522018E-02 Eh
 * total energy  :  -145.3615069 Eh     change       -0.1479018E-02 Eh
 * total energy  :  -145.3627120 Eh     change       -0.1205187E-02 Eh
 * total energy  :  -145.3633445 Eh     change       -0.6324592E-03 Eh
 * total energy  :  -145.3637857 Eh     change       -0.4412167E-03 Eh
 * total energy  :  -145.3640554 Eh     change       -0.2697298E-03 Eh
 * total energy  :  -145.3641888 Eh     change       -0.1333483E-03 Eh
 * total energy  :  -145.3642808 Eh     change       -0.9198674E-04 Eh
 * total energy  :  -145.3646947 Eh     change       -0.6920625E-06 Eh
 * total energy  :  -145.3646957 Eh     change       -0.1033596E-05 Eh
 * total energy  :  -145.3646973 Eh     change       -0.1591843E-05 Eh
 * total energy  :  -145.3646992 Eh     change       -0.1892557E-05 Eh
 * total energy  :  -145.3647006 Eh     change       -0.1403618E-05 Eh
 * total energy  :  -145.3647015 Eh     change       -0.9086231E-06 Eh
 * total energy  :  -145.3647022 Eh     change       -0.7320533E-06 Eh
 * total energy  :  -145.3647030 Eh     change       -0.7355748E-06 Eh
 * total energy  :  -145.3647030 Eh     change       -0.4692197E-08 Eh
   *** GEOMETRY OPTIMIZATION CONVERGED AFTER 44 ITERATIONS ***

 final structure:
================
90
 xtb: 6.7.1 (edcfbbe)
C           -9.77233451660230        3.66160087193301       -0.63722225339667
C           -8.56217675355442        3.69586420648983        0.05257297001184
C           -7.69137221900948        2.62351414902642        0.03614521901998
C           -8.05588144458510        1.50482033606176       -0.69962113147204
C           -9.29238336138194        1.45162795491817       -1.38357016631206
C          -10.15061776414070        2.54300316497078       -1.35207630662938
C           -9.36671837923749        0.15248192043109       -1.99049692377628
C          -10.31250696095544       -0.47727690111434       -2.78886529301579
C          -10.05648020091555       -1.75933110346039       -3.23184182738751
C           -8.86916987189871       -2.40843295955013       -2.89969532252623
C           -7.91319067623305       -1.80327710857726       -2.10691474479903
C           -8.17432458713979       -0.52261455275827       -1.64073221176193
N           -7.39175005795497        0.30635113758651       -0.86332523621217
C           -6.13275842414502       -0.01374830295167       -0.33272864529237
C           -5.05589488239745        0.85519503286910       -0.54252291737480
C           -3.80198024786048        0.58759626691406       -0.03076516791554
C           -3.63078515621887       -0.58145584980718        0.69379348028720
C           -4.70534817235628       -1.47297594375552        0.89725342516724
C           -5.96315284415798       -1.18607060156032        0.39042348901482
C           -4.19312281667795       -2.56975145579948        1.67279664891175
C           -4.78431598563340       -3.70826576591829        2.20190971980136
C           -4.01140265831516       -4.55947760550391        2.96661492191257
C           -2.67542986434988       -4.26787574446436        3.22438116484671
C           -2.06603533101859       -3.14053805565529        2.70356227878719
C           -2.82408857730353       -2.30326806148748        1.89815829741335
N           -2.48440388356421       -1.10672511500718        1.27867131611071
C           -1.22314837683442       -0.54859706583089        1.20757245084241
C           -0.05629851850002       -1.32065799214000        1.13623198487692
N            1.13697084316713       -0.76798033236753        1.14888662615175
C            1.22273080499939        0.56379110590777        1.20002080338459
N            2.48395551387207        1.12291112052529        1.26388926352077
C            2.82368829143230        2.32654387463320        1.86941808682581
C            2.06519402534183        3.17389325206822        2.66378255282899
C            2.67475766489581        4.30688102345439        3.17197735006793
C            4.01130802868797        4.59436764773712        2.91257976169563
C            4.78451047015227        3.73371476176542        2.15881688895872
C            4.19311544762745        2.58951725555515        1.64233528532375
C            4.70538017100196        1.48349489870038        0.88007321225440
C            5.96333137710026        1.19014598575513        0.37731918031484
C            6.13277421862720        0.00946110241566       -0.33212319617874
N            7.39190037623986       -0.31708820522170       -0.85850572569438
C            8.05617945894341       -1.51333057568990       -0.67996249446007
C            7.69159981743843       -2.62297692872706        0.06933696808894
C            8.56263473736088       -3.69484615495426        0.09928220447603
C            9.77304149605963       -3.66879545246932       -0.59044233935542
C           10.15130274254961       -2.55904056104616       -1.31896529295950
C            9.29285049020725       -1.46831948839719       -1.36420467718721
C            9.36707439546650       -0.17672834206245       -1.98706868566190
C           10.31284832806301        0.44335037441936       -2.79300113031109
C           10.05662500070893        1.71980533832057       -3.25175802513746
C            8.86918271741553        2.37276203953263       -2.92772689110596
C            7.91321648210383        1.77722769102648       -2.12768139833973
C            8.17449624953522        0.50240329577957       -1.64585086124270
C            5.05567667122544       -0.86143500423602       -0.53238998239769
C            3.80157085802049       -0.58729657793510       -0.02457073237163
C            3.63051122185891        0.59019445858772        0.68622592598046
C            0.05591984718632        1.33481214118964        1.11819646417789
N           -1.13735712790389        0.78235619475152        1.13837583650757
H          -10.42421583699047        4.52185459803805       -0.60160494216564
H           -8.30059297507614        4.57963760137347        0.61587317743895
H           -6.76335332471964        2.65234151395530        0.58715128465381
H          -11.09512007042937        2.51067012011875       -1.87411001186740
H          -11.22597529647521        0.03130660560388       -3.05823159930774
H          -10.77978971888389       -2.26771317142764       -3.85201030687234
H           -8.69064150118658       -3.40613478563241       -3.27327857829713
H           -6.98864501646837       -2.30765824095235       -1.86862430757515
H           -5.21618234620111        1.74842103655872       -1.12701330973257
H           -2.98091351674659        1.26685380516619       -0.18796498703956
H           -6.79591892208269       -1.85021528715760        0.56202514987560
H           -5.82883686961940       -3.91343853214134        2.02430084317723
H           -4.44882165797770       -5.45254966649628        3.38646982990411
H           -2.10006018157058       -4.93254739031769        3.85121024843166
H           -1.03879128130364       -2.91885800057714        2.94697471057259
H           -0.08100533019345       -2.39479465285392        1.02409226391213
H            1.03745209490468        2.95589195036907        2.90840944762340
H            2.09906907022083        4.97938168990459        3.79010174697037
H            4.44889262928345        5.49195098819680        3.32252172661883
H            5.82938656959110        3.93605492719017        1.98005624683463
H            6.79632519369316        1.85585884246979        0.54159331058799
H            6.76333365649647       -2.64520545692231        0.62023791890589
H            8.30105213897507       -4.57168597271957        0.67331672659194
H           10.42513436823350       -4.52837020243564       -0.54394076931504
H           11.09597748247108       -2.53295453664209       -1.84103793352038
H           11.22643503256955       -0.06833922303715       -3.05600953461210
H           10.77989698986615        2.22063458058496       -3.87808573971587
H            8.69055605809938        3.36578792628809       -3.31352213703071
H            6.98858731147256        2.28434916693832       -1.89560055870593
H            5.21594894828158       -1.76147481535284       -1.10634176470795
H            2.98023835241073       -1.26790086704692       -0.17443315776913
H            0.08065886292172        2.40733365407281        0.99149680885863

          :  Hamiltonian                  GFN2-xTB          :
         :: gradient norm              0.000053267995 Eh/a0 ::
         :: HOMO-LUMO gap              1.914481423507 eV    ::
         :: SCC energy              -148.045935516313 Eh    ::
         :: -> dispersion             -0.130410518411 Eh    ::
         :: repulsion energy           2.681232540147 Eh    ::

    * Orbital Energies and Occupations

         #    Occupation            Energy/Eh            Energy/eV
      -------------------------------------------------------------
         1        2.0000           -0.7029689             -19.1288
       ...           ...                  ...                  ...
       123        2.0000           -0.4140118             -11.2658
       124        2.0000           -0.4138989             -11.2628
       125        2.0000           -0.4014257             -10.9233
       126        2.0000           -0.4014105             -10.9229
       127        2.0000           -0.3942044             -10.7268
       128        2.0000           -0.3921239             -10.6702
       129        2.0000           -0.3920753             -10.6689
       130        2.0000           -0.3760879             -10.2339
       131        2.0000           -0.3747329             -10.1970
       132        2.0000           -0.3747201             -10.1967
       133        2.0000           -0.3734794             -10.1629
       134        2.0000           -0.3575545              -9.7296
       135        2.0000           -0.3563888              -9.6978 (HOMO)
       136                         -0.2860329              -7.7834 (LUMO)
       137                         -0.2682788              -7.3002
       138                         -0.2578445              -7.0163
       139                         -0.2531632              -6.8889
       140                         -0.2422322              -6.5915
       141                         -0.2420364              -6.5861
       142                         -0.2347969              -6.3891
       143                         -0.2347863              -6.3889
       144                         -0.2179917              -5.9319
       145                         -0.2179783              -5.9315
       146                         -0.2161534              -5.8818
       ...                                ...                  ...
       264                          0.7500693              20.4104
      -------------------------------------------------------------
                  HL-Gap            0.0703559 Eh            1.9145 eV

     #   Z          covCN         q      C6AA      α(0)
     1   6 C        2.920    -0.041    29.029     8.835
     2   6 C        2.924    -0.034    28.840     8.807
     3   6 C        2.910    -0.051    29.275     8.872
     4   6 C        3.077     0.046    26.882     8.500
     5   6 C        3.068    -0.018    28.375     8.735
     6   6 C        2.912    -0.033    28.824     8.804
     7   6 C        3.068    -0.017    28.374     8.734
     8   6 C        2.912    -0.033    28.823     8.804
     9   6 C        2.920    -0.042    29.031     8.836
    10   6 C        2.924    -0.034    28.843     8.807
    11   6 C        2.910    -0.051    29.277     8.872
    12   6 C        3.077     0.046    26.884     8.501
    13   7 N        2.803    -0.043    22.079     6.979
    14   6 C        2.913     0.057    26.722     8.477
    15   6 C        2.927    -0.045    29.112     8.848
    16   6 C        2.910    -0.045    29.121     8.849
    17   6 C        3.065     0.049    26.839     8.495
    18   6 C        3.065    -0.012    28.256     8.717
    19   6 C        2.916    -0.047    29.157     8.855
    20   6 C        3.066    -0.011    28.230     8.712
    21   6 C        2.913    -0.031    28.766     8.795
    22   6 C        2.920    -0.037    28.920     8.819
    23   6 C        2.924    -0.031    28.770     8.796
    24   6 C        2.910    -0.050    29.237     8.866
    25   6 C        3.062     0.045    26.921     8.508
    26   7 N        2.802    -0.038    21.967     6.961
    27   6 C        2.891     0.132    25.110     8.216
    28   6 C        2.898     0.037    27.182     8.548
    29   7 N        1.848    -0.231    26.908     7.688
    30   6 C        2.891     0.132    25.110     8.216
    31   7 N        2.802    -0.038    21.967     6.961
    32   6 C        3.062     0.045    26.921     8.508
    33   6 C        2.910    -0.050    29.237     8.866
    34   6 C        2.924    -0.031    28.770     8.796
    35   6 C        2.920    -0.037    28.921     8.819
    36   6 C        2.913    -0.031    28.766     8.795
    37   6 C        3.066    -0.011    28.230     8.712
    38   6 C        3.065    -0.012    28.256     8.717
    39   6 C        2.916    -0.047    29.157     8.855
    40   6 C        2.913     0.057    26.722     8.477
    41   7 N        2.803    -0.043    22.079     6.979
    42   6 C        3.077     0.046    26.882     8.500
    43   6 C        2.910    -0.051    29.275     8.872
    44   6 C        2.924    -0.034    28.840     8.807
    45   6 C        2.920    -0.041    29.030     8.835
    46   6 C        2.912    -0.033    28.824     8.804
    47   6 C        3.068    -0.018    28.376     8.735
    48   6 C        3.068    -0.017    28.374     8.734
    49   6 C        2.912    -0.033    28.823     8.804
    50   6 C        2.920    -0.042    29.031     8.836
    51   6 C        2.924    -0.034    28.843     8.807
    52   6 C        2.910    -0.051    29.277     8.872
    53   6 C        3.077     0.046    26.884     8.501
    54   6 C        2.927    -0.045    29.112     8.848
    55   6 C        2.910    -0.045    29.121     8.849
    56   6 C        3.065     0.049    26.839     8.495
    57   6 C        2.898     0.037    27.182     8.548
    58   7 N        1.848    -0.231    26.908     7.688
    59   1 H        0.926     0.027     2.632     2.537
    60   1 H        0.926     0.028     2.615     2.529
    61   1 H        0.926     0.027     2.623     2.533
    62   1 H        0.926     0.030     2.587     2.515
    63   1 H        0.926     0.030     2.586     2.515
    64   1 H        0.926     0.027     2.632     2.537
    65   1 H        0.926     0.028     2.621     2.532
    66   1 H        0.926     0.026     2.648     2.544
    67   1 H        0.926     0.046     2.376     2.411
    68   1 H        0.926     0.057     2.237     2.339
    69   1 H        0.926     0.045     2.384     2.415
    70   1 H        0.926     0.038     2.476     2.461
    71   1 H        0.926     0.035     2.512     2.478
    72   1 H        0.926     0.036     2.498     2.471
    73   1 H        0.926     0.032     2.554     2.499
    74   1 H        0.926     0.052     2.301     2.372
    75   1 H        0.926     0.032     2.554     2.499
    76   1 H        0.926     0.036     2.498     2.471
    77   1 H        0.926     0.035     2.512     2.478
    78   1 H        0.926     0.038     2.476     2.461
    79   1 H        0.926     0.045     2.384     2.415
    80   1 H        0.926     0.027     2.624     2.533
    81   1 H        0.926     0.028     2.615     2.529
    82   1 H        0.926     0.027     2.632     2.537
    83   1 H        0.926     0.030     2.587     2.515
    84   1 H        0.926     0.030     2.586     2.515
    85   1 H        0.926     0.027     2.632     2.537
    86   1 H        0.926     0.028     2.621     2.532
    87   1 H        0.926     0.026     2.648     2.545
    88   1 H        0.926     0.046     2.376     2.411
    89   1 H        0.926     0.057     2.238     2.339
    90   1 H        0.926     0.051     2.301     2.372

molecular dipole:
                 x           y           z       tot (Debye)
 q only:       -0.002       0.003       0.443
   full:       -0.002       0.003       0.551       1.401

 projected vibrational frequencies (cm⁻¹)
eigval :       -0.00    -0.00    -0.00     0.00     0.00     0.00
eigval :        5.93    10.87    11.64    23.45    23.62    27.75
eigval :       31.87    37.29    45.37    66.16    66.43    84.57
eigval :       91.56   101.05   102.77   104.68   114.15   127.82
eigval :      132.65   142.89   144.91   149.75   150.34   171.74
eigval :      176.02   206.33   210.79   232.99   247.30   259.33
eigval :      269.73   271.97   272.79   280.77   282.14   300.74
eigval :      319.06   342.64   355.50   371.14   382.99   392.87
eigval :      394.95   395.57   399.88   404.66   413.86   421.50
eigval :      422.82   422.88   427.89   429.21   436.82   436.95
eigval :      441.58   466.67   468.69   495.83   518.04   518.12
eigval :      528.94   529.29   536.92   539.60   540.14   541.28
eigval :      541.42   543.80   558.78   559.15   587.87   587.89
eigval :      592.83   593.63   602.89   613.10   624.96   628.67
eigval :      637.98   643.54   665.60   673.69   673.71   681.37
eigval :      681.48   696.44   706.47   709.18   709.22   709.47
eigval :      715.16   727.11   755.56   755.57   760.42   769.43
eigval :      769.49   776.99   777.20   780.73   780.74   794.05
eigval :      798.60   827.49   827.83   848.43   866.54   866.58
eigval :      869.23   872.98   872.99   881.55   883.03   883.77
eigval :      890.07   896.11   897.81   898.13   898.24   901.62
eigval :      901.63   903.76   903.77   907.71   913.04   915.23
eigval :      915.28   922.56   922.58   924.40   924.44   925.26
eigval :      927.90   935.77   968.61   971.79   974.67  1012.23
eigval :     1012.29  1027.46  1029.55  1033.62  1069.93  1069.94
eigval :     1073.36  1073.37  1076.93  1077.00  1109.09  1109.12
eigval :     1127.90  1132.36  1148.02  1148.36  1152.60  1152.64
eigval :     1173.82  1173.94  1179.80  1180.49  1181.53  1181.53
eigval :     1183.78  1183.79  1188.09  1192.53  1219.02  1220.63
eigval :     1229.62  1235.14  1237.14  1237.85  1241.28  1243.06
eigval :     1248.83  1250.27  1270.38  1276.18  1289.08  1291.98
eigval :     1301.67  1303.65  1304.75  1306.87  1309.46  1343.06
eigval :     1343.09  1355.61  1357.34  1357.38  1357.55  1362.73
eigval :     1362.82  1368.30  1368.79  1395.85  1402.44  1417.60
eigval :     1418.19  1420.14  1428.56  1428.59  1436.93  1437.39
eigval :     1443.31  1454.12  1474.26  1474.97  1476.86  1477.80
eigval :     1488.77  1488.95  1488.98  1489.08  1497.11  1567.19
eigval :     1568.92  1573.99  1575.04  1576.52  1584.39  1585.16
eigval :     1589.32  1589.36  1597.65  1597.87  1599.47  1599.50
eigval :     1611.62  1611.98  1615.66  1615.83  3072.34  3073.92
eigval :     3074.68  3074.69  3075.26  3075.27  3079.91  3079.94
eigval :     3081.21  3081.24  3083.21  3083.22  3086.94  3086.95
eigval :     3088.84  3088.89  3089.00  3089.02  3094.09  3094.09
eigval :     3095.77  3095.81  3096.14  3096.21  3096.92  3096.99
eigval :     3100.57  3100.61  3102.57  3102.67  3121.18  3121.27

   temp. (K)  partition function   enthalpy   heat capacity  entropy
                                   cal/mol     cal/K/mol   cal/K/mol   J/K/mol
 298.15  VIB  0.386E+20            25309.262    164.450    155.852
         ROT  0.106E+09              888.752      2.981     39.696
         INT  0.407E+28            26198.015    167.431    195.549
         TR   0.195E+29             1481.254      4.968     45.667
         TOT                       27679.2685   172.3995   241.2153  1009.2448

       T/K    H(0)-H(T)+PV         H(T)/Eh          T*S/Eh         G(T)/Eh
   ------------------------------------------------------------------------
    298.15    0.441097E-01    0.725575E+00    0.114609E+00    0.610966E+00
   ------------------------------------------------------------------------

         :::::::::::::::::::::::::::::::::::::::::::::::::::::
         ::                  THERMODYNAMIC                  ::
         :::::::::::::::::::::::::::::::::::::::::::::::::::::
         :: total free energy        -144.753736719978 Eh   ::
         ::.................................................::
         :: total energy             -145.364702976165 Eh   ::
         :: zero point energy           0.681465703998 Eh   ::
         :: G(RRHO) w/o ZPVE           -0.070499447811 Eh   ::
         :: G(RRHO) contrib.            0.610966256187 Eh   ::
         :::::::::::::::::::::::::::::::::::::::::::::::::::::

           -------------------------------------------------
          | TOTAL ENERGY             -145.364702976165 Eh   |
          | TOTAL ENTHALPY           -144.639127550081 Eh   |
          | TOTAL FREE ENERGY        -144.753736719978 Eh   |
          | GRADIENT NORM               0.000053264513 Eh/α |
          | HOMO-LUMO GAP               1.914481270538 eV   |
           -------------------------------------------------

 * finished run on 2025/08/21 at 19:03:21.658
