   * xtb version 6.7.1 (edcfbbe) compiled by 'albert@albert-system' on 2024-07-22

   ID    Z sym.   atoms
    1    6 C      1-12, 14-25, 27, 28, 30, 32-40, 42-57
    2    7 N      13, 26, 29, 31, 41, 58
    3    1 H      59-90

          program call               : xtb data2507/gas/CZ9CZPZ/CZ9CZPZ_gas_T1_crest.xyz --gfn 2 --spinpol --tblite --uhf 2 --ohess vtight --parallel 40 --molden --ceasefiles --namespace data2507/gas/CZ9CZPZ/CZ9CZPZ_gas_T1_finalOpt
 * total energy  :  -145.2900175 Eh     change        0.3155498E-07 Eh
 * total energy  :  -145.2901921 Eh     change       -0.1746179E-03 Eh
 * total energy  :  -145.2902911 Eh     change       -0.9894021E-04 Eh
 * total energy  :  -145.2903149 Eh     change       -0.2380996E-04 Eh
 * total energy  :  -145.2903373 Eh     change       -0.2242600E-04 Eh
 * total energy  :  -145.2903488 Eh     change       -0.1149421E-04 Eh
 * total energy  :  -145.2903587 Eh     change       -0.9881163E-05 Eh
 * total energy  :  -145.2903748 Eh     change       -0.1614648E-04 Eh
 * total energy  :  -145.2903798 Eh     change       -0.4990432E-05 Eh
 * total energy  :  -145.2903847 Eh     change       -0.4902017E-05 Eh
 * total energy  :  -145.2911574 Eh     change       -0.4297598E-06 Eh
 * total energy  :  -145.2911578 Eh     change       -0.3983221E-06 Eh
 * total energy  :  -145.2911582 Eh     change       -0.4229072E-06 Eh
 * total energy  :  -145.2911586 Eh     change       -0.4040274E-06 Eh
 * total energy  :  -145.2911591 Eh     change       -0.4239640E-06 Eh
 * total energy  :  -145.2911595 Eh     change       -0.3995331E-06 Eh
 * total energy  :  -145.2911599 Eh     change       -0.4139886E-06 Eh
 * total energy  :  -145.2911603 Eh     change       -0.3965224E-06 Eh
 * total energy  :  -145.2911603 Eh     change       -0.2033875E-07 Eh
   *** GEOMETRY OPTIMIZATION CONVERGED AFTER 580 ITERATIONS ***

 final structure:
================
90
 xtb: 6.7.1 (edcfbbe)
C           -9.96941389346999        3.36959877869259        1.20630392463583
C           -8.65698155194219        3.32674684196247        1.67141719246077
C           -7.78121546787514        2.33546829448719        1.27164076359806
C           -8.24774053690516        1.38091684819067        0.37874200437268
C           -9.58568702119531        1.40206338941814       -0.07879530734050
C          -10.44680737650690        2.40803684050574        0.33757463276023
C           -9.74188509034261        0.25946266397283       -0.93553080573488
C          -10.80223633422205       -0.23791557272285       -1.68062449489319
C          -10.60362158335461       -1.37752095627733       -2.43505418273640
C           -9.36280490667790       -2.00998353463160       -2.46433821210189
C           -8.29248500743802       -1.53382739228084       -1.73145760669948
C           -8.49276748791539       -0.40325638476714       -0.95182784085345
N           -7.60002869587970        0.28474588848407       -0.15455503914950
C           -6.26058781717026       -0.06659832751619        0.05981744310032
C           -5.25817009815348        0.89767458037440       -0.11563270806827
C           -3.92693532869493        0.58916942944282        0.06908653544138
C           -3.60351242216646       -0.70978292287539        0.43291066783069
C           -4.60578391123795       -1.69294387389917        0.61156689918282
C           -5.93942234392700       -1.36689042130316        0.43173896447837
C           -3.92698123072137       -2.90514535312817        0.97866942099876
C           -4.36417558047854       -4.18361729190022        1.29416379336643
C           -3.42565634232504       -5.13590371700815        1.64291395706022
C           -2.07022056679473       -4.81975729445147        1.69643377377088
C           -1.61089636365779       -3.55388581760704        1.38187732324398
C           -2.54473340754381       -2.60069567044989        1.00223540708879
N           -2.36404462801702       -1.27240617970486        0.65906859503704
C           -1.15558834945470       -0.62536567333223        0.47388467539776
C           -0.10482610815171       -1.22810713501097       -0.18099552157035
N            1.04215496533822       -0.59656570743995       -0.44434078016921
C            1.14855093270805        0.70237476079608       -0.03164792661687
N            2.34847584573982        1.35152068311860       -0.25087942703640
C            2.52430736456586        2.69264063477743       -0.54985158198446
C            1.58408134416164        3.67723601956882       -0.81822228464004
C            2.04195806366310        4.94999468242490       -1.10668300921715
C            3.40272493225602        5.24447668729744       -1.13889156245687
C            4.34608007346794        4.26122721343565       -0.91097593127637
C            3.90958245394705        2.97577494766738       -0.62418759472380
C            4.59429630343635        1.73643196178035       -0.38196945383437
C            5.93197558983548        1.37921125127804       -0.36463365748829
C            6.26129748448111        0.05248613500180       -0.11374841742878
N            7.60592710034822       -0.34110574532644       -0.09587830095845
C            8.61909561703072        0.27507415819582        0.61033713243725
C            8.55942796383154        1.35180503397113        1.48391822048794
C            9.73431983274207        1.75923667887296        2.08651459961999
C           10.94214766712948        1.11100869973892        1.83849462289743
C           11.00351988321022        0.02377206577375        0.98904515614977
C            9.83639643945513       -0.40397508747116        0.37134035773869
C            9.53259288661510       -1.47943272260747       -0.53149775720175
C           10.30130308537751       -2.46414999114587       -1.13681461210452
C            9.68288012647731       -3.35118044680359       -1.99586037429751
C            8.31965229544114       -3.25466187399688       -2.26583694195869
C            7.53371517509498       -2.28341720022886       -1.67561317006676
C            8.14467635498678       -1.40489091639881       -0.79186297019854
C            5.26135791840103       -0.90198269933148        0.12016159733284
C            3.92548279158907       -0.56093472110838        0.09968817366345
C            3.59314983687037        0.76045652268377       -0.16160679664295
C            0.10358757820535        1.29772555873183        0.63970156334035
N           -1.04780160280948        0.66939979336642        0.89374415677456
H          -10.62195543587675        4.16257710404885        1.54010905697089
H           -8.31709086607119        4.08336115814001        2.36312742196431
H           -6.77158597380172        2.30014873660290        1.65186560098532
H          -11.46870902639697        2.43149300858656       -0.00976170943457
H          -11.75909116517439        0.26186028632280       -1.67117569666038
H          -11.41603605716413       -1.78226024432040       -3.02004417982645
H           -9.23293789047399       -2.89005684354249       -3.07682622369125
H           -7.32951097188628       -2.01983014507880       -1.77618458074525
H           -5.54262843388359        1.89206827303505       -0.42406823410203
H           -3.15544530238217        1.33037969424355       -0.06510726838575
H           -6.71724657620185       -2.09751695149859        0.59147675809478
H           -5.41660402385805       -4.42255351664607        1.27374769626516
H           -3.74442936225102       -6.13686248690137        1.89181252590168
H           -1.36224595302379       -5.57821509462571        1.99516534894255
H           -0.56106673679249       -3.31458345393794        1.45043139518136
H           -0.21148016554790       -2.21756358710117       -0.59845184615197
H            0.52761467354569        3.45989425311554       -0.82718028026178
H            1.32711745072751        5.73122087798772       -1.31741368009279
H            3.72030167945087        6.25183563769955       -1.36204299548888
H            5.40154014949657        4.48145435419272       -0.96179774884788
H            6.70409023796590        2.10552537253871       -0.56628425310378
H            7.62490122997558        1.84862209494641        1.69693246731206
H            9.71485564120053        2.59682212376385        2.76812547231168
H           11.83910044254894        1.46154731459386        2.32700876867149
H           11.93666555469388       -0.48846804540281        0.80931891857392
H           11.36104837746703       -2.52803541079974       -0.94105195478074
H           10.26217033628491       -4.12617266084314       -2.47530570559943
H            7.86723033178601       -3.95216625935315       -2.95523043307057
H            6.48202905627972       -2.20498311927246       -1.90568235812776
H            5.55426109872237       -1.91770657997224        0.33785409685606
H            3.15660335172903       -1.29630325655776        0.27422457208783
H            0.21497193195346        2.27836032985961        1.07565227433010

 projected vibrational frequencies (cm⁻¹)
eigval :       -0.00    -0.00    -0.00    -0.00     0.00     0.00
eigval :        5.98     9.46    12.82    18.30    27.63    28.81
eigval :       31.95    38.78    46.56    56.07    68.17    78.52
eigval :       98.75   100.87   103.17   105.95   118.35   126.27
eigval :      136.79   140.84   142.96   145.33   150.68   156.43
eigval :      174.54   202.43   214.04   230.51   248.50   260.46
eigval :      269.57   272.40   273.41   276.51   283.67   291.96
eigval :      318.14   334.86   345.30   357.02   362.03   380.56
eigval :      392.53   395.78   397.75   399.09   411.47   420.58
eigval :      422.24   424.11   424.94   432.47   435.30   437.21
eigval :      439.32   464.93   467.39   500.65   517.49   517.69
eigval :      529.02   530.63   531.80   538.90   540.01   540.48
eigval :      540.78   553.49   554.53   559.23   560.57   587.45
eigval :      587.52   594.73   594.86   600.68   618.13   622.34
eigval :      629.53   630.86   637.62   663.99   674.14   674.16
eigval :      679.53   679.88   692.20   705.70   706.66   708.61
eigval :      709.61   713.79   744.26   755.29   755.35   769.68
eigval :      769.71   770.66   772.13   780.44   780.53   791.83
eigval :      792.57   797.50   799.67   824.80   825.04   865.20
eigval :      865.65   872.67   872.74   876.05   876.43   881.55
eigval :      882.97   888.02   894.25   897.01   897.83   901.31
eigval :      901.48   901.76   904.37   904.45   905.37   905.79
eigval :      912.21   912.32   921.99   922.08   922.72   922.92
eigval :      924.06   924.21   949.33   966.65   972.49   988.04
eigval :     1012.15  1012.21  1026.00  1026.65  1057.15  1070.11
eigval :     1070.16  1071.11  1073.09  1073.65  1073.98  1104.14
eigval :     1108.31  1116.41  1122.63  1143.42  1144.84  1151.07
eigval :     1151.26  1167.48  1172.74  1172.93  1177.54  1179.60
eigval :     1180.72  1180.79  1183.79  1183.98  1187.73  1211.01
eigval :     1219.74  1220.63  1225.65  1235.44  1236.11  1239.89
eigval :     1242.05  1245.80  1260.75  1272.74  1273.77  1291.05
eigval :     1294.01  1297.54  1300.82  1302.36  1303.36  1304.90
eigval :     1343.04  1344.00  1355.15  1355.49  1357.45  1357.56
eigval :     1359.28  1359.45  1365.20  1365.84  1379.52  1393.20
eigval :     1408.46  1415.41  1416.68  1424.78  1424.83  1429.09
eigval :     1434.68  1441.79  1450.13  1468.28  1468.41  1472.96
eigval :     1473.52  1485.70  1486.41  1487.52  1487.61  1511.31
eigval :     1558.01  1559.13  1572.37  1573.32  1574.36  1578.93
eigval :     1584.06  1585.47  1587.79  1587.84  1594.96  1595.17
eigval :     1596.76  1600.03  1611.41  1612.10  3077.01  3077.09
eigval :     3077.59  3077.68  3077.86  3080.23  3082.12  3082.17
eigval :     3082.24  3082.47  3083.71  3083.74  3087.40  3087.99
eigval :     3089.26  3089.39  3091.43  3091.50  3094.86  3095.16
eigval :     3095.24  3095.87  3095.91  3096.16  3097.07  3097.52
eigval :     3098.59  3098.86  3100.75  3102.13  3107.47  3107.68

   temp. (K)  partition function   enthalpy   heat capacity  entropy
                                   cal/mol     cal/K/mol   cal/K/mol   J/K/mol
 298.15  VIB  0.563E+20            25524.349    165.867    157.202
         ROT  0.197E+09              888.752      2.981     40.939
         INT  0.111E+29            26413.101    168.848    198.141
         TR   0.195E+29             1481.254      4.968     45.667
         TOT                       27894.3549   173.8162   243.8077  1020.0913

       T/K    H(0)-H(T)+PV         H(T)/Eh          T*S/Eh         G(T)/Eh
   ------------------------------------------------------------------------
    298.15    0.444525E-01    0.722556E+00    0.115841E+00    0.606715E+00
   ------------------------------------------------------------------------

         :::::::::::::::::::::::::::::::::::::::::::::::::::::
         ::                  THERMODYNAMIC                  ::
         :::::::::::::::::::::::::::::::::::::::::::::::::::::
         :: total free energy        -144.684445323467 Eh   ::
         ::.................................................::
         :: total energy             -145.291160300278 Eh   ::
         :: zero point energy           0.678103383474 Eh   ::
         :: G(RRHO) w/o ZPVE           -0.071388406664 Eh   ::
         :: G(RRHO) contrib.            0.606714976811 Eh   ::
         :::::::::::::::::::::::::::::::::::::::::::::::::::::

           -------------------------------------------------
          | TOTAL ENERGY             -145.291160300278 Eh   |
          | TOTAL ENTHALPY           -144.568604432780 Eh   |
          | TOTAL FREE ENERGY        -144.684445323467 Eh   |
          | GRADIENT NORM               0.000078164281 Eh/α |
           -------------------------------------------------

 * finished run on 2025/08/21 at 19:17:37.567
