   * xtb version 6.7.1 (edcfbbe) compiled by 'albert@albert-system' on 2024-07-22

   ID    Z sym.   atoms
    1    6 C      1-16, 18-23, 25-33, 35, 36
    2    7 N      17, 34
    3    8 O      24
    4    1 H      37-58

          program call               : xtb data2507/gas/PhQLPXZ/PhQLPXZ_gas_S0_crest.xyz --gfn 2 --ohess vtight --parallel 40 --molden --ceasefiles --namespace data2507/gas/PhQLPXZ/PhQLPXZ_gas_S0_finalOpt
          :  Hamiltonian                  GFN2-xTB          :
 * total energy  :   -91.8155165 Eh     change       -0.3552174E-08 Eh
 * total energy  :   -91.8155175 Eh     change       -0.9882944E-06 Eh
 * total energy  :   -91.8155180 Eh     change       -0.5391928E-06 Eh
 * total energy  :   -91.8155195 Eh     change       -0.1475199E-05 Eh
 * total energy  :   -91.8155206 Eh     change       -0.1120616E-05 Eh
 * total energy  :   -91.8155213 Eh     change       -0.6683691E-06 Eh
 * total energy  :   -91.8155217 Eh     change       -0.3864218E-06 Eh
 * total energy  :   -91.8155220 Eh     change       -0.3206344E-06 Eh
 * total energy  :   -91.8155224 Eh     change       -0.3529407E-06 Eh
 * total energy  :   -91.8155228 Eh     change       -0.3875725E-06 Eh
 * total energy  :   -91.8155242 Eh     change       -0.2384991E-06 Eh
 * total energy  :   -91.8155244 Eh     change       -0.2420984E-06 Eh
 * total energy  :   -91.8155247 Eh     change       -0.2236816E-06 Eh
 * total energy  :   -91.8155248 Eh     change       -0.1650330E-06 Eh
 * total energy  :   -91.8155249 Eh     change       -0.1121781E-06 Eh
 * total energy  :   -91.8155251 Eh     change       -0.1163030E-06 Eh
 * total energy  :   -91.8155252 Eh     change       -0.1505534E-06 Eh
 * total energy  :   -91.8155254 Eh     change       -0.1706861E-06 Eh
 * total energy  :   -91.8155254 Eh     change       -0.7489405E-09 Eh
   *** GEOMETRY OPTIMIZATION CONVERGED AFTER 22 ITERATIONS ***

 final structure:
================
58
 xtb: 6.7.1 (edcfbbe)
C            7.81608895369585        1.59147941765594        0.46264626362915
C            6.88144916475731        2.18559390313507        1.29570616443718
C            5.54732143899867        1.84414690933437        1.19480258965505
C            5.12634342637474        0.89591866518303        0.26310539779987
C            3.69941458440163        0.55631856219041        0.18331568256071
C            3.26847239084186       -0.70595717827452       -0.28367807757111
C            1.92800869354320       -0.99946225748291       -0.34573747334375
C            1.48155712100196       -2.33746689924439       -0.76666289132899
C            1.94211404614300       -2.88556578507133       -1.96013750522839
C            1.53698916161217       -4.14777956301456       -2.35338749822944
C            0.67511281471579       -4.88175668054587       -1.55563714083104
C            0.22274207769483       -4.34961226521166       -0.35965342974480
C            0.62180110510611       -3.08575133901917        0.03363108946540
C            0.99962668436635        0.01062641869551        0.02928839629535
C           -0.39391532309553       -0.12758903398785       -0.08594669829525
C           -1.23300912334999        0.87462485667897        0.33838851863985
N           -2.63262082477020        0.71437602879402        0.24935300052116
C           -3.27695438526868       -0.31098119631012        0.94456903873319
C           -2.60021484982272       -1.16998058425303        1.80128815373799
C           -3.27093701507993       -2.17985928391514        2.47410969756143
C           -4.63150211038611       -2.34173343825383        2.31191061598157
C           -5.32879490184079       -1.47034447143109        1.48793722058594
C           -4.66477595337318       -0.46043465237312        0.81735403041908
O           -5.42966003483684        0.38263236236368        0.05001017782624
C           -4.78103219149092        1.38670825188497       -0.62600887154282
C           -5.55898034173372        2.22030723081183       -1.40688905568300
C           -4.97186844022999        3.23767026109798       -2.14531662341075
C           -3.60201572457567        3.39891056735324       -2.11082548945212
C           -2.81692420373114        2.56588493325349       -1.32788900652595
C           -3.39281453250549        1.56511432938401       -0.55546752834811
C           -0.70260991978883        2.06545466059767        0.87721116545201
C            0.64740504555200        2.24438855294891        0.95544664098466
C            1.53460976605074        1.23289174486058        0.52420181042490
N            2.85231832507353        1.47217777771695        0.59750288368663
C            6.07171047221405        0.31165690039960       -0.57690244495774
C            7.40605409602803        0.65969002359711       -0.47615527195556
H            8.86007476240059        1.85736080470504        0.54055622892380
H            7.19684190493192        2.91749171323883        2.02498057395876
H            4.80650813310875        2.29977504448792        1.83298595122004
H            3.99363882311814       -1.46344365746581       -0.53930019495384
H            2.60578357646793       -2.30792546375278       -2.58770426982284
H            1.89471185739348       -4.56023597502347       -3.28545839576572
H            0.35927240853344       -5.86740486246419       -1.86358004281374
H           -0.44394342350336       -4.92034130085654        0.26996062580242
H            0.28372016036153       -2.68272407228805        0.97730933881594
H           -0.80870848233928       -1.02677136589304       -0.51791744062600
H           -1.54044189948707       -1.03985834136038        1.95422154733135
H           -2.71712420874564       -2.83487248502725        3.12934412306122
H           -5.15800346807639       -3.12902699910055        2.82790355975977
H           -6.39572236939270       -1.55428657331372        1.35617105057016
H           -6.62405775997640        2.05322068695194       -1.42782659246051
H           -5.58752544932263        3.88583984036178       -2.74873432479989
H           -3.12788386373683        4.17228964040260       -2.69540016391878
H           -1.74557213433211        2.69231959496081       -1.32368083535340
H           -1.38426617229067        2.82980636775091        1.22065565334556
H            1.07396846609323        3.15463683485406        1.34627903903497
H            5.76552987397035       -0.39975704242109       -1.32973929666275
H            8.13008160363218        0.20349206460321       -1.13577766439478

          :  Hamiltonian                  GFN2-xTB          :
         :: gradient norm              0.000020010748 Eh/a0 ::
         :: HOMO-LUMO gap              1.545362425692 eV    ::
         :: SCC energy               -93.487760603455 Eh    ::
         :: -> dispersion             -0.077824778203 Eh    ::
         :: repulsion energy           1.672235226744 Eh    ::

    * Orbital Energies and Occupations

         #    Occupation            Energy/Eh            Energy/eV
      -------------------------------------------------------------
         1        2.0000           -0.7244353             -19.7129
       ...           ...                  ...                  ...
        73        2.0000           -0.4239430             -11.5361
        74        2.0000           -0.4200186             -11.4293
        75        2.0000           -0.4188402             -11.3972
        76        2.0000           -0.4127529             -11.2316
        77        2.0000           -0.4123772             -11.2214
        78        2.0000           -0.4104722             -11.1695
        79        2.0000           -0.4092024             -11.1350
        80        2.0000           -0.4061824             -11.0528
        81        2.0000           -0.3967094             -10.7950
        82        2.0000           -0.3905887             -10.6285
        83        2.0000           -0.3854412             -10.4884
        84        2.0000           -0.3649188              -9.9299
        85        2.0000           -0.3395379              -9.2393 (HOMO)
        86                         -0.2827469              -7.6939 (LUMO)
        87                         -0.2525766              -6.8730
        88                         -0.2352881              -6.4025
        89                         -0.2332354              -6.3467
        90                         -0.2305716              -6.2742
        91                         -0.2265731              -6.1654
        92                         -0.2237275              -6.0879
        93                         -0.2214171              -6.0251
        94                         -0.2095257              -5.7015
        95                         -0.1942167              -5.2849
        96                         -0.1922870              -5.2324
       ...                                ...                  ...
       166                          0.6991484              19.0248
      -------------------------------------------------------------
                  HL-Gap            0.0567910 Eh            1.5454 eV

     #   Z          covCN         q      C6AA      α(0)
     1   6 C        2.920    -0.028    28.696     8.785
     2   6 C        2.918    -0.028    28.695     8.784
     3   6 C        2.926    -0.026    28.653     8.778
     4   6 C        2.981     0.006    27.878     8.661
     5   6 C        2.951     0.097    25.842     8.338
     6   6 C        2.920    -0.052    29.301     8.877
     7   6 C        2.977     0.018    27.604     8.618
     8   6 C        2.978     0.010    27.791     8.647
     9   6 C        2.925    -0.032    28.795     8.800
    10   6 C        2.919    -0.028    28.707     8.786
    11   6 C        2.920    -0.029    28.723     8.789
    12   6 C        2.919    -0.029    28.713     8.787
    13   6 C        2.924    -0.030    28.757     8.794
    14   6 C        2.986    -0.005    28.151     8.703
    15   6 C        2.919    -0.049    29.212     8.863
    16   6 C        2.918     0.063    26.595     8.457
    17   7 N        2.752    -0.071    22.622     7.064
    18   6 C        2.922     0.043    27.043     8.528
    19   6 C        2.924    -0.060    29.483     8.904
    20   6 C        2.919    -0.039    28.969     8.826
    21   6 C        2.919    -0.041    29.018     8.834
    22   6 C        2.920    -0.057    29.405     8.892
    23   6 C        2.884     0.124    25.268     8.241
    24   8 O        1.709    -0.256    18.246     5.767
    25   6 C        2.884     0.124    25.275     8.242
    26   6 C        2.920    -0.057    29.405     8.892
    27   6 C        2.919    -0.041    29.010     8.832
    28   6 C        2.919    -0.039    28.966     8.826
    29   6 C        2.924    -0.060    29.491     8.906
    30   6 C        2.923     0.043    27.038     8.527
    31   6 C        2.917    -0.039    28.976     8.827
    32   6 C        2.921    -0.040    28.987     8.829
    33   6 C        2.964     0.088    26.049     8.372
    34   7 N        1.852    -0.248    27.320     7.747
    35   6 C        2.923    -0.032    28.801     8.801
    36   6 C        2.919    -0.030    28.738     8.791
    37   1 H        0.926     0.032     2.554     2.499
    38   1 H        0.926     0.034     2.532     2.488
    39   1 H        0.926     0.053     2.277     2.359
    40   1 H        0.926     0.034     2.528     2.487
    41   1 H        0.926     0.031     2.571     2.507
    42   1 H        0.926     0.033     2.549     2.496
    43   1 H        0.926     0.033     2.549     2.497
    44   1 H        0.926     0.033     2.541     2.493
    45   1 H        0.926     0.032     2.553     2.499
    46   1 H        0.926     0.042     2.418     2.432
    47   1 H        0.926     0.032     2.562     2.503
    48   1 H        0.926     0.034     2.533     2.489
    49   1 H        0.926     0.037     2.492     2.469
    50   1 H        0.926     0.049     2.326     2.385
    51   1 H        0.926     0.049     2.327     2.386
    52   1 H        0.926     0.037     2.488     2.466
    53   1 H        0.926     0.035     2.511     2.478
    54   1 H        0.926     0.035     2.516     2.480
    55   1 H        0.926     0.044     2.395     2.420
    56   1 H        0.926     0.056     2.244     2.342
    57   1 H        0.926     0.031     2.575     2.509
    58   1 H        0.926     0.031     2.569     2.506

molecular dipole:
                 x           y           z       tot (Debye)
 q only:        0.665      -0.238      -0.045
   full:        0.617      -0.603      -0.205       2.254

 projected vibrational frequencies (cm⁻¹)
eigval :       -0.00    -0.00    -0.00    -0.00    -0.00     0.00
eigval :       15.12    21.22    22.54    32.66    40.74    51.29
eigval :       51.90    63.28    79.52    84.44   115.13   136.60
eigval :      143.98   169.27   187.27   224.72   227.46   244.92
eigval :      250.51   256.34   266.30   282.47   319.00   342.76
eigval :      365.66   369.47   373.20   384.41   398.32   410.25
eigval :      423.62   430.52   441.20   458.26   468.10   508.13
eigval :      510.41   518.32   527.83   548.69   555.15   564.42
eigval :      583.06   585.73   590.54   595.49   620.23   631.69
eigval :      653.84   658.21   660.73   661.37   674.23   675.06
eigval :      682.11   738.63   756.04   761.70   773.11   778.37
eigval :      778.89   807.16   830.14   851.69   854.80   862.68
eigval :      863.91   865.79   870.48   875.41   879.28   891.24
eigval :      896.42   897.64   903.47   909.64   914.11   915.21
eigval :      918.01   928.35   929.80   931.66   932.36   933.29
eigval :      936.83   984.74   988.07  1008.24  1082.50  1083.33
eigval :     1090.40  1091.38  1101.45  1108.09  1115.39  1119.85
eigval :     1122.64  1140.26  1156.74  1174.65  1175.91  1181.22
eigval :     1181.79  1185.83  1197.98  1198.97  1201.53  1213.92
eigval :     1230.62  1234.96  1243.80  1262.05  1271.07  1278.76
eigval :     1283.01  1294.20  1311.03  1316.32  1323.27  1331.52
eigval :     1341.99  1350.79  1355.52  1376.04  1399.80  1423.45
eigval :     1429.16  1432.70  1442.03  1449.71  1475.51  1478.87
eigval :     1489.30  1490.03  1505.18  1530.22  1557.78  1567.07
eigval :     1580.81  1581.47  1583.16  1589.87  1598.01  1598.22
eigval :     1600.14  1604.68  3071.65  3072.86  3075.73  3076.31
eigval :     3081.65  3083.23  3084.40  3085.52  3086.31  3087.27
eigval :     3088.44  3089.60  3091.87  3095.15  3097.90  3098.13
eigval :     3104.64  3105.45  3106.32  3107.07  3112.23  3112.79

   temp. (K)  partition function   enthalpy   heat capacity  entropy
                                   cal/mol     cal/K/mol   cal/K/mol   J/K/mol
 298.15  VIB  0.725E+12            15742.819    102.079     96.471
         ROT  0.355E+08              888.752      2.981     37.527
         INT  0.257E+20            16631.571    105.060    133.998
         TR   0.962E+28             1481.254      4.968     44.263
         TOT                       18112.8251   110.0282   178.2612   745.8448

       T/K    H(0)-H(T)+PV         H(T)/Eh          T*S/Eh         G(T)/Eh
   ------------------------------------------------------------------------
    298.15    0.288646E-01    0.471456E+00    0.846976E-01    0.386759E+00
   ------------------------------------------------------------------------

         :::::::::::::::::::::::::::::::::::::::::::::::::::::
         ::                  THERMODYNAMIC                  ::
         :::::::::::::::::::::::::::::::::::::::::::::::::::::
         :: total free energy         -91.428766606298 Eh   ::
         ::.................................................::
         :: total energy              -91.815525376711 Eh   ::
         :: zero point energy           0.442591789001 Eh   ::
         :: G(RRHO) w/o ZPVE           -0.055833018588 Eh   ::
         :: G(RRHO) contrib.            0.386758770413 Eh   ::
         :::::::::::::::::::::::::::::::::::::::::::::::::::::

           -------------------------------------------------
          | TOTAL ENERGY              -91.815525376711 Eh   |
          | TOTAL ENTHALPY            -91.344068963662 Eh   |
          | TOTAL FREE ENERGY         -91.428766606298 Eh   |
          | GRADIENT NORM               0.000020014312 Eh/α |
          | HOMO-LUMO GAP               1.545361683731 eV   |
           -------------------------------------------------

 * finished run on 2025/07/18 at 16:32:04.802
