   * xtb version 6.7.1 (edcfbbe) compiled by 'albert@albert-system' on 2024-07-22

   ID    Z sym.   atoms
    1    6 C      1-16, 18-23, 25-33, 35, 36
    2    7 N      17, 34
    3    8 O      24
    4    1 H      37-58

          program call               : xtb data2507/gas/PhQLPXZ/PhQLPXZ.xyz --gfn 2 --ohess vtight --parallel 40 --molden --ceasefiles --namespace data2507/gas/PhQLPXZ/PhQLPXZ_gas_S0_preOpt
          :  Hamiltonian                  GFN2-xTB          :
 * total energy  :   -91.7982173 Eh     change       -0.3371738E-08 Eh
 * total energy  :   -91.8081238 Eh     change       -0.9906514E-02 Eh
 * total energy  :   -91.8112167 Eh     change       -0.3092868E-02 Eh
 * total energy  :   -91.8120216 Eh     change       -0.8049201E-03 Eh
 * total energy  :   -91.8124565 Eh     change       -0.4349338E-03 Eh
 * total energy  :   -91.8125348 Eh     change       -0.7824059E-04 Eh
 * total energy  :   -91.8125642 Eh     change       -0.2946171E-04 Eh
 * total energy  :   -91.8125837 Eh     change       -0.1946503E-04 Eh
 * total energy  :   -91.8126028 Eh     change       -0.1909947E-04 Eh
 * total energy  :   -91.8126434 Eh     change       -0.4057966E-04 Eh
 * total energy  :   -91.8154302 Eh     change       -0.2796539E-06 Eh
 * total energy  :   -91.8154304 Eh     change       -0.2314839E-06 Eh
 * total energy  :   -91.8154306 Eh     change       -0.2066331E-06 Eh
 * total energy  :   -91.8154308 Eh     change       -0.2097938E-06 Eh
 * total energy  :   -91.8154311 Eh     change       -0.2283042E-06 Eh
 * total energy  :   -91.8154314 Eh     change       -0.2874264E-06 Eh
 * total energy  :   -91.8154317 Eh     change       -0.3932935E-06 Eh
 * total energy  :   -91.8154322 Eh     change       -0.4399135E-06 Eh
 * total energy  :   -91.8154322 Eh     change       -0.2057192E-08 Eh
   *** GEOMETRY OPTIMIZATION CONVERGED AFTER 94 ITERATIONS ***

 final structure:
================
58
 xtb: 6.7.1 (edcfbbe)
C            7.66463600580152        1.63480642748080        0.07934953806799
C            7.27325105951597        0.35318791739965        0.42847006359954
C            5.93418833293919        0.00837854283228        0.43029866390146
C            4.96521472624991        0.94700363286051        0.08282646924966
C            3.53217878291096        0.62310364175352        0.07011138771587
C            3.07673052926158       -0.69596434525606       -0.15143741306462
C            1.73124086040639       -0.97221755656497       -0.15322671415581
C            1.26107795542199       -2.35572817624233       -0.33405411290624
C            1.69212642867312       -3.10351395347866       -1.42571073396476
C            1.26458400365547       -4.40783524597122       -1.59316639201831
C            0.41028271289766       -4.98417182592917       -0.66796864759038
C           -0.01181667703278       -4.25179974403857        0.42914028352169
C            0.40926364313693       -2.94556219374418        0.59650746943577
C            0.82204377538842        0.10513542767463        0.03358268415556
C           -0.57513984169592       -0.03242649414365       -0.02812040590509
C           -1.39405408643469        1.05033177024962        0.18382713159958
N           -2.79702495480996        0.89463999481851        0.15920965694595
C           -3.43670055485641        0.06651378868856        1.08368534814281
C           -2.74892613938612       -0.59212925803082        2.09510285449500
C           -3.41639054301583       -1.40706335601267        2.99673783031011
C           -4.78376309648531       -1.56953057367158        2.91025418194762
C           -5.49042574178678       -0.89316972131322        1.92652874049603
C           -4.82978257007175       -0.07761887104308        1.02716988886484
O           -5.60269236564907        0.58433583432969        0.10552827646460
C           -4.95760270490994        1.39202242638592       -0.79857606213195
C           -5.74306934793243        2.03874916443368       -1.73373469893080
C           -5.16027355398937        2.84745785065321       -2.69889481964598
C           -3.78793191338463        2.98652059051747       -2.73103343745652
C           -2.99516454587577        2.34046169273492       -1.79430201226238
C           -3.56563621733546        1.55420436455651       -0.80131033717643
C           -0.84030549607535        2.32177289023700        0.44125858344898
C            0.51295291833513        2.49151093656997        0.46165490229709
C            1.38016239991992        1.39597210337048        0.25132247647998
N            2.70202509356193        1.62300221655386        0.26779702928621
C            5.36867082332465        2.23922850553136       -0.25190660085850
C            6.70715392898811        2.57848335703084       -0.25700821751069
H            8.71213103922026        1.89824432557778        0.07512807623971
H            8.01579452323280       -0.38176997949928        0.70395171362533
H            5.64525980021446       -0.98868169837314        0.72861082605515
H            3.78565721834137       -1.49328971707353       -0.31404309827722
H            2.35095970689313       -2.64973989911061       -2.15237144685177
H            1.59916748882431       -4.97653946085853       -2.44840998078344
H            0.07691473055160       -6.00280530216527       -0.79968833979460
H           -0.67201496180639       -4.69872262964663        1.15786765861015
H            0.09451611627182       -2.38431208334253        1.46452073751761
H           -1.00927985127898       -0.99656983317299       -0.24936383881138
H           -1.68281257126911       -0.45626164755927        2.18729851787020
H           -2.85442508486490       -1.90901383653372        3.76960299650402
H           -5.30792852021057       -2.20594622265690        3.60560095643362
H           -6.56197364313775       -0.98079731332814        1.84375519773779
H           -6.81063062392217        1.89247342272558       -1.69297586687401
H           -5.78171964872582        3.35107839965871       -3.42239491014802
H           -3.31806176845879        3.59611003819318       -3.48752828396010
H           -1.92231936453840        2.44414298633656       -1.84070739804583
H           -1.50672178962258        3.15313091989448        0.61896228489833
H            0.95774290288239        3.45709301883027        0.64351945130230
H            4.61062183103060        2.96285846193036       -0.50786811499458
H            7.00804484072240        3.58122428893063       -0.52337899312891

          :  Hamiltonian                  GFN2-xTB          :
         :: gradient norm              0.000034280844 Eh/a0 ::
         :: HOMO-LUMO gap              1.543332243287 eV    ::
         :: SCC energy               -93.487660724022 Eh    ::
         :: -> dispersion             -0.077648208943 Eh    ::
         :: repulsion energy           1.672228537075 Eh    ::

    * Orbital Energies and Occupations

         #    Occupation            Energy/Eh            Energy/eV
      -------------------------------------------------------------
         1        2.0000           -0.7243172             -19.7097
       ...           ...                  ...                  ...
        73        2.0000           -0.4236051             -11.5269
        74        2.0000           -0.4214262             -11.4676
        75        2.0000           -0.4182329             -11.3807
        76        2.0000           -0.4126753             -11.2295
        77        2.0000           -0.4123355             -11.2202
        78        2.0000           -0.4104875             -11.1699
        79        2.0000           -0.4091641             -11.1339
        80        2.0000           -0.4062433             -11.0544
        81        2.0000           -0.3966871             -10.7944
        82        2.0000           -0.3907625             -10.6332
        83        2.0000           -0.3856036             -10.4928
        84        2.0000           -0.3647446              -9.9252
        85        2.0000           -0.3394344              -9.2365 (HOMO)
        86                         -0.2827180              -7.6931 (LUMO)
        87                         -0.2524420              -6.8693
        88                         -0.2351865              -6.3998
        89                         -0.2329619              -6.3392
        90                         -0.2305928              -6.2747
        91                         -0.2264960              -6.1633
        92                         -0.2237855              -6.0895
        93                         -0.2213889              -6.0243
        94                         -0.2095727              -5.7028
        95                         -0.1951307              -5.3098
        96                         -0.1922300              -5.2308
       ...                                ...                  ...
       166                          0.6992534              19.0277
      -------------------------------------------------------------
                  HL-Gap            0.0567164 Eh            1.5433 eV

     #   Z          covCN         q      C6AA      α(0)
     1   6 C        2.920    -0.028    28.696     8.785
     2   6 C        2.919    -0.029    28.737     8.791
     3   6 C        2.923    -0.032    28.802     8.801
     4   6 C        2.981     0.006    27.876     8.661
     5   6 C        2.951     0.097    25.842     8.338
     6   6 C        2.920    -0.052    29.298     8.876
     7   6 C        2.977     0.018    27.600     8.618
     8   6 C        2.978     0.010    27.792     8.648
     9   6 C        2.925    -0.032    28.799     8.801
    10   6 C        2.919    -0.028    28.705     8.786
    11   6 C        2.920    -0.029    28.725     8.789
    12   6 C        2.919    -0.029    28.716     8.788
    13   6 C        2.924    -0.031    28.763     8.795
    14   6 C        2.986    -0.006    28.152     8.703
    15   6 C        2.919    -0.049    29.214     8.863
    16   6 C        2.918     0.063    26.593     8.456
    17   7 N        2.752    -0.071    22.626     7.065
    18   6 C        2.922     0.043    27.042     8.528
    19   6 C        2.924    -0.060    29.486     8.905
    20   6 C        2.919    -0.039    28.969     8.826
    21   6 C        2.919    -0.041    29.019     8.834
    22   6 C        2.920    -0.057    29.405     8.892
    23   6 C        2.884     0.124    25.268     8.241
    24   8 O        1.709    -0.256    18.247     5.767
    25   6 C        2.884     0.124    25.275     8.242
    26   6 C        2.920    -0.057    29.406     8.893
    27   6 C        2.919    -0.041    29.012     8.833
    28   6 C        2.919    -0.039    28.967     8.826
    29   6 C        2.924    -0.060    29.491     8.906
    30   6 C        2.923     0.043    27.037     8.527
    31   6 C        2.917    -0.039    28.972     8.827
    32   6 C        2.921    -0.040    28.986     8.829
    33   6 C        2.964     0.088    26.048     8.371
    34   7 N        1.852    -0.248    27.325     7.747
    35   6 C        2.927    -0.026    28.651     8.778
    36   6 C        2.918    -0.028    28.696     8.784
    37   1 H        0.926     0.032     2.553     2.499
    38   1 H        0.926     0.031     2.568     2.506
    39   1 H        0.926     0.031     2.569     2.507
    40   1 H        0.926     0.034     2.527     2.486
    41   1 H        0.926     0.032     2.564     2.504
    42   1 H        0.926     0.033     2.548     2.496
    43   1 H        0.926     0.033     2.550     2.497
    44   1 H        0.926     0.033     2.541     2.493
    45   1 H        0.926     0.033     2.551     2.498
    46   1 H        0.926     0.043     2.414     2.430
    47   1 H        0.926     0.032     2.561     2.503
    48   1 H        0.926     0.034     2.532     2.488
    49   1 H        0.926     0.037     2.492     2.469
    50   1 H        0.926     0.049     2.327     2.385
    51   1 H        0.926     0.049     2.328     2.386
    52   1 H        0.926     0.037     2.488     2.467
    53   1 H        0.926     0.035     2.513     2.479
    54   1 H        0.926     0.035     2.522     2.483
    55   1 H        0.926     0.044     2.395     2.420
    56   1 H        0.926     0.056     2.242     2.342
    57   1 H        0.926     0.053     2.282     2.362
    58   1 H        0.926     0.034     2.532     2.488

molecular dipole:
                 x           y           z       tot (Debye)
 q only:        0.670      -0.244      -0.112
   full:        0.618      -0.637      -0.162       2.293

 projected vibrational frequencies (cm⁻¹)
eigval :       -0.00    -0.00     0.00     0.00     0.00     0.00
eigval :       14.86    21.22    22.00    32.56    40.50    50.51
eigval :       52.12    61.62    78.03    86.73   114.14   137.07
eigval :      144.39   173.69   176.45   219.31   233.95   247.62
eigval :      252.04   262.24   265.67   276.31   315.85   336.93
eigval :      361.68   368.88   372.50   396.18   397.57   417.66
eigval :      424.60   430.79   437.45   447.93   472.18   510.29
eigval :      510.52   517.10   527.01   549.02   557.09   562.12
eigval :      582.74   586.79   589.96   595.46   620.67   629.31
eigval :      654.32   659.60   660.61   661.30   674.10   675.35
eigval :      682.01   739.14   756.76   764.09   770.31   778.32
eigval :      778.78   806.92   829.74   851.69   854.71   862.28
eigval :      863.70   865.33   870.53   875.64   879.47   891.05
eigval :      896.26   897.66   903.46   910.06   914.02   915.17
eigval :      918.02   928.52   929.32   931.98   932.37   933.25
eigval :      937.16   984.81   988.01  1008.26  1082.63  1083.48
eigval :     1090.25  1091.25  1100.97  1108.10  1115.37  1120.34
eigval :     1122.70  1140.33  1156.76  1174.71  1175.98  1181.20
eigval :     1181.80  1185.84  1198.02  1199.92  1201.40  1214.05
eigval :     1230.68  1235.30  1243.76  1261.95  1270.51  1279.63
eigval :     1283.12  1294.34  1311.07  1315.93  1323.05  1331.60
eigval :     1342.15  1350.90  1355.67  1375.92  1400.02  1423.50
eigval :     1429.00  1432.57  1442.04  1449.76  1475.38  1479.00
eigval :     1489.50  1490.20  1505.30  1530.66  1558.18  1567.02
eigval :     1580.83  1581.43  1583.22  1589.91  1598.01  1598.20
eigval :     1600.25  1604.80  3071.78  3073.07  3075.14  3076.40
eigval :     3081.40  3083.43  3084.73  3085.97  3086.55  3087.05
eigval :     3088.26  3090.14  3092.47  3095.03  3097.77  3097.91
eigval :     3104.35  3105.10  3105.63  3107.11  3112.20  3112.77

   temp. (K)  partition function   enthalpy   heat capacity  entropy
                                   cal/mol     cal/K/mol   cal/K/mol   J/K/mol
 298.15  VIB  0.797E+12            15752.186    102.045     96.572
         ROT  0.355E+08              888.752      2.981     37.528
         INT  0.282E+20            16640.938    105.026    134.099
         TR   0.962E+28             1481.254      4.968     44.263
         TOT                       18122.1924   109.9938   178.3624   746.2685

       T/K    H(0)-H(T)+PV         H(T)/Eh          T*S/Eh         G(T)/Eh
   ------------------------------------------------------------------------
    298.15    0.288796E-01    0.471457E+00    0.847458E-01    0.386711E+00
   ------------------------------------------------------------------------

         :::::::::::::::::::::::::::::::::::::::::::::::::::::
         ::                  THERMODYNAMIC                  ::
         :::::::::::::::::::::::::::::::::::::::::::::::::::::
         :: total free energy         -91.428720864787 Eh   ::
         ::.................................................::
         :: total energy              -91.815432186947 Eh   ::
         :: zero point energy           0.442577521152 Eh   ::
         :: G(RRHO) w/o ZPVE           -0.055866198992 Eh   ::
         :: G(RRHO) contrib.            0.386711322160 Eh   ::
         :::::::::::::::::::::::::::::::::::::::::::::::::::::

           -------------------------------------------------
          | TOTAL ENERGY              -91.815432186947 Eh   |
          | TOTAL ENTHALPY            -91.343975113928 Eh   |
          | TOTAL FREE ENERGY         -91.428720864787 Eh   |
          | GRADIENT NORM               0.000034275486 Eh/α |
          | HOMO-LUMO GAP               1.543331764837 eV   |
           -------------------------------------------------

 * finished run on 2025/07/18 at 16:29:52.901
