   * xtb version 6.7.1 (edcfbbe) compiled by 'albert@albert-system' on 2024-07-22

   ID    Z sym.   atoms
    1    6 C      1-16, 18-23, 25-33, 35, 36
    2    7 N      17, 34
    3    8 O      24
    4    1 H      37-58

          program call               : xtb data2507/gas/PhQLPXZ/PhQLPXZ_gas_T1_crest.xyz --gfn 2 --spinpol --tblite --uhf 2 --ohess vtight --parallel 40 --molden --ceasefiles --namespace data2507/gas/PhQLPXZ/PhQLPXZ_gas_T1_finalOpt
 * total energy  :   -91.7447887 Eh     change       -0.4422603E-08 Eh
 * total energy  :   -91.7448327 Eh     change       -0.4402988E-04 Eh
 * total energy  :   -91.7448530 Eh     change       -0.2026639E-04 Eh
 * total energy  :   -91.7448554 Eh     change       -0.2458287E-05 Eh
 * total energy  :   -91.7448569 Eh     change       -0.1449007E-05 Eh
 * total energy  :   -91.7448566 Eh     change        0.2406217E-06 Eh
 * total energy  :   -91.7448578 Eh     change       -0.1157947E-05 Eh
 * total energy  :   -91.7448589 Eh     change       -0.1118455E-05 Eh
 * total energy  :   -91.7448602 Eh     change       -0.1291609E-05 Eh
 * total energy  :   -91.7448615 Eh     change       -0.1317863E-05 Eh
 * total energy  :   -91.7448648 Eh     change       -0.9653826E-06 Eh
 * total energy  :   -91.7448661 Eh     change       -0.1214726E-05 Eh
 * total energy  :   -91.7448673 Eh     change       -0.1281494E-05 Eh
 * total energy  :   -91.7448684 Eh     change       -0.1063095E-05 Eh
 * total energy  :   -91.7448691 Eh     change       -0.7396042E-06 Eh
 * total energy  :   -91.7448698 Eh     change       -0.6749137E-06 Eh
 * total energy  :   -91.7448704 Eh     change       -0.5395486E-06 Eh
 * total energy  :   -91.7448709 Eh     change       -0.5187742E-06 Eh
 * total energy  :   -91.7448709 Eh     change       -0.7036860E-08 Eh
   *** GEOMETRY OPTIMIZATION CONVERGED AFTER 22 ITERATIONS ***

 final structure:
================
58
 xtb: 6.7.1 (edcfbbe)
C            7.80909454123413        1.67898274841280        0.47646739108948
C            6.78544826723846        2.55941834465135        0.79467115863380
C            5.47005630840349        2.17366276995206        0.66003035326408
C            5.13445495285112        0.89060962518807        0.20162314359026
C            3.73491067262635        0.53962423030639        0.07649148179725
C            3.26500526913918       -0.66495645306263       -0.43182862349651
C            1.90906526923985       -0.98455103126466       -0.41192308877670
C            1.48082065684638       -2.33277661257446       -0.76447390055687
C            2.04625984380850       -2.98952458170673       -1.86307894004065
C            1.64895795099143       -4.26612361397759       -2.20468507283427
C            0.68694697738666       -4.92622390040053       -1.45579076574412
C            0.13251958316119       -4.29652231241813       -0.35226281067260
C            0.52542011488950       -3.01925388986902       -0.00770909071472
C            0.97827613789532        0.01095619055625        0.03356986524587
C           -0.39861472872372       -0.10095765994670       -0.06403890297393
C           -1.25270052423648        0.92186732495003        0.39032588370152
N           -2.64713664545384        0.74788791950963        0.29129979702983
C           -3.25574999737127       -0.33673312817911        0.91057727956908
C           -2.55210477575996       -1.20462565662080        1.74390076275288
C           -3.18063835693143       -2.28992578025197        2.32621965103805
C           -4.52787802297659       -2.52024753247563        2.10799859085685
C           -5.25637989161180       -1.63975701203678        1.32552261529211
C           -4.63308640115694       -0.55188650166330        0.73783494481152
O           -5.41621912457425        0.29938074841391        0.01021406000949
C           -4.81169759163535        1.38117695626103       -0.56722298344720
C           -5.61940525992226        2.23683266390744       -1.29744921407791
C           -5.06909859301428        3.32784916532755       -1.94844370003509
C           -3.70347942299977        3.54489073847554       -1.88509072442679
C           -2.89089104033753        2.69786185881602       -1.15399743237863
C           -3.43059055403710        1.61715359996680       -0.45919379593232
C           -0.71384033392110        2.08730760426596        0.91864443875492
C            0.65535203161395        2.25531105374057        0.96499931306684
C            1.53349426393595        1.25168603252104        0.50487741059389
N            2.83293359377489        1.46719902041841        0.47707116957057
C            6.17962359289505        0.01176784490116       -0.10745062265907
C            7.49492010331134        0.40551586296342        0.02601892639714
H            8.84098533347150        1.98027496579732        0.57990899327253
H            7.02057959234418        3.55375884820648        1.14721115820922
H            4.66685782718499        2.85517872404794        0.89723286124084
H            3.96998235676269       -1.40386277583024       -0.77746909049752
H            2.77944539571764       -2.47547704380633       -2.46773074735592
H            2.08849156499413       -4.75107428040198       -3.06476535851319
H            0.37758888037633       -5.92510514101232       -1.72529236773855
H           -0.60580824115138       -4.80894386797614        0.24835050228988
H            0.11840715989644       -2.55740392032101        0.87966680271037
H           -0.83242103529273       -0.95538101235250       -0.56239302615046
H           -1.50983299118250       -1.01406613614750        1.94148878204239
H           -2.61200528598988       -2.95246048328227        2.96002250602857
H           -5.01840273954468       -3.36860165009249        2.55802580454695
H           -6.31338322128236       -1.77359671617686        1.16079936884575
H           -6.67491196670364        2.02301046430805       -1.34789602469775
H           -5.70411504141278        3.99224888400008       -2.51239301039123
H           -3.26076213025625        4.37654918688068       -2.41055655616474
H           -1.82624734702787        2.86467508524196       -1.12728981618104
H           -1.36994123944815        2.85528256649791        1.30126822598257
H            1.08371588466709        3.14622958640057        1.39435599896478
H            5.96723429201720       -0.99070570028133       -0.44716975709817
H            8.28707271888061       -0.28799250826027       -0.21888843224177

 projected vibrational frequencies (cm⁻¹)
eigval :       -0.00    -0.00    -0.00     0.00     0.00     0.00
eigval :       15.58    19.50    22.59    26.30    48.99    52.53
eigval :       60.76    70.60    83.62    90.97   116.13   133.62
eigval :      148.24   177.40   183.24   210.25   236.75   241.41
eigval :      244.60   263.12   270.64   284.83   325.96   344.42
eigval :      359.01   367.00   376.68   386.72   399.31   400.61
eigval :      424.75   434.21   436.08   444.42   465.36   495.42
eigval :      502.56   511.71   533.01   544.63   545.57   551.82
eigval :      568.67   573.18   581.59   588.61   591.42   617.27
eigval :      619.47   646.51   652.08   664.83   666.15   670.68
eigval :      676.34   690.78   749.14   751.51   764.95   776.68
eigval :      778.53   784.15   805.35   808.55   815.73   827.82
eigval :      849.44   856.36   857.12   865.26   866.04   877.00
eigval :      883.08   885.72   894.89   902.02   904.85   913.61
eigval :      917.20   917.87   920.08   920.87   923.41   926.04
eigval :      933.72   975.63   978.13  1000.44  1079.08  1081.64
eigval :     1086.28  1086.57  1087.83  1113.67  1115.68  1118.41
eigval :     1122.98  1127.06  1145.26  1170.10  1174.18  1179.02
eigval :     1180.82  1185.01  1195.77  1199.72  1208.12  1209.63
eigval :     1224.52  1230.51  1239.02  1254.59  1270.92  1279.43
eigval :     1284.52  1295.98  1302.55  1313.79  1319.24  1322.46
eigval :     1328.76  1333.93  1347.24  1356.78  1379.46  1387.71
eigval :     1401.35  1418.42  1429.64  1432.56  1441.24  1450.28
eigval :     1457.42  1463.09  1467.69  1474.03  1481.73  1515.95
eigval :     1557.97  1558.31  1558.58  1565.65  1577.53  1584.38
eigval :     1585.80  1588.87  3066.89  3066.99  3068.49  3069.29
eigval :     3077.57  3080.24  3080.57  3083.01  3085.72  3087.57
eigval :     3090.97  3091.59  3095.13  3096.25  3097.80  3104.47
eigval :     3105.12  3108.69  3113.99  3114.45  3116.19  3116.41

   temp. (K)  partition function   enthalpy   heat capacity  entropy
                                   cal/mol     cal/K/mol   cal/K/mol   J/K/mol
 298.15  VIB  0.612E+12            15867.610    103.843     96.925
         ROT  0.355E+08              888.752      2.981     37.528
         INT  0.217E+20            16756.363    106.824    134.454
         TR   0.962E+28             1481.254      4.968     44.263
         TOT                       18237.6165   111.7919   178.7170   747.7519

       T/K    H(0)-H(T)+PV         H(T)/Eh          T*S/Eh         G(T)/Eh
   ------------------------------------------------------------------------
    298.15    0.290635E-01    0.468421E+00    0.849142E-01    0.383507E+00
   ------------------------------------------------------------------------

         :::::::::::::::::::::::::::::::::::::::::::::::::::::
         ::                  THERMODYNAMIC                  ::
         :::::::::::::::::::::::::::::::::::::::::::::::::::::
         :: total free energy         -91.361363783128 Eh   ::
         ::.................................................::
         :: total energy              -91.744870882797 Eh   ::
         :: zero point energy           0.439357814354 Eh   ::
         :: G(RRHO) w/o ZPVE           -0.055850714686 Eh   ::
         :: G(RRHO) contrib.            0.383507099668 Eh   ::
         :::::::::::::::::::::::::::::::::::::::::::::::::::::

           -------------------------------------------------
          | TOTAL ENERGY              -91.744870882797 Eh   |
          | TOTAL ENTHALPY            -91.276449576517 Eh   |
          | TOTAL FREE ENERGY         -91.361363783128 Eh   |
          | GRADIENT NORM               0.000047589936 Eh/α |
           -------------------------------------------------

 * finished run on 2025/07/18 at 16:35:15.836
