   * xtb version 6.7.1 (edcfbbe) compiled by 'albert@albert-system' on 2024-07-22

   ID    Z sym.   atoms
    1    6 C      1-16, 18-23, 25-33, 35, 36
    2    7 N      17, 34
    3    8 O      24
    4    1 H      37-58

          program call               : xtb data2507/gas/PhQLPXZ/PhQLPXZ_gas_S0_finalOpt.xtbopt.xyz --gfn 2 --spinpol --tblite --uhf 2 --ohess vtight --parallel 40 --molden --ceasefiles --namespace data2507/gas/PhQLPXZ/PhQLPXZ_gas_T1_preOpt
 * total energy  :   -91.7373590 Eh     change       -0.2368913E-07 Eh
 * total energy  :   -91.7417227 Eh     change       -0.4363676E-02 Eh
 * total energy  :   -91.7431874 Eh     change       -0.1464755E-02 Eh
 * total energy  :   -91.7434662 Eh     change       -0.2787516E-03 Eh
 * total energy  :   -91.7437173 Eh     change       -0.2510821E-03 Eh
 * total energy  :   -91.7438394 Eh     change       -0.1220917E-03 Eh
 * total energy  :   -91.7439628 Eh     change       -0.1234221E-03 Eh
 * total energy  :   -91.7440879 Eh     change       -0.1251656E-03 Eh
 * total energy  :   -91.7441935 Eh     change       -0.1055280E-03 Eh
 * total energy  :   -91.7442781 Eh     change       -0.8466353E-04 Eh
 * total energy  :   -91.7448704 Eh     change       -0.2795096E-06 Eh
 * total energy  :   -91.7448707 Eh     change       -0.2901110E-06 Eh
 * total energy  :   -91.7448710 Eh     change       -0.3363242E-06 Eh
 * total energy  :   -91.7448714 Eh     change       -0.3143258E-06 Eh
 * total energy  :   -91.7448716 Eh     change       -0.2397217E-06 Eh
 * total energy  :   -91.7448718 Eh     change       -0.1974072E-06 Eh
 * total energy  :   -91.7448720 Eh     change       -0.2379618E-06 Eh
 * total energy  :   -91.7448722 Eh     change       -0.1405423E-06 Eh
 * total energy  :   -91.7448722 Eh     change       -0.3469380E-07 Eh
   *** GEOMETRY OPTIMIZATION CONVERGED AFTER 58 ITERATIONS ***

 final structure:
================
58
 xtb: 6.7.1 (edcfbbe)
C            7.82236162158130        1.62144576597510        0.47696460989608
C            6.80478131503764        2.50873554680510        0.79559366077398
C            5.48680437890776        2.13304336235763        0.65816780282265
C            5.14228696572119        0.85344996675929        0.19655066010776
C            3.74041598022829        0.51317657094846        0.06909859856898
C            3.26179871907492       -0.68878195721100       -0.43765230542386
C            1.90352527982901       -0.99762732566622       -0.41857411356152
C            1.46384564252040       -2.34207347569418       -0.77210447130161
C            2.02073111306132       -3.00081938171203       -1.87374213000986
C            1.61040083848162       -4.27254118820049       -2.21826269619804
C            0.64392725697506       -4.92565658609157       -1.46900890320597
C            0.09855974611099       -4.29433680727380       -0.36190680753243
C            0.50429942416696       -3.02180482240969       -0.01460921822046
C            0.97991476134111        0.00533782639834        0.02490751234602
C           -0.39768282297764       -0.09737798079467       -0.07214880766146
C           -1.24465103135870        0.93246376462806        0.37960763115567
N           -2.64020744359488        0.76618648352417        0.28286298469974
C           -3.25350940076877       -0.31347784093287        0.90620534569937
C           -2.55356710007211       -1.18116197525463        1.74287886063560
C           -3.18670604093051       -2.26161697075219        2.32920271818191
C           -4.53483997930384       -2.48719608222501        2.11155902770741
C           -5.25957058075485       -1.60663100670150        1.32566537636611
C           -4.63170102868238       -0.52349981244253        0.73410518750118
O           -5.41112509508143        0.32835547118814        0.00318476532763
C           -4.80216120368135        1.40615442506753       -0.57711541480009
C           -5.60641330460806        2.26332161563786       -1.30935940587803
C           -5.05163753212862        3.35028126740987       -1.96335764378580
C           -3.68507832060027        3.56159958147672       -1.90104437577686
C           -2.87588544657448        2.71304107933261       -1.16793261765475
C           -3.42002936763781        1.63657941638031       -0.47003804384269
C           -0.69771682655982        2.09596219155578        0.90379818094049
C            0.67267994231316        2.25458041571734        0.94961002303507
C            1.54384531012890        1.24317922055860        0.49329153187358
N            2.84493304496835        1.44854967750281        0.46621651106901
C            6.18144579893581       -0.03233292463169       -0.11317651434106
C            7.49939388218539        0.35139237423861        0.02307979931168
H            8.85629105274471        1.91481637286910        0.58274254233807
H            7.04671922313546        3.50045045552593        1.15092767884381
H            4.68831527580111        2.81991886009498        0.89581145046097
H            3.96127660000396       -1.43394111938103       -0.78112660268863
H            2.75747587978784       -2.49183799420668       -2.47836466230804
H            2.04290034411341       -4.75890052434417       -3.08110328916442
H            0.32382589647028       -5.92041471558330       -1.74123535336040
H           -0.64312880081982       -4.80156006980637        0.23898258839405
H            0.10380028488194       -2.55861874090632        0.87506062954875
H           -0.83747456046286       -0.95034111760234       -0.56773850979318
H           -1.51049683722504       -0.99429889067220        1.93980241491764
H           -2.62096018868594       -2.92401090694205        2.96573003587520
H           -5.02897361902134       -3.33175980415665        2.56476361713647
H           -6.31707446175321       -1.73677970000134        1.16119774484009
H           -6.66283697087429        2.05386493023739       -1.35897184527452
H           -5.68400902693820        4.01594691735089       -2.52879330932310
H           -3.23895978160680        4.38991144913948       -2.42891781461571
H           -1.81051052731315        2.87525411116237       -1.14206746614756
H           -1.34833539072853        2.86972061897844        1.28412259476762
H            1.10705616864071        3.14398384672180        1.37605880913478
H            5.96219940363171       -1.03223336782059       -0.45609849675545
H            8.28678617286444       -0.34724633036755       -0.22259435227447

 projected vibrational frequencies (cm⁻¹)
eigval :       -0.00    -0.00    -0.00     0.00     0.00     0.00
eigval :       15.49    19.42    22.31    26.23    48.67    52.49
eigval :       60.63    70.60    83.59    90.92   116.11   133.73
eigval :      148.00   177.56   183.25   210.29   236.61   241.23
eigval :      244.72   263.16   270.70   284.80   326.03   344.40
eigval :      358.97   366.93   376.58   386.69   399.90   400.81
eigval :      424.62   433.87   435.98   444.50   465.28   495.44
eigval :      502.43   511.63   533.05   544.41   545.60   551.83
eigval :      568.37   573.35   581.42   588.65   591.33   617.14
eigval :      619.43   646.57   651.95   664.88   666.07   670.68
eigval :      676.39   690.78   749.12   751.53   765.33   776.69
eigval :      778.37   784.05   805.36   807.76   815.25   827.59
eigval :      849.43   856.26   857.23   865.19   865.96   876.89
eigval :      882.94   885.72   894.90   901.97   904.77   913.58
eigval :      916.98   917.84   919.94   920.81   923.32   925.89
eigval :      933.63   976.19   978.46  1000.66  1078.96  1082.26
eigval :     1085.39  1086.43  1088.28  1113.69  1115.88  1118.75
eigval :     1123.21  1126.93  1145.54  1169.83  1174.00  1178.76
eigval :     1180.64  1184.74  1195.31  1199.45  1207.95  1209.55
eigval :     1224.87  1230.49  1238.81  1254.60  1270.62  1279.54
eigval :     1284.48  1295.78  1302.43  1313.74  1319.29  1322.42
eigval :     1328.64  1333.74  1346.95  1356.73  1379.09  1387.76
eigval :     1401.44  1418.24  1429.40  1432.29  1441.10  1450.18
eigval :     1457.35  1462.74  1467.59  1473.92  1481.35  1516.00
eigval :     1557.73  1558.29  1558.84  1565.61  1577.60  1584.43
eigval :     1585.83  1588.88  3066.37  3066.56  3068.14  3068.95
eigval :     3077.48  3079.76  3080.06  3082.67  3085.00  3087.16
eigval :     3090.34  3091.29  3094.84  3095.83  3097.41  3104.20
eigval :     3104.73  3109.01  3113.68  3114.24  3115.91  3116.23

   temp. (K)  partition function   enthalpy   heat capacity  entropy
                                   cal/mol     cal/K/mol   cal/K/mol   J/K/mol
 298.15  VIB  0.633E+12            15869.841    103.837     96.953
         ROT  0.355E+08              888.752      2.981     37.527
         INT  0.225E+20            16758.593    106.818    134.480
         TR   0.962E+28             1481.254      4.968     44.263
         TOT                       18239.8470   111.7860   178.7435   747.8628

       T/K    H(0)-H(T)+PV         H(T)/Eh          T*S/Eh         G(T)/Eh
   ------------------------------------------------------------------------
    298.15    0.290670E-01    0.468389E+00    0.849268E-01    0.383463E+00
   ------------------------------------------------------------------------

         :::::::::::::::::::::::::::::::::::::::::::::::::::::
         ::                  THERMODYNAMIC                  ::
         :::::::::::::::::::::::::::::::::::::::::::::::::::::
         :: total free energy         -91.361409514050 Eh   ::
         ::.................................................::
         :: total energy              -91.744872203663 Eh   ::
         :: zero point energy           0.439322442255 Eh   ::
         :: G(RRHO) w/o ZPVE           -0.055859752642 Eh   ::
         :: G(RRHO) contrib.            0.383462689613 Eh   ::
         :::::::::::::::::::::::::::::::::::::::::::::::::::::

           -------------------------------------------------
          | TOTAL ENERGY              -91.744872203663 Eh   |
          | TOTAL ENTHALPY            -91.276482715040 Eh   |
          | TOTAL FREE ENERGY         -91.361409514050 Eh   |
          | GRADIENT NORM               0.000099179520 Eh/α |
           -------------------------------------------------

 * finished run on 2025/07/18 at 16:32:11.605
