   * xtb version 6.7.1 (edcfbbe) compiled by 'albert@albert-system' on 2024-07-22

   ID    Z sym.   atoms
    1    6 C      1-5, 7, 9-24, 26-33, 35, 37-52, 54-61, 63, 64
    2    7 N      6, 8, 25, 34, 36, 53, 62
    3    1 H      65-99

          program call               : xtb data2507/toluene/PBICT/PBICT_toluene_S0_crest.xyz --gfn 2 --gbsa toluene --ohess vtight --parallel 40 --molden --ceasefiles --namespace data2507/toluene/PBICT/PBICT_toluene_S0_finalOpt
      * Solvation model:               GBSA
        Solvent                        toluene
        Solvent mass                       9.2140E+01 g/mol
          :  Hamiltonian                  GFN2-xTB          :
 * total energy  :  -160.6314050 Eh     change       -0.4410282E-08 Eh
 * total energy  :  -160.6315420 Eh     change       -0.1370080E-03 Eh
 * total energy  :  -160.6316936 Eh     change       -0.1516215E-03 Eh
 * total energy  :  -160.6317485 Eh     change       -0.5487244E-04 Eh
 * total energy  :  -160.6318173 Eh     change       -0.6883386E-04 Eh
 * total energy  :  -160.6318756 Eh     change       -0.5828698E-04 Eh
 * total energy  :  -160.6319176 Eh     change       -0.4199539E-04 Eh
 * total energy  :  -160.6319363 Eh     change       -0.1866555E-04 Eh
 * total energy  :  -160.6319494 Eh     change       -0.1317028E-04 Eh
 * total energy  :  -160.6319534 Eh     change       -0.3937145E-05 Eh
 * total energy  :  -160.6320174 Eh     change       -0.7810479E-06 Eh
 * total energy  :  -160.6320182 Eh     change       -0.8087227E-06 Eh
 * total energy  :  -160.6320191 Eh     change       -0.8584596E-06 Eh
 * total energy  :  -160.6320200 Eh     change       -0.9127590E-06 Eh
 * total energy  :  -160.6320210 Eh     change       -0.9630815E-06 Eh
 * total energy  :  -160.6320220 Eh     change       -0.1014801E-05 Eh
 * total energy  :  -160.6320230 Eh     change       -0.1014510E-05 Eh
 * total energy  :  -160.6320239 Eh     change       -0.9532452E-06 Eh
 * total energy  :  -160.6320239 Eh     change       -0.6630160E-08 Eh
   *** GEOMETRY OPTIMIZATION CONVERGED AFTER 44 ITERATIONS ***

 final structure:
================
99
 xtb: 6.7.1 (edcfbbe)
C            0.22732658970979        5.29487903749507        0.36164460246860
C           -0.94875962403083        4.63679416172299        0.68991131302445
C           -1.01513489847084        3.25837569499193        0.61604318078192
C            0.09866970996116        2.52642803105896        0.20772714085596
C            0.03333538882047        1.06774790521808        0.13353844371488
N           -1.11940199899592        0.48144263446212        0.43311295406103
C           -1.11748103274414       -0.84377976321832        0.36356448260300
N           -2.28344877133509       -1.48203801567565        0.70796496187213
C           -2.32775326371778       -2.60119561143307        1.54043166431434
C           -1.34937359560190       -3.54364772165045        1.80256678076127
C           -1.65041395937014       -4.55436640172318        2.69991582142966
C           -2.89167621654626       -4.62318304112056        3.32524968435827
C           -3.86646616681304       -3.67619382562907        3.07376574324014
C           -3.58600002699270       -2.65588907541902        2.17449340211097
C           -4.35280534772138       -1.53697087091081        1.68939549753346
C           -5.64374743999957       -1.10338511729878        1.99492387466840
C           -6.14143633850060        0.01173327081457        1.36091318759037
C           -5.38282695905706        0.62713484771623        0.36474577480446
C           -5.68929623573178        1.71146185173264       -0.52379789417381
C           -6.79292117319185        2.54661895276657       -0.65452765449753
C           -6.80178849849013        3.47599394085139       -1.67453221216309
C           -5.73748942997512        3.56217950853554       -2.56979958053546
C           -4.63065428175868        2.74174425089651       -2.45866671853657
C           -4.59816950151652        1.82939155373880       -1.41305915219432
N           -3.63505911781308        0.88914827486215       -1.08391384053065
C           -2.55515200302242        0.54662239876377       -1.90999568080056
C           -1.68993369195839        1.52605016808827       -2.39057453476988
C           -0.63201574128774        1.17398544810574       -3.20765835807303
C           -0.42461351505654       -0.15129570215110       -3.55534900326831
C           -1.29120999975508       -1.12594938238789       -3.09014098082154
C           -2.35640999732350       -0.78208695190248       -2.27793408277829
C           -4.09335671356931        0.16405945136141        0.00260253691125
C           -3.53529065099086       -0.86273238483981        0.75866735265300
N           -0.07566864537423       -1.59451123504507        0.02861897706865
C            1.01836801631538       -0.90701296674662       -0.27569616253357
N            2.11306958574231       -1.60297427688561       -0.72058650233390
C            2.02718931406269       -2.68131625112452       -1.60512213042450
C            0.99057658672385       -3.57417243208028       -1.80913644271344
C            1.16041356796788       -4.55158349576371       -2.77589855074679
C            2.32954796508543       -4.63542340766617       -3.52525430204287
C            3.36363443563282       -3.73933929444118       -3.32869574253165
C            3.21521929734816       -2.75463227137812       -2.36124105960016
C            4.07712888495588       -1.69536329130910       -1.90043211866723
C            5.34940865862396       -1.29561210827980       -2.31177468687952
C            5.95511300309058       -0.23566142439181       -1.67608811980786
C            5.32788479277308        0.35119810367994       -0.57683930608712
C            5.76382457896373        1.37335896507707        0.33133854451093
C            6.90415196075953        2.16624758629428        0.38785224726832
C            7.04885100558016        3.04212653338634        1.44436718545973
C            6.08478923033555        3.11391681884801        2.44790286553044
C            4.94440918077663        2.33345279409657        2.41283136683010
C            4.77307347566796        1.47769172219079        1.33346443933729
N            3.74644528818231        0.58942530431002        1.05647104896382
C            2.73936364412973        0.22609239105416        1.96145486315434
C            1.96639080697625        1.19354149894500        2.59783147807754
C            0.97503244926578        0.81464297423993        3.48358372196368
C            0.74441767046866       -0.52571261260871        3.74870493799148
C            1.52218853203530       -1.48980029920114        3.12955323614693
C            2.52003770798487       -1.11991979000533        2.24680235266708
C            4.06292739838016       -0.08437861565204       -0.10986324699557
C            3.38698141459598       -1.04166133040975       -0.85955742976190
N            1.12878888606913        0.41545216888613       -0.23232362232136
C            1.27647222920212        3.19350530143624       -0.12592803955974
C            1.33878110888331        4.57164720341569       -0.04555310390023
H            0.27758956327875        6.37191587901857        0.42304567995116
H           -1.81465135530518        5.20087318076082        1.00426600437239
H           -1.91921363107824        2.72720366127131        0.87208218692545
H           -0.38705477197477       -3.48498448352241        1.32047753895014
H           -0.90615124405992       -5.30732395878704        2.91455252183164
H           -3.09227424201365       -5.42802538991423        4.01664254697293
H           -4.82736846868998       -3.72601408106208        3.56267585107818
H           -6.23181756890083       -1.63735792541343        2.72463030405014
H           -7.12258702287590        0.39204548903200        1.59837834771439
H           -7.62514819676090        2.46195622107943        0.02748234938127
H           -7.64673373568308        4.13765851496652       -1.79229208217629
H           -5.77903668885021        4.28252954188327       -3.37335488568353
H           -3.82677374361313        2.80637835552113       -3.17541909623132
H           -1.82373158965233        2.55303128388600       -2.08703974221085
H            0.04279056356957        1.93833781311006       -3.56449591123329
H            0.40963776253172       -0.42450657779981       -4.18458448547178
H           -1.13655236352694       -2.15981122670727       -3.36181267436845
H           -3.03986753100172       -1.54213887316164       -1.92629096071313
H            0.08368633153868       -3.50528875266519       -1.23118481878329
H            0.36772893978242       -5.26527451023641       -2.94735235886321
H            2.42808785111912       -5.41269073513002       -4.26834686624633
H            4.26995053109478       -3.80207093640881       -3.91139705177600
H            5.83875007802615       -1.80965014903837       -3.12401130557650
H            6.92228586047567        0.12088204910373       -1.99419989481883
H            7.65932314248681        2.09150328922571       -0.37969956486202
H            7.92387027249142        3.67161667459968        1.50529605463537
H            6.23250692856626        3.79191103523742        3.27544534150959
H            4.22134506248765        2.38523964335415        3.21178101797004
H            2.11403169301811        2.23627052754905        2.36337469656221
H            0.36982743250484        1.57206817965985        3.96033850064534
H           -0.03875445542199       -0.81845006318658        4.43245243372331
H            1.35317330838698       -2.53611817430064        3.33782609953368
H            3.13585358673974       -1.87338021677173        1.77636349874114
H            2.12844007094930        2.61304676134461       -0.44515762429288
H            2.25509355570826        5.08417163229042       -0.29978069521348

          :  Hamiltonian                  GFN2-xTB          :
         :: gradient norm              0.000063975526 Eh/a0 ::
         :: HOMO-LUMO gap              2.079198308244 eV    ::
         :: SCC energy              -163.576808370854 Eh    ::
         :: -> dispersion             -0.175509421792 Eh    ::
         :: -> Gsolv                  -0.056743132127 Eh    ::
         :: repulsion energy           2.944784430572 Eh    ::

    * Orbital Energies and Occupations

         #    Occupation            Energy/Eh            Energy/eV
      -------------------------------------------------------------
         1        2.0000           -0.7036196             -19.1465
       ...           ...                  ...                  ...
       137        2.0000           -0.4191957             -11.4069
       138        2.0000           -0.4180226             -11.3750
       139        2.0000           -0.4180115             -11.3747
       140        2.0000           -0.4151697             -11.2973
       141        2.0000           -0.4147909             -11.2870
       142        2.0000           -0.3984191             -10.8415
       143        2.0000           -0.3962370             -10.7822
       144        2.0000           -0.3916726             -10.6580
       145        2.0000           -0.3902334             -10.6188
       146        2.0000           -0.3826097             -10.4113
       147        2.0000           -0.3822540             -10.4017
       148        2.0000           -0.3707969             -10.0899
       149        2.0000           -0.3703641             -10.0781 (HOMO)
       150                         -0.2939550              -7.9989 (LUMO)
       151                         -0.2792275              -7.5982
       152                         -0.2674482              -7.2776
       153                         -0.2591619              -7.0522
       154                         -0.2461207              -6.6973
       155                         -0.2459502              -6.6926
       156                         -0.2450389              -6.6678
       157                         -0.2432776              -6.6199
       158                         -0.2406498              -6.5484
       159                         -0.2375341              -6.4636
       160                         -0.2371078              -6.4520
       ...                                ...                  ...
       291                          0.7450183              20.2730
      -------------------------------------------------------------
                  HL-Gap            0.0764091 Eh            2.0792 eV

     #   Z          covCN         q      C6AA      α(0)
     1   6 C        2.920    -0.023    28.584     8.767
     2   6 C        2.918    -0.028    28.696     8.784
     3   6 C        2.923    -0.024    28.609     8.771
     4   6 C        2.985    -0.004    28.119     8.698
     5   6 C        3.003     0.221    23.346     7.926
     6   7 N        1.849    -0.336    29.578     8.060
     7   6 C        2.954     0.292    22.071     7.706
     8   7 N        2.807    -0.065    22.496     7.044
     9   6 C        3.061     0.058    26.653     8.466
    10   6 C        2.910    -0.050    29.238     8.867
    11   6 C        2.925    -0.035    28.870     8.811
    12   6 C        2.920    -0.040    28.984     8.828
    13   6 C        2.913    -0.036    28.901     8.816
    14   6 C        3.065    -0.015    28.323     8.727
    15   6 C        3.061    -0.023    28.523     8.758
    16   6 C        2.913    -0.048    29.183     8.858
    17   6 C        2.914    -0.044    29.095     8.845
    18   6 C        3.068    -0.024    28.537     8.759
    19   6 C        3.067    -0.017    28.366     8.733
    20   6 C        2.913    -0.035    28.879     8.812
    21   6 C        2.919    -0.041    29.026     8.835
    22   6 C        2.924    -0.035    28.864     8.810
    23   6 C        2.910    -0.053    29.304     8.876
    24   6 C        3.071     0.049    26.828     8.493
    25   7 N        2.798    -0.051    22.231     7.003
    26   6 C        2.913     0.079    26.244     8.400
    27   6 C        2.922    -0.043    29.063     8.841
    28   6 C        2.920    -0.030    28.745     8.792
    29   6 C        2.919    -0.036    28.887     8.814
    30   6 C        2.919    -0.030    28.757     8.794
    31   6 C        2.923    -0.043    29.061     8.840
    32   6 C        3.058     0.048    26.869     8.501
    33   6 C        3.051     0.049    26.852     8.499
    34   7 N        1.848    -0.343    29.765     8.086
    35   6 C        2.954     0.291    22.088     7.708
    36   7 N        2.806    -0.065    22.491     7.044
    37   6 C        3.059     0.058    26.650     8.466
    38   6 C        2.910    -0.050    29.230     8.865
    39   6 C        2.924    -0.035    28.870     8.811
    40   6 C        2.920    -0.039    28.974     8.827
    41   6 C        2.913    -0.036    28.901     8.815
    42   6 C        3.065    -0.015    28.311     8.725
    43   6 C        3.060    -0.023    28.516     8.757
    44   6 C        2.914    -0.048    29.182     8.858
    45   6 C        2.914    -0.044    29.087     8.844
    46   6 C        3.067    -0.024    28.534     8.759
    47   6 C        3.068    -0.017    28.363     8.733
    48   6 C        2.912    -0.035    28.876     8.812
    49   6 C        2.919    -0.041    29.024     8.835
    50   6 C        2.924    -0.035    28.860     8.810
    51   6 C        2.910    -0.052    29.298     8.876
    52   6 C        3.071     0.049    26.831     8.493
    53   7 N        2.798    -0.049    22.182     6.995
    54   6 C        2.913     0.079    26.244     8.400
    55   6 C        2.922    -0.043    29.072     8.842
    56   6 C        2.920    -0.031    28.762     8.795
    57   6 C        2.919    -0.036    28.900     8.816
    58   6 C        2.919    -0.030    28.760     8.794
    59   6 C        2.923    -0.043    29.080     8.843
    60   6 C        3.061     0.048    26.855     8.498
    61   6 C        3.052     0.049    26.852     8.499
    62   7 N        1.849    -0.335    29.537     8.055
    63   6 C        2.923    -0.024    28.610     8.772
    64   6 C        2.918    -0.028    28.698     8.785
    65   1 H        0.926     0.050     2.318     2.381
    66   1 H        0.926     0.045     2.379     2.412
    67   1 H        0.926     0.047     2.361     2.403
    68   1 H        0.926     0.043     2.410     2.427
    69   1 H        0.926     0.036     2.496     2.471
    70   1 H        0.926     0.040     2.444     2.445
    71   1 H        0.926     0.041     2.432     2.439
    72   1 H        0.926     0.040     2.444     2.445
    73   1 H        0.926     0.043     2.414     2.430
    74   1 H        0.926     0.039     2.465     2.455
    75   1 H        0.926     0.038     2.473     2.459
    76   1 H        0.926     0.037     2.483     2.464
    77   1 H        0.926     0.029     2.605     2.524
    78   1 H        0.926     0.041     2.442     2.444
    79   1 H        0.926     0.037     2.483     2.464
    80   1 H        0.926     0.032     2.553     2.499
    81   1 H        0.926     0.035     2.516     2.481
    82   1 H        0.926     0.028     2.613     2.528
    83   1 H        0.926     0.046     2.374     2.409
    84   1 H        0.926     0.037     2.494     2.470
    85   1 H        0.926     0.041     2.442     2.444
    86   1 H        0.926     0.041     2.429     2.437
    87   1 H        0.926     0.041     2.442     2.444
    88   1 H        0.926     0.043     2.411     2.428
    89   1 H        0.926     0.039     2.466     2.456
    90   1 H        0.926     0.038     2.474     2.460
    91   1 H        0.926     0.038     2.481     2.463
    92   1 H        0.926     0.029     2.595     2.519
    93   1 H        0.926     0.041     2.436     2.441
    94   1 H        0.926     0.037     2.495     2.470
    95   1 H        0.926     0.033     2.542     2.493
    96   1 H        0.926     0.036     2.509     2.477
    97   1 H        0.926     0.029     2.605     2.524
    98   1 H        0.926     0.047     2.356     2.400
    99   1 H        0.926     0.045     2.379     2.412

molecular dipole:
                 x           y           z       tot (Debye)
 q only:        0.111       0.733       0.010
   full:        0.118       0.619       0.026       1.602

 projected vibrational frequencies (cm⁻¹)
eigval :       -0.00    -0.00    -0.00     0.00     0.00     0.00
eigval :       10.56    14.94    18.82    21.03    33.52    37.88
eigval :       39.31    45.27    47.59    52.73    58.76    70.02
eigval :       71.06    76.57    78.92    86.97    99.51   109.76
eigval :      111.08   120.60   126.73   132.37   134.40   144.52
eigval :      152.10   159.06   188.79   195.67   199.90   205.71
eigval :      216.57   224.25   234.31   239.53   240.11   263.59
eigval :      268.34   274.01   282.52   296.15   299.79   316.59
eigval :      324.73   330.39   332.04   337.46   360.39   371.88
eigval :      384.05   386.34   390.38   392.99   394.83   403.57
eigval :      411.98   415.16   424.08   441.52   442.66   472.37
eigval :      473.26   475.75   479.33   492.68   498.92   500.76
eigval :      526.91   534.55   536.07   540.50   550.91   554.11
eigval :      557.45   560.12   577.98   584.19   587.89   588.11
eigval :      591.18   594.27   606.38   610.50   615.94   620.47
eigval :      628.52   632.48   634.33   646.42   646.91   663.18
eigval :      668.15   670.78   676.23   678.71   680.02   688.96
eigval :      689.98   699.13   700.31   709.10   710.70   727.22
eigval :      754.29   761.55   765.30   770.31   773.94   773.98
eigval :      776.75   780.14   781.89   792.93   794.37   820.35
eigval :      820.79   822.64   827.48   866.11   867.96   873.38
eigval :      878.25   882.59   884.32   884.51   893.87   893.97
eigval :      899.14   901.03   903.18   903.78   906.61   907.83
eigval :      912.60   913.01   918.42   919.99   920.16   921.43
eigval :      923.03   923.21   925.30   930.28   934.20   935.37
eigval :      936.56   938.00   940.61   942.24   956.19   963.04
eigval :      995.89   996.35   999.92  1046.23  1049.56  1066.18
eigval :     1071.31  1072.63  1072.85  1074.14  1081.52  1081.71
eigval :     1093.81  1098.01  1098.76  1108.66  1118.89  1120.04
eigval :     1128.39  1144.11  1146.32  1150.94  1152.29  1163.92
eigval :     1172.12  1172.71  1175.29  1176.20  1178.35  1179.18
eigval :     1179.79  1180.91  1182.94  1189.59  1197.43  1199.27
eigval :     1213.65  1218.34  1223.53  1229.73  1234.15  1246.05
eigval :     1251.58  1264.58  1269.25  1270.60  1276.11  1277.55
eigval :     1283.84  1286.08  1300.40  1301.02  1307.62  1311.84
eigval :     1316.65  1317.62  1327.32  1347.94  1350.87  1356.89
eigval :     1357.76  1358.03  1358.48  1375.36  1376.38  1390.57
eigval :     1391.04  1394.85  1399.28  1416.34  1416.94  1424.69
eigval :     1425.03  1430.45  1436.01  1436.37  1450.65  1466.63
eigval :     1467.65  1474.90  1475.44  1478.45  1478.96  1479.32
eigval :     1482.31  1485.33  1530.32  1534.68  1567.24  1567.32
eigval :     1579.14  1579.26  1582.75  1584.31  1584.36  1588.41
eigval :     1588.64  1592.76  1594.00  1594.29  1600.52  1600.96
eigval :     1602.17  1602.62  1608.67  1608.96  3073.14  3073.57
eigval :     3075.76  3076.01  3076.46  3076.96  3077.20  3078.69
eigval :     3078.95  3080.67  3082.83  3083.12  3084.01  3084.35
eigval :     3084.46  3085.02  3090.87  3091.65  3091.79  3092.46
eigval :     3092.66  3093.06  3093.54  3095.48  3095.92  3098.46
eigval :     3099.23  3099.54  3100.35  3102.07  3102.95  3103.87
eigval :     3103.92  3111.20  3115.89

   temp. (K)  partition function   enthalpy   heat capacity  entropy
                                   cal/mol     cal/K/mol   cal/K/mol   J/K/mol
 298.15  VIB  0.861E+21            28281.276    182.955    174.201
         ROT  0.104E+09              888.752      2.981     39.662
         INT  0.894E+29            29170.028    185.936    213.864
         TR   0.226E+29             1481.254      4.968     45.962
         TOT                       30651.2823   190.9044   259.8253  1087.1092

       T/K    H(0)-H(T)+PV         H(T)/Eh          T*S/Eh         G(T)/Eh
   ------------------------------------------------------------------------
    298.15    0.488459E-01    0.797012E+00    0.123451E+00    0.673561E+00
   ------------------------------------------------------------------------

         :::::::::::::::::::::::::::::::::::::::::::::::::::::
         ::                  THERMODYNAMIC                  ::
         :::::::::::::::::::::::::::::::::::::::::::::::::::::
         :: total free energy        -159.958463158707 Eh   ::
         ::.................................................::
         :: total energy             -160.632023940088 Eh   ::
         :: zero point energy           0.748166253543 Eh   ::
         :: G(RRHO) w/o ZPVE           -0.074605472162 Eh   ::
         :: G(RRHO) contrib.            0.673560781381 Eh   ::
         :::::::::::::::::::::::::::::::::::::::::::::::::::::

           -------------------------------------------------
          | TOTAL ENERGY             -160.632023940088 Eh   |
          | TOTAL ENTHALPY           -159.835011759012 Eh   |
          | TOTAL FREE ENERGY        -159.958463158707 Eh   |
          | GRADIENT NORM               0.000063969609 Eh/α |
          | HOMO-LUMO GAP               2.079197563927 eV   |
           -------------------------------------------------

 * finished run on 2025/09/04 at 20:01:37.571
