   * xtb version 6.7.1 (edcfbbe) compiled by 'albert@albert-system' on 2024-07-22

   ID    Z sym.   atoms
    1    6 C      1-5, 7, 9-24, 26-33, 35, 37-52, 54-61, 63, 64
    2    7 N      6, 8, 25, 34, 36, 53, 62
    3    1 H      65-99

          program call               : xtb data2507/toluene/PBICT/PBICT.xyz --gfn 2 --gbsa toluene --ohess vtight --parallel 40 --molden --ceasefiles --namespace data2507/toluene/PBICT/PBICT_toluene_S0_preOpt
      * Solvation model:               GBSA
        Solvent                        toluene
        Solvent mass                       9.2140E+01 g/mol
          :  Hamiltonian                  GFN2-xTB          :
 * total energy  :  -160.5215432 Eh     change       -0.5644182E-08 Eh
 * total energy  :  -160.5754543 Eh     change       -0.5391115E-01 Eh
 * total energy  :  -160.5986266 Eh     change       -0.2317228E-01 Eh
 * total energy  :  -160.6063600 Eh     change       -0.7733399E-02 Eh
 * total energy  :  -160.6106702 Eh     change       -0.4310182E-02 Eh
 * total energy  :  -160.6122692 Eh     change       -0.1599043E-02 Eh
 * total energy  :  -160.6134856 Eh     change       -0.1216372E-02 Eh
 * total energy  :  -160.6143825 Eh     change       -0.8968825E-03 Eh
 * total energy  :  -160.6148974 Eh     change       -0.5148918E-03 Eh
 * total energy  :  -160.6152004 Eh     change       -0.3030197E-03 Eh
 * total energy  :  -160.6167691 Eh     change       -0.5899507E-06 Eh
 * total energy  :  -160.6167697 Eh     change       -0.6344352E-06 Eh
 * total energy  :  -160.6167704 Eh     change       -0.6552210E-06 Eh
 * total energy  :  -160.6167710 Eh     change       -0.6396016E-06 Eh
 * total energy  :  -160.6167716 Eh     change       -0.5920860E-06 Eh
 * total energy  :  -160.6167721 Eh     change       -0.5445885E-06 Eh
 * total energy  :  -160.6167727 Eh     change       -0.5180982E-06 Eh
 * total energy  :  -160.6167732 Eh     change       -0.5233739E-06 Eh
 * total energy  :  -160.6167732 Eh     change       -0.5686161E-08 Eh
   *** GEOMETRY OPTIMIZATION CONVERGED AFTER 68 ITERATIONS ***

 final structure:
================
99
 xtb: 6.7.1 (edcfbbe)
C           -4.40342002233906       -4.40575508029336        0.45080703553970
C           -3.15170718799131       -4.74584753243929        0.94118041774973
C           -2.08066781506569       -3.89021258020535        0.76208295881555
C           -2.25934034271013       -2.67806505424147        0.10021104162117
C           -1.12458113710880       -1.77338991437597       -0.10011652044885
N           -1.37438150348567       -0.48416666798159       -0.27569859384431
C           -0.30224754856359        0.28905730086799       -0.43287028766827
N           -0.51545032395255        1.61082939877200       -0.73089693172241
C            0.49927123909349        2.41174389611101       -1.28227724753742
C            1.84651391748487        2.44890323278594       -0.97943036396383
C            2.64490100099876        3.34493540109535       -1.67196654086688
C            2.11358127823198        4.18602319975153       -2.64291213978945
C            0.76330666204054        4.15914041434441       -2.94119346168942
C           -0.05022834579826        3.27127437990911       -2.25193226386240
C           -1.46810142305690        3.01307789879716       -2.28832872270833
C           -2.46309576571453        3.51376441011549       -3.12756966215310
C           -3.75506269828528        3.06591280196865       -2.97120531842607
C           -4.05387248585651        2.22414669193454       -1.90171874724851
C           -5.30740785805108        1.72389275234696       -1.41540218363893
C           -6.60981584282980        1.81529329042798       -1.89220129938687
C           -7.62779866003412        1.25981865279097       -1.14447865470383
C           -7.35848359492826        0.64215191199224        0.07499122670994
C           -6.07090347748361        0.54293390400182        0.56811774785926
C           -5.03617884102394        1.06473629931632       -0.19594963922746
N           -3.67129326861779        1.10199531678881        0.05611568801289
C           -3.15392295817750        1.00071920573988        1.35964287780678
C           -3.42941524448928       -0.10876307596265        2.15188008405675
C           -3.07329944847498       -0.11125535189034        3.48803398671768
C           -2.43707956753434        0.98519423338517        4.04600162064025
C           -2.11553338521731        2.07070083331452        3.24649006014673
C           -2.46887681054095        2.08112500584824        1.91038049498509
C           -3.06431641966385        1.77695840283011       -0.98803912761841
C           -1.73530292584146        2.06650066995010       -1.27808768901586
N            0.95369171699662       -0.15191628865324       -0.43617772082252
C            1.08016791739637       -1.47223173978254       -0.38454559751683
N            2.31056710034054       -2.00879410967845       -0.69722226089863
C            2.43116955572048       -3.09129212880826       -1.58013376984462
C            1.56176264881748       -4.14233797833219       -1.81139589557037
C            1.92190332923858       -5.08436444307729       -2.76119408141560
C            3.11549846727272       -4.98347718725683       -3.46811508789174
C            3.98327791650815       -3.93120177832400       -3.24464032044520
C            3.64266802473023       -2.97815106128350       -2.29448660931996
C            4.31293923278617       -1.79793306306633       -1.81078835673895
C            5.52401950672118       -1.20088549219021       -2.16612901394933
C            5.94301506271531       -0.07323198816368       -1.49565370944205
C            5.19955059386517        0.39025711005236       -0.40971061114049
C            5.44014570847443        1.42832427076184        0.55344275029853
C            6.44588479070764        2.37691529034042        0.69605397028824
C            6.41211740101931        3.21865515855651        1.78956258909522
C            5.40396364499699        3.10966486822017        2.74501558577176
C            4.39422001556566        2.17309819696696        2.62567974275193
C            4.40581298265990        1.34411602922828        1.51376250274129
N            3.53293592534471        0.32854393864063        1.15674327881961
C            2.60156679624577       -0.28096331576425        2.01111779722661
C            1.62110382783130        0.46756934372498        2.65160932576087
C            0.74231346162590       -0.15254629645758        3.52022153301107
C            0.81702105859445       -1.51730336244776        3.74239677195591
C            1.78748965626649       -2.26600563168518        3.09825991990915
C            2.68266440500055       -1.65213600935922        2.24327251034766
C            3.99821115572863       -0.24149836982482       -0.01241725261066
C            3.49185886090027       -1.26682695393652       -0.79757699219963
N            0.08442793920952       -2.32285662246573       -0.16251624228790
C           -3.51811036638755       -2.34222704525430       -0.39373356044549
C           -4.58370181486345       -3.20622991858846       -0.22090297549255
H           -5.23759340678850       -5.07751665894099        0.58889655896158
H           -3.01124851320486       -5.68203544723665        1.46113889433077
H           -1.09887669060697       -4.14163152081687        1.13381267435351
H            2.25900461796170        1.79924088651243       -0.23137253947173
H            3.69948911607212        3.39087369887178       -1.44460986908628
H            2.76344115698870        4.87297856919421       -3.16411279350673
H            0.34602172560359        4.81881181631783       -3.68658873878157
H           -2.20726967073878        4.22168170169104       -3.89996526516528
H           -4.54007341844107        3.39033765507019       -3.63614902753850
H           -6.81450813441427        2.31364526894430       -2.82758007583183
H           -8.64653174394250        1.31255051536021       -1.49848955059439
H           -8.17486789598441        0.23411517617291        0.65246393901237
H           -5.88814732791435        0.07954824692419        1.52434740749324
H           -3.91356389435852       -0.96819757658347        1.71680483392951
H           -3.30494954610205       -0.97215400190883        4.09804915867233
H           -2.19394232189349        0.99424216194138        5.09860889258926
H           -1.60532569713710        2.92435278583076        3.66917420284985
H           -2.24663608904759        2.94269597525881        1.29669676936319
H            0.63622102307196       -4.22079681015113       -1.26530998417508
H            1.26082890139549       -5.91691082775636       -2.95151850893646
H            3.36554628370008       -5.73861520009185       -4.19826310787675
H            4.90972024670353       -3.84914301820790       -3.79222073867654
H            6.11652166776080       -1.62278060580423       -2.96270924371786
H            6.85807980923569        0.42610757585811       -1.77347464930983
H            7.23616184799788        2.44802695118438       -0.03574316598015
H            7.18143845233383        3.96555356810739        1.91612754430118
H            5.41211217242701        3.76893129746797        3.60036428300753
H            3.63078354057794        2.08568561242780        3.38332327464028
H            1.53954689616112        1.52617903906583        2.45430798555799
H           -0.01722016655351        0.43267298214348        4.01303790342699
H            0.12160591326041       -1.99429250583104        4.41617921794962
H            1.85707393197841       -3.33054049551267        3.26785913945676
H            3.45818543121103       -2.23007839802235        1.76146757838924
H           -3.64085397664617       -1.40709440082638       -0.91792328158955
H           -5.55612095772963       -2.94254668653865       -0.61008678311554

          :  Hamiltonian                  GFN2-xTB          :
         :: gradient norm              0.000047824145 Eh/a0 ::
         :: HOMO-LUMO gap              2.183660079571 eV    ::
         :: SCC energy              -163.560094807398 Eh    ::
         :: -> dispersion             -0.170619176308 Eh    ::
         :: -> Gsolv                  -0.058781466149 Eh    ::
         :: repulsion energy           2.943321622142 Eh    ::

    * Orbital Energies and Occupations

         #    Occupation            Energy/Eh            Energy/eV
      -------------------------------------------------------------
         1        2.0000           -0.7012547             -19.0821
       ...           ...                  ...                  ...
       137        2.0000           -0.4170879             -11.3495
       138        2.0000           -0.4162737             -11.3274
       139        2.0000           -0.4141934             -11.2708
       140        2.0000           -0.4130230             -11.2389
       141        2.0000           -0.4121962             -11.2164
       142        2.0000           -0.3953945             -10.7592
       143        2.0000           -0.3946159             -10.7380
       144        2.0000           -0.3886620             -10.5760
       145        2.0000           -0.3872195             -10.5368
       146        2.0000           -0.3807101             -10.3596
       147        2.0000           -0.3801117             -10.3434
       148        2.0000           -0.3697659             -10.0618
       149        2.0000           -0.3682063             -10.0194 (HOMO)
       150                         -0.2879582              -7.8357 (LUMO)
       151                         -0.2742919              -7.4639
       152                         -0.2653122              -7.2195
       153                         -0.2554628              -6.9515
       154                         -0.2437890              -6.6338
       155                         -0.2425651              -6.6005
       156                         -0.2413478              -6.5674
       157                         -0.2398576              -6.5269
       158                         -0.2383473              -6.4858
       159                         -0.2358670              -6.4183
       160                         -0.2347643              -6.3883
       ...                                ...                  ...
       291                          0.7472486              20.3337
      -------------------------------------------------------------
                  HL-Gap            0.0802480 Eh            2.1837 eV

     #   Z          covCN         q      C6AA      α(0)
     1   6 C        2.920    -0.024    28.613     8.772
     2   6 C        2.918    -0.028    28.695     8.784
     3   6 C        2.923    -0.025    28.622     8.773
     4   6 C        2.985    -0.003    28.089     8.694
     5   6 C        3.002     0.219    23.392     7.934
     6   7 N        1.846    -0.333    29.482     8.047
     7   6 C        2.948     0.287    22.160     7.721
     8   7 N        2.796    -0.073    22.656     7.069
     9   6 C        3.060     0.058    26.634     8.463
    10   6 C        2.912    -0.050    29.234     8.866
    11   6 C        2.924    -0.034    28.858     8.810
    12   6 C        2.920    -0.037    28.927     8.820
    13   6 C        2.914    -0.037    28.914     8.818
    14   6 C        3.060    -0.015    28.316     8.726
    15   6 C        3.061    -0.023    28.509     8.756
    16   6 C        2.915    -0.048    29.195     8.860
    17   6 C        2.914    -0.044    29.081     8.843
    18   6 C        3.068    -0.025    28.547     8.761
    19   6 C        3.067    -0.017    28.373     8.734
    20   6 C        2.913    -0.035    28.881     8.812
    21   6 C        2.919    -0.041    29.027     8.835
    22   6 C        2.923    -0.034    28.859     8.810
    23   6 C        2.910    -0.052    29.292     8.875
    24   6 C        3.075     0.049    26.822     8.491
    25   7 N        2.795    -0.046    22.128     6.987
    26   6 C        2.916     0.077    26.270     8.405
    27   6 C        2.922    -0.043    29.067     8.841
    28   6 C        2.920    -0.031    28.764     8.795
    29   6 C        2.919    -0.035    28.866     8.811
    30   6 C        2.920    -0.030    28.761     8.794
    31   6 C        2.923    -0.045    29.111     8.848
    32   6 C        3.062     0.049    26.832     8.494
    33   6 C        3.046     0.048    26.874     8.502
    34   7 N        1.848    -0.341    29.696     8.076
    35   6 C        2.946     0.293    22.053     7.702
    36   7 N        2.799    -0.072    22.637     7.066
    37   6 C        3.065     0.058    26.643     8.464
    38   6 C        2.910    -0.051    29.274     8.872
    39   6 C        2.924    -0.035    28.881     8.813
    40   6 C        2.919    -0.039    28.980     8.828
    41   6 C        2.913    -0.037    28.916     8.818
    42   6 C        3.067    -0.016    28.334     8.728
    43   6 C        3.057    -0.024    28.548     8.762
    44   6 C        2.914    -0.048    29.188     8.859
    45   6 C        2.913    -0.044    29.089     8.844
    46   6 C        3.063    -0.025    28.557     8.763
    47   6 C        3.071    -0.017    28.356     8.731
    48   6 C        2.913    -0.035    28.878     8.812
    49   6 C        2.919    -0.041    29.022     8.834
    50   6 C        2.924    -0.034    28.858     8.810
    51   6 C        2.910    -0.052    29.302     8.876
    52   6 C        3.073     0.050    26.809     8.490
    53   7 N        2.798    -0.058    22.364     7.024
    54   6 C        2.915     0.075    26.333     8.415
    55   6 C        2.921    -0.044    29.085     8.844
    56   6 C        2.921    -0.034    28.858     8.809
    57   6 C        2.920    -0.035    28.874     8.812
    58   6 C        2.920    -0.029    28.727     8.789
    59   6 C        2.924    -0.044    29.092     8.845
    60   6 C        3.073     0.049    26.823     8.492
    61   6 C        3.059     0.050    26.831     8.494
    62   7 N        1.848    -0.344    29.796     8.090
    63   6 C        2.924    -0.024    28.611     8.772
    64   6 C        2.918    -0.028    28.701     8.785
    65   1 H        0.926     0.049     2.329     2.386
    66   1 H        0.926     0.046     2.370     2.407
    67   1 H        0.926     0.043     2.409     2.427
    68   1 H        0.926     0.053     2.279     2.361
    69   1 H        0.926     0.037     2.492     2.469
    70   1 H        0.926     0.042     2.426     2.436
    71   1 H        0.926     0.042     2.425     2.435
    72   1 H        0.926     0.040     2.445     2.445
    73   1 H        0.926     0.042     2.420     2.433
    74   1 H        0.926     0.036     2.497     2.471
    75   1 H        0.926     0.036     2.497     2.471
    76   1 H        0.926     0.038     2.480     2.463
    77   1 H        0.926     0.034     2.529     2.487
    78   1 H        0.926     0.043     2.410     2.428
    79   1 H        0.926     0.040     2.455     2.450
    80   1 H        0.926     0.041     2.436     2.441
    81   1 H        0.926     0.039     2.464     2.455
    82   1 H        0.926     0.029     2.605     2.524
    83   1 H        0.926     0.048     2.340     2.392
    84   1 H        0.926     0.038     2.473     2.459
    85   1 H        0.926     0.041     2.440     2.443
    86   1 H        0.926     0.041     2.433     2.439
    87   1 H        0.926     0.040     2.448     2.447
    88   1 H        0.926     0.042     2.419     2.432
    89   1 H        0.926     0.038     2.475     2.460
    90   1 H        0.926     0.037     2.484     2.465
    91   1 H        0.926     0.037     2.488     2.466
    92   1 H        0.926     0.030     2.593     2.518
    93   1 H        0.926     0.036     2.503     2.474
    94   1 H        0.926     0.043     2.412     2.429
    95   1 H        0.926     0.040     2.447     2.446
    96   1 H        0.926     0.039     2.458     2.451
    97   1 H        0.926     0.030     2.583     2.513
    98   1 H        0.926     0.044     2.395     2.420
    99   1 H        0.926     0.045     2.389     2.417

molecular dipole:
                 x           y           z       tot (Debye)
 q only:       -0.694      -0.203       0.639
   full:       -0.676      -0.281       0.778       2.714

 projected vibrational frequencies (cm⁻¹)
eigval :       -0.00    -0.00     0.00     0.00     0.00     0.00
eigval :       10.66    19.90    21.79    27.05    29.92    34.53
eigval :       37.92    44.46    47.34    50.38    58.61    64.93
eigval :       68.56    74.87    82.02    84.66    96.09   102.54
eigval :      103.99   108.84   116.47   127.88   130.97   148.16
eigval :      149.03   165.80   174.57   184.59   196.81   202.41
eigval :      221.78   223.22   226.34   230.74   236.84   264.18
eigval :      270.59   277.49   282.43   292.83   296.44   318.96
eigval :      321.11   325.96   329.55   334.45   361.80   371.34
eigval :      383.87   386.25   388.79   395.41   402.08   405.95
eigval :      410.62   414.64   426.47   443.29   451.68   472.06
eigval :      473.85   475.45   476.92   495.37   498.46   500.40
eigval :      531.70   535.13   540.22   541.94   551.58   556.72
eigval :      557.74   559.83   579.60   583.35   586.70   589.17
eigval :      591.12   596.96   606.20   610.15   618.35   621.75
eigval :      629.24   630.17   637.69   643.17   651.43   662.53
eigval :      667.71   668.22   677.22   680.42   684.78   689.94
eigval :      692.95   700.01   702.28   709.47   711.00   732.63
eigval :      750.66   760.01   766.44   768.30   769.78   772.36
eigval :      774.66   775.27   779.96   792.44   794.31   819.37
eigval :      820.37   820.77   832.14   864.36   865.72   868.73
eigval :      874.73   877.80   878.31   880.91   893.42   893.84
eigval :      897.47   900.81   902.49   903.27   904.55   906.89
eigval :      910.87   911.68   912.52   916.91   916.94   919.24
eigval :      921.47   921.71   922.41   929.95   930.02   930.84
eigval :      931.42   935.95   937.30   937.97   953.97   965.62
eigval :      996.41   997.09  1001.22  1043.42  1047.85  1068.88
eigval :     1069.69  1070.96  1074.46  1075.80  1080.57  1082.63
eigval :     1092.06  1096.09  1098.00  1109.79  1118.77  1119.97
eigval :     1127.91  1141.52  1146.10  1149.09  1151.66  1164.45
eigval :     1171.45  1173.26  1174.88  1175.03  1175.39  1176.65
eigval :     1180.16  1181.35  1183.32  1188.26  1197.31  1199.29
eigval :     1208.49  1213.33  1222.36  1231.87  1232.97  1240.65
eigval :     1243.32  1263.41  1266.60  1268.29  1270.52  1274.66
eigval :     1282.25  1283.77  1296.39  1301.13  1303.75  1308.94
eigval :     1318.86  1320.85  1323.13  1340.10  1348.19  1352.60
eigval :     1357.17  1357.68  1358.16  1366.12  1377.89  1387.51
eigval :     1391.22  1395.28  1396.41  1415.77  1418.95  1423.71
eigval :     1423.78  1428.02  1435.23  1436.60  1441.90  1465.69
eigval :     1466.34  1473.20  1474.57  1476.46  1478.65  1479.34
eigval :     1480.57  1484.12  1520.19  1529.77  1567.04  1568.44
eigval :     1579.99  1581.59  1582.34  1584.98  1585.02  1587.74
eigval :     1591.44  1592.89  1594.25  1596.49  1598.10  1601.79
eigval :     1602.44  1607.42  1609.64  1613.90  3069.92  3074.31
eigval :     3074.70  3077.67  3078.04  3078.37  3079.00  3080.00
eigval :     3080.40  3082.18  3083.11  3083.93  3084.51  3085.54
eigval :     3086.85  3087.08  3089.17  3090.66  3091.49  3091.92
eigval :     3092.42  3094.16  3094.55  3095.75  3096.56  3097.54
eigval :     3098.10  3102.48  3102.89  3104.15  3105.21  3111.03
eigval :     3116.70  3117.26  3178.56

   temp. (K)  partition function   enthalpy   heat capacity  entropy
                                   cal/mol     cal/K/mol   cal/K/mol   J/K/mol
 298.15  VIB  0.992E+21            28382.745    182.882    174.954
         ROT  0.105E+09              888.752      2.981     39.682
         INT  0.104E+30            29271.497    185.863    214.636
         TR   0.226E+29             1481.254      4.968     45.962
         TOT                       30752.7508   190.8313   260.5980  1090.3420

       T/K    H(0)-H(T)+PV         H(T)/Eh          T*S/Eh         G(T)/Eh
   ------------------------------------------------------------------------
    298.15    0.490076E-01    0.796836E+00    0.123819E+00    0.673017E+00
   ------------------------------------------------------------------------

         :::::::::::::::::::::::::::::::::::::::::::::::::::::
         ::                  THERMODYNAMIC                  ::
         :::::::::::::::::::::::::::::::::::::::::::::::::::::
         :: total free energy        -159.943756117716 Eh   ::
         ::.................................................::
         :: total energy             -160.616773183247 Eh   ::
         :: zero point energy           0.747827954101 Eh   ::
         :: G(RRHO) w/o ZPVE           -0.074810888570 Eh   ::
         :: G(RRHO) contrib.            0.673017065531 Eh   ::
         :::::::::::::::::::::::::::::::::::::::::::::::::::::

           -------------------------------------------------
          | TOTAL ENERGY             -160.616773183247 Eh   |
          | TOTAL ENTHALPY           -159.819937601219 Eh   |
          | TOTAL FREE ENERGY        -159.943756117716 Eh   |
          | GRADIENT NORM               0.000047829895 Eh/α |
          | HOMO-LUMO GAP               2.183660113724 eV   |
           -------------------------------------------------

 * finished run on 2025/09/04 at 19:55:33.931
