   * xtb version 6.7.1 (edcfbbe) compiled by 'albert@albert-system' on 2024-07-22

   ID    Z sym.   atoms
    1    6 C      1-5, 7, 9-24, 26-33, 35, 37-52, 54-61, 63, 64
    2    7 N      6, 8, 25, 34, 36, 53, 62
    3    1 H      65-99

          program call               : xtb data2507/toluene/PBICT/PBICT_toluene_T1_crest.xyz --gfn 2 --uhf 2 --gbsa toluene --ohess vtight --parallel 40 --molden --ceasefiles --namespace data2507/toluene/PBICT/PBICT_toluene_T1_finalOpt
      * Solvation model:               GBSA
        Solvent                        toluene
        Solvent mass                       9.2140E+01 g/mol
          :  Hamiltonian                  GFN2-xTB          :
 * total energy  :  -160.5534169 Eh     change       -0.4631792E-07 Eh
 * total energy  :  -160.5535256 Eh     change       -0.1087339E-03 Eh
 * total energy  :  -160.5536412 Eh     change       -0.1156476E-03 Eh
 * total energy  :  -160.5536969 Eh     change       -0.5561999E-04 Eh
 * total energy  :  -160.5537698 Eh     change       -0.7296262E-04 Eh
 * total energy  :  -160.5538311 Eh     change       -0.6125317E-04 Eh
 * total energy  :  -160.5538555 Eh     change       -0.2437633E-04 Eh
 * total energy  :  -160.5538687 Eh     change       -0.1319677E-04 Eh
 * total energy  :  -160.5538749 Eh     change       -0.6245490E-05 Eh
 * total energy  :  -160.5538799 Eh     change       -0.4980905E-05 Eh
 * total energy  :  -160.5538871 Eh     change       -0.1255409E-05 Eh
 * total energy  :  -160.5538881 Eh     change       -0.9538966E-06 Eh
 * total energy  :  -160.5538888 Eh     change       -0.6844369E-06 Eh
 * total energy  :  -160.5538893 Eh     change       -0.4755366E-06 Eh
 * total energy  :  -160.5538896 Eh     change       -0.3752214E-06 Eh
 * total energy  :  -160.5538899 Eh     change       -0.2495056E-06 Eh
 * total energy  :  -160.5538901 Eh     change       -0.2137714E-06 Eh
 * total energy  :  -160.5538903 Eh     change       -0.2250562E-06 Eh
 * total energy  :  -160.5538903 Eh     change       -0.7161162E-08 Eh
   *** GEOMETRY OPTIMIZATION CONVERGED AFTER 22 ITERATIONS ***

 final structure:
================
99
 xtb: 6.7.1 (edcfbbe)
C           -7.56441325394564       -0.08244102068665       -0.03114698357102
C           -6.87925617355949        0.90518473101139        0.66775598215006
C           -5.50353989408177        0.92077910010358        0.68806692829582
C           -4.76316187555623       -0.05946882611149        0.00163339833245
C           -3.33561923938676       -0.04661549424720        0.01397122974408
N           -2.68435882424079        0.99703879291462        0.59053761514011
C           -1.38463473478877        0.97076655648407        0.53677260824715
N           -0.65643036078239        2.05691942843327        0.99825541683629
C           -1.06696445262474        3.38075599734119        0.86554011201236
C           -2.34346047068904        3.89494557163639        0.72473951751531
C           -2.47821453216257        5.26955269515684        0.61337228932020
C           -1.36786010258005        6.10940556814080        0.62876872365469
C           -0.08842053848225        5.59796492568184        0.74755907022371
C            0.06820578030170        4.22292242426723        0.86751508164868
C            1.21909490712687        3.37138740081426        0.99934783544617
C            2.58356259847914        3.64658460447194        0.96026316107754
C            3.48650926826139        2.60712895034239        1.07348321105973
C            3.01621857899816        1.32131114469492        1.32548071295236
C            3.70854874879328        0.09920950164956        1.61572786001067
C            5.05490004912241       -0.23621617371941        1.64673259813655
C            5.40824482089890       -1.51755593924574        2.02570903139239
C            4.43826779802746       -2.44282247019905        2.40017204415104
C            3.09080771594788       -2.12595032135767        2.38264422729774
C            2.72417059983806       -0.85802483470425        1.95508053147004
N            1.46993644767781       -0.27390702577834        1.84966857766093
C            0.27523510271450       -0.82940332094365        2.31822568078903
C           -0.58483072513944       -0.05773593327902        3.10554010952818
C           -1.77003077556158       -0.59230341927930        3.57018514570644
C           -2.10899741719197       -1.90452746127147        3.28049420216551
C           -1.23778878254848       -2.68760634190594        2.53793818513413
C           -0.05117849773645       -2.16172615187037        2.06663483483423
C            1.62974335230896        1.03095914382492        1.43781428196798
C            0.72133527462111        2.04719942161849        1.14011568838480
N           -0.63039380721533       -0.01257952621050        0.01426820487793
C           -1.35990784703409       -1.01654732340937       -0.50407921077128
N           -0.60463983042472       -2.08335508199167       -0.96764487645559
C           -0.96958706885090       -3.41786576592589       -0.81522929350950
C           -2.22506612961058       -3.96994742428942       -0.63423196972762
C           -2.31301879075027       -5.34679359319703       -0.50533879634569
C           -1.17735302166732       -6.15146503687117       -0.54330284324891
C            0.08152434509614       -5.60171934310871       -0.70340758697718
C            0.19153336059532       -4.22370882670520       -0.84051172691107
C            1.31084543707981       -3.33704470554187       -1.00775550355830
C            2.68396984876891       -3.56831473690477       -1.00329477032873
C            3.54990206127849       -2.50120903266676       -1.14525119282932
C            3.03265334039646       -1.23194963057488       -1.38886398810424
C            3.67817219312224        0.01073052241694       -1.69898287634826
C            5.01180874086398        0.38924903921945       -1.76514974024571
C            5.31379981934239        1.68057324199462       -2.15466867959141
C            4.30538757260299        2.57358336340099       -2.50521712365977
C            2.96971266095497        2.21353363192122       -2.45273920373275
C            2.65540779615685        0.93542969113265       -2.01406196544464
N            1.42351169639898        0.31207144116514       -1.87545989629936
C            0.19979274396403        0.83104398302076       -2.30952387280906
C           -0.65836208450616        0.03377691901066       -3.07326708354175
C           -1.87394034075835        0.53087854520398       -3.49958127254326
C           -2.24635994208505        1.83037100373293       -3.19437160266464
C           -1.37786532431680        2.64004613411906       -2.47721533596413
C           -0.16079500827594        2.15200332831383       -2.04468180949692
C            1.63508161156843       -0.98615139416800       -1.46614945419431
C            0.76765687933938       -2.02997159642692       -1.14239919090541
N           -2.65836261788464       -1.07693476306051       -0.55577137588765
C           -5.47126759803479       -1.05228170946407       -0.70088640541975
C           -6.84710030013514       -1.05905091037356       -0.71313543875100
H           -8.64444005125446       -0.09084112432858       -0.04420849446501
H           -7.43337492422180        1.66558114982962        1.20147662305993
H           -4.96814180560736        1.67868443330506        1.24006481510701
H           -3.19493022644801        3.23538247960822        0.69604751516193
H           -3.46503082115096        5.69568945121479        0.50966357922249
H           -1.51093041356763        7.17610277049486        0.54059580658100
H            0.77121960831171        6.25036270084454        0.75231461186647
H            2.92314479481888        4.66104202564913        0.82350011321737
H            4.54701953108753        2.78719863139690        1.00614813169844
H            5.80375850163049        0.49347914169469        1.38217812419555
H            6.44919706581177       -1.80268073588361        2.05033076307306
H            4.74027499987395       -3.42881203688992        2.71938240908407
H            2.36159877798551       -2.84887845176378        2.71050580697974
H           -0.31266795475903        0.95631938483601        3.35937385817992
H           -2.43362436286201        0.01963036250730        4.16345953784350
H           -3.04308142766837       -2.31494631043754        3.63258162461791
H           -1.48981982378399       -3.71330599262255        2.31242049991656
H            0.60434597922448       -2.76713684857183        1.46211330098637
H           -3.09610398480478       -3.33711525335305       -0.58895417305744
H           -3.28250510823401       -5.80264664176877       -0.36957576137558
H           -1.28416292328772       -7.22108924291710       -0.44027485637172
H            0.96082335535869       -6.22701601462173       -0.72539455473967
H            3.05947063834320       -4.57060407906343       -0.87077342372320
H            4.61699751405976       -2.64729023727807       -1.10547007364901
H            5.79059128036648       -0.31524745346562       -1.51930497372366
H            6.34406860761084        1.99890239181662       -2.20653297871471
H            4.56718262658452        3.56826050638122       -2.83293314319796
H            2.20912717378507        2.91158219647175       -2.76293170703356
H           -0.36150701409691       -0.97049283686504       -3.33815681093981
H           -2.53557696316119       -0.10091538904828       -4.07390621933241
H           -3.20446448732163        2.21069266839639       -3.51433014150401
H           -1.65628867784167        3.65638046293107       -2.24060642334083
H            0.49329214896163        2.77665150940234       -1.45830488844563
H           -4.91028840751215       -1.80123022572946       -1.23963944468911
H           -7.37603087066802       -1.82834575393008       -1.25953310591171

          :  Hamiltonian                  GFN2-xTB          :
         :: gradient norm              0.000063613907 Eh/a0 ::
         :: HOMO-LUMO gap              0.185720583284 eV    ::
         :: SCC energy              -163.485752761531 Eh    ::
         :: -> dispersion             -0.193486573362 Eh    ::
         :: -> Gsolv                  -0.052648256406 Eh    ::
         :: repulsion energy           2.931862427931 Eh    ::

    * Orbital Energies and Occupations

         #    Occupation            Energy/Eh            Energy/eV
      -------------------------------------------------------------
         1        2.0000           -0.6921801             -18.8352
       ...           ...                  ...                  ...
       138        2.0000           -0.4130552             -11.2398
       139        2.0000           -0.4110761             -11.1859
       140        2.0000           -0.3964539             -10.7881
       141        2.0000           -0.3941269             -10.7247
       142        2.0000           -0.3919054             -10.6643
       143        2.0000           -0.3879012             -10.5553
       144        2.0000           -0.3821356             -10.3984
       145        2.0000           -0.3806115             -10.3570
       146        1.9985           -0.3737935             -10.1714
       147        1.9889           -0.3719148             -10.1203
       148        1.6108           -0.3680768             -10.0159
       149        1.4018           -0.3672706              -9.9939
       150        0.9732           -0.2769317              -7.5357 (HOMO)
       151        0.0268           -0.2701068              -7.3500 (LUMO)
       152        0.0000           -0.2627808              -7.1506
       153                         -0.2503429              -6.8122
       154                         -0.2428893              -6.6094
       155                         -0.2415614              -6.5732
       156                         -0.2396140              -6.5202
       157                         -0.2386359              -6.4936
       158                         -0.2372966              -6.4572
       159                         -0.2338599              -6.3637
       160                         -0.2312940              -6.2938
       161                         -0.2300644              -6.2604
       ...                                ...                  ...
       291                          0.7469738              20.3262
      -------------------------------------------------------------
                  HL-Gap            0.0068249 Eh            0.1857 eV

     #   Z          covCN         q      C6AA      α(0)
     1   6 C        2.918    -0.046    29.137     8.852
     2   6 C        2.915    -0.036    28.892     8.814
     3   6 C        2.923    -0.041    29.016     8.834
     4   6 C        2.977    -0.015    28.373     8.737
     5   6 C        2.975     0.174    24.260     8.079
     6   7 N        1.842    -0.334    29.522     8.052
     7   6 C        2.925     0.275    22.359     7.754
     8   7 N        2.807    -0.052    22.245     7.005
     9   6 C        3.067     0.055    26.710     8.475
    10   6 C        2.910    -0.045    29.120     8.849
    11   6 C        2.924    -0.035    28.874     8.812
    12   6 C        2.919    -0.037    28.913     8.818
    13   6 C        2.912    -0.036    28.891     8.814
    14   6 C        3.062    -0.017    28.359     8.733
    15   6 C        3.060    -0.026    28.594     8.769
    16   6 C        2.913    -0.040    28.991     8.829
    17   6 C        2.912    -0.039    28.968     8.826
    18   6 C        3.066    -0.024    28.523     8.758
    19   6 C        3.068    -0.013    28.267     8.718
    20   6 C        2.912    -0.031    28.781     8.797
    21   6 C        2.920    -0.034    28.853     8.808
    22   6 C        2.923    -0.034    28.840     8.807
    23   6 C        2.910    -0.047    29.160     8.855
    24   6 C        3.068     0.045    26.920     8.508
    25   7 N        2.800    -0.022    21.675     6.915
    26   6 C        2.912     0.078    26.255     8.402
    27   6 C        2.923    -0.041    29.031     8.836
    28   6 C        2.919    -0.027    28.670     8.781
    29   6 C        2.919    -0.033    28.813     8.802
    30   6 C        2.919    -0.030    28.742     8.791
    31   6 C        2.921    -0.042    29.036     8.836
    32   6 C        3.058     0.051    26.790     8.488
    33   6 C        3.055     0.054    26.738     8.480
    34   7 N        1.854    -0.385    30.933     8.243
    35   6 C        2.925     0.275    22.361     7.755
    36   7 N        2.807    -0.052    22.235     7.003
    37   6 C        3.067     0.055    26.710     8.475
    38   6 C        2.910    -0.045    29.117     8.848
    39   6 C        2.924    -0.035    28.874     8.812
    40   6 C        2.919    -0.037    28.913     8.818
    41   6 C        2.912    -0.036    28.890     8.814
    42   6 C        3.062    -0.017    28.360     8.733
    43   6 C        3.060    -0.026    28.595     8.769
    44   6 C        2.913    -0.040    28.987     8.828
    45   6 C        2.912    -0.039    28.966     8.825
    46   6 C        3.066    -0.023    28.522     8.757
    47   6 C        3.067    -0.013    28.266     8.718
    48   6 C        2.912    -0.031    28.781     8.797
    49   6 C        2.920    -0.034    28.852     8.808
    50   6 C        2.923    -0.034    28.840     8.807
    51   6 C        2.910    -0.047    29.158     8.854
    52   6 C        3.068     0.045    26.920     8.508
    53   7 N        2.800    -0.022    21.676     6.915
    54   6 C        2.912     0.078    26.261     8.403
    55   6 C        2.922    -0.041    29.026     8.835
    56   6 C        2.918    -0.026    28.663     8.779
    57   6 C        2.919    -0.032    28.809     8.802
    58   6 C        2.919    -0.030    28.741     8.791
    59   6 C        2.921    -0.042    29.032     8.836
    60   6 C        3.057     0.051    26.794     8.489
    61   6 C        3.055     0.054    26.738     8.480
    62   7 N        1.842    -0.334    29.515     8.051
    63   6 C        2.923    -0.041    29.018     8.834
    64   6 C        2.915    -0.036    28.892     8.814
    65   1 H        0.926     0.021     2.717     2.578
    66   1 H        0.925     0.021     2.715     2.577
    67   1 H        0.926     0.025     2.652     2.547
    68   1 H        0.926     0.050     2.324     2.384
    69   1 H        0.926     0.038     2.480     2.463
    70   1 H        0.926     0.041     2.434     2.440
    71   1 H        0.926     0.043     2.405     2.425
    72   1 H        0.926     0.049     2.331     2.387
    73   1 H        0.926     0.050     2.314     2.379
    74   1 H        0.926     0.047     2.354     2.399
    75   1 H        0.926     0.046     2.369     2.407
    76   1 H        0.926     0.044     2.392     2.419
    77   1 H        0.926     0.037     2.496     2.470
    78   1 H        0.926     0.031     2.573     2.508
    79   1 H        0.926     0.039     2.455     2.450
    80   1 H        0.926     0.039     2.461     2.453
    81   1 H        0.926     0.038     2.476     2.460
    82   1 H        0.926     0.041     2.439     2.442
    83   1 H        0.926     0.049     2.330     2.387
    84   1 H        0.926     0.038     2.480     2.463
    85   1 H        0.926     0.041     2.433     2.439
    86   1 H        0.926     0.043     2.404     2.425
    87   1 H        0.926     0.049     2.329     2.386
    88   1 H        0.926     0.051     2.312     2.378
    89   1 H        0.926     0.047     2.353     2.399
    90   1 H        0.926     0.046     2.368     2.407
    91   1 H        0.926     0.044     2.392     2.419
    92   1 H        0.926     0.036     2.496     2.471
    93   1 H        0.926     0.031     2.575     2.510
    94   1 H        0.926     0.039     2.457     2.451
    95   1 H        0.926     0.039     2.466     2.455
    96   1 H        0.926     0.038     2.478     2.462
    97   1 H        0.926     0.041     2.440     2.443
    98   1 H        0.926     0.026     2.648     2.544
    99   1 H        0.925     0.021     2.716     2.577

molecular dipole:
                 x           y           z       tot (Debye)
 q only:        3.492       0.040      -0.013
   full:        2.975       0.034      -0.007       7.562

 projected vibrational frequencies (cm⁻¹)
eigval :       -0.00    -0.00     0.00     0.00     0.00     0.00
eigval :       11.33    17.51    26.28    37.13    38.89    42.98
eigval :       44.68    50.55    52.15    55.92    56.79    61.71
eigval :       67.23    77.14    89.14    94.15   100.34   109.90
eigval :      118.59   119.70   128.38   129.28   138.93   148.57
eigval :      150.33   164.27   187.50   191.28   193.25   205.75
eigval :      207.69   233.04   234.09   238.27   238.63   267.70
eigval :      270.43   276.57   284.15   292.97   294.39   303.06
eigval :      320.52   325.89   329.98   332.32   358.51   370.64
eigval :      374.91   381.50   387.56   394.95   396.20   404.19
eigval :      408.83   410.57   416.11   438.14   438.68   466.80
eigval :      467.54   467.59   473.40   481.64   485.05   486.18
eigval :      519.43   528.59   535.85   539.09   549.10   549.20
eigval :      553.32   553.77   573.10   580.78   582.54   584.08
eigval :      586.45   588.58   590.55   593.58   600.55   610.81
eigval :      616.58   619.32   629.79   633.57   638.46   648.20
eigval :      649.26   658.56   660.11   672.70   676.10   684.72
eigval :      687.33   687.96   693.85   694.21   705.15   705.81
eigval :      730.51   742.54   746.64   759.29   760.86   767.88
eigval :      770.48   771.78   773.21   789.33   790.33   808.23
eigval :      810.08   810.65   824.14   855.63   859.41   864.52
eigval :      866.40   867.85   869.52   876.55   878.92   880.30
eigval :      882.01   896.83   898.77   900.80   901.88   903.49
eigval :      905.47   906.31   910.53   911.39   914.86   915.16
eigval :      916.26   918.58   919.00   919.57   920.26   923.53
eigval :      927.18   928.00   946.04   948.20   956.63   959.63
eigval :      978.51   990.03   990.58  1004.16  1026.86  1058.79
eigval :     1061.03  1067.18  1070.30  1070.79  1071.99  1079.61
eigval :     1081.05  1083.52  1096.34  1097.14  1113.95  1119.06
eigval :     1119.42  1120.73  1129.01  1138.78  1139.37  1142.29
eigval :     1143.53  1162.85  1163.81  1171.48  1172.90  1176.14
eigval :     1176.44  1178.08  1178.90  1179.74  1181.53  1192.55
eigval :     1195.59  1204.18  1205.39  1213.36  1220.17  1221.64
eigval :     1228.76  1246.41  1251.67  1262.10  1264.92  1265.37
eigval :     1268.01  1275.81  1281.95  1282.51  1288.03  1291.09
eigval :     1306.71  1314.27  1323.34  1323.55  1336.79  1337.04
eigval :     1338.85  1347.71  1349.84  1355.96  1357.83  1363.24
eigval :     1372.44  1373.77  1391.25  1393.19  1410.83  1413.84
eigval :     1422.60  1426.66  1428.28  1432.61  1432.92  1434.84
eigval :     1445.47  1447.56  1450.43  1462.42  1466.12  1466.41
eigval :     1466.51  1472.24  1472.74  1506.11  1536.04  1538.68
eigval :     1539.43  1545.06  1557.22  1558.08  1568.15  1569.66
eigval :     1572.69  1574.87  1575.81  1578.60  1579.49  1580.34
eigval :     1581.20  1587.88  1589.11  1593.26  3055.08  3055.81
eigval :     3076.72  3076.95  3077.62  3079.34  3079.64  3082.96
eigval :     3083.11  3083.38  3083.60  3084.46  3085.69  3087.45
eigval :     3087.62  3088.12  3088.41  3091.12  3091.77  3094.85
eigval :     3096.31  3097.90  3098.10  3098.44  3098.90  3101.01
eigval :     3102.03  3106.65  3107.68  3111.01  3111.58  3114.83
eigval :     3115.60  3116.09  3117.04

   temp. (K)  partition function   enthalpy   heat capacity  entropy
                                   cal/mol     cal/K/mol   cal/K/mol   J/K/mol
 298.15  VIB  0.197E+21            28480.527    186.005    174.558
         ROT  0.800E+08              888.752      2.981     39.144
         INT  0.158E+29            29369.280    188.986    213.702
         TR   0.226E+29             1481.254      4.968     45.962
         TOT                       30850.5336   193.9541   259.6639  1086.4337

       T/K    H(0)-H(T)+PV         H(T)/Eh          T*S/Eh         G(T)/Eh
   ------------------------------------------------------------------------
    298.15    0.491635E-01    0.791953E+00    0.123375E+00    0.668579E+00
   ------------------------------------------------------------------------

         :::::::::::::::::::::::::::::::::::::::::::::::::::::
         ::                  THERMODYNAMIC                  ::
         :::::::::::::::::::::::::::::::::::::::::::::::::::::
         :: total free energy        -159.885311795375 Eh   ::
         ::.................................................::
         :: total energy             -160.553890332065 Eh   ::
         :: zero point energy           0.742789771198 Eh   ::
         :: G(RRHO) w/o ZPVE           -0.074211234508 Eh   ::
         :: G(RRHO) contrib.            0.668578536690 Eh   ::
         :::::::::::::::::::::::::::::::::::::::::::::::::::::

           -------------------------------------------------
          | TOTAL ENERGY             -160.553890332065 Eh   |
          | TOTAL ENTHALPY           -159.761937106187 Eh   |
          | TOTAL FREE ENERGY        -159.885311795375 Eh   |
          | GRADIENT NORM               0.000063830081 Eh/α |
          | HOMO-LUMO GAP               0.185715934804 eV   |
           -------------------------------------------------

 * finished run on 2025/09/04 at 20:12:29.612
