   * xtb version 6.7.1 (edcfbbe) compiled by 'albert@albert-system' on 2024-07-22

   ID    Z sym.   atoms
    1    6 C      1-5, 7, 9-24, 26-33, 35, 37-52, 54-61, 63, 64
    2    7 N      6, 8, 25, 34, 36, 53, 62
    3    1 H      65-99

          program call               : xtb data2507/toluene/PBICT/PBICT_toluene_S0_finalOpt.xtbopt.xyz --gfn 2 --uhf 2 --gbsa toluene --ohess vtight --parallel 40 --molden --ceasefiles --namespace data2507/toluene/PBICT/PBICT_toluene_T1_preOpt
      * Solvation model:               GBSA
        Solvent                        toluene
        Solvent mass                       9.2140E+01 g/mol
          :  Hamiltonian                  GFN2-xTB          :
 * total energy  :  -160.5424692 Eh     change       -0.3140275E-07 Eh
 * total energy  :  -160.5446956 Eh     change       -0.2226415E-02 Eh
 * total energy  :  -160.5462062 Eh     change       -0.1510610E-02 Eh
 * total energy  :  -160.5464454 Eh     change       -0.2391443E-03 Eh
 * total energy  :  -160.5466694 Eh     change       -0.2240434E-03 Eh
 * total energy  :  -160.5467427 Eh     change       -0.7332339E-04 Eh
 * total energy  :  -160.5468175 Eh     change       -0.7480370E-04 Eh
 * total energy  :  -160.5468800 Eh     change       -0.6246481E-04 Eh
 * total energy  :  -160.5469320 Eh     change       -0.5200053E-04 Eh
 * total energy  :  -160.5469630 Eh     change       -0.3101363E-04 Eh
 * total energy  :  -160.5470835 Eh     change       -0.1201633E-05 Eh
 * total energy  :  -160.5470847 Eh     change       -0.1211764E-05 Eh
 * total energy  :  -160.5470858 Eh     change       -0.1151557E-05 Eh
 * total energy  :  -160.5470868 Eh     change       -0.9982703E-06 Eh
 * total energy  :  -160.5470877 Eh     change       -0.8561367E-06 Eh
 * total energy  :  -160.5470883 Eh     change       -0.6571986E-06 Eh
 * total energy  :  -160.5470889 Eh     change       -0.5387147E-06 Eh
 * total energy  :  -160.5470893 Eh     change       -0.4344561E-06 Eh
 * total energy  :  -160.5470893 Eh     change       -0.2687386E-08 Eh
   *** GEOMETRY OPTIMIZATION CONVERGED AFTER 44 ITERATIONS ***

 final structure:
================
99
 xtb: 6.7.1 (edcfbbe)
C            0.23699489663325        5.32400569100893        0.31530777168356
C           -0.90540722489022        4.65295395473925        0.74156348039849
C           -0.97890992067322        3.28157728386590        0.67318429489658
C            0.10104198176374        2.52852896434034        0.16824177803086
C            0.03720260739864        1.10949370498685        0.10193980052175
N           -1.10035727460575        0.47162668383706        0.49050857694230
C           -1.10243369119856       -0.82517930296247        0.38471316344008
N           -2.27218363722618       -1.47351628319212        0.77110252140108
C           -2.29506960599672       -2.57374602367636        1.61944255030069
C           -1.29637646705253       -3.49334305683696        1.88985551458130
C           -1.58047165204063       -4.50775548199398        2.78896742160964
C           -2.82445335803446       -4.59961018844558        3.40758555209479
C           -3.82339657914779       -3.68032476468059        3.14189350651219
C           -3.56170628952783       -2.65768776022603        2.23950530319969
C           -4.34388326177671       -1.56102493498265        1.73490560895878
C           -5.63286312110427       -1.12949284122819        2.03090009399564
C           -6.13799094231347       -0.01340561388568        1.38882653526382
C           -5.38032300840448        0.60617117173072        0.39942457867776
C           -5.68567824077754        1.69009411729455       -0.49372147192308
C           -6.78527342207347        2.52593414040929       -0.63291008082722
C           -6.78174823451862        3.45786663870647       -1.65536499703397
C           -5.71174075604754        3.54446028889107       -2.54134382861098
C           -4.60737790507251        2.71790590761830       -2.42328929520557
C           -4.58920497627248        1.80637265596412       -1.37767821388815
N           -3.63297852486459        0.86151417559566       -1.04351079968867
C           -2.53454242582817        0.53739524063152       -1.85447309892912
C           -1.65759318319011        1.52808995914128       -2.29331316859933
C           -0.60390729498607        1.19352586810962       -3.12482878760656
C           -0.41468804999041       -0.11826088005413       -3.52451736037011
C           -1.29416990815266       -1.10353660528099       -3.09823837006431
C           -2.35169865126352       -0.77989465488523       -2.27044953794158
C           -4.08434661899148        0.14695523922928        0.04172888355350
C           -3.51957884265165       -0.88245375123254        0.79792281109750
N           -0.07188980823880       -1.59670683638351       -0.00084088041169
C            1.01302042455438       -0.88443849935539       -0.34819000530079
N            2.11559544871557       -1.59019165974987       -0.81751907761990
C            2.02696985318072       -2.64986650957984       -1.71369783430682
C            0.96867462609328       -3.50821438121850       -1.95666008099704
C            1.14465522237540       -4.49540652166179       -2.91242714196426
C            2.34115684022321       -4.61970760941579       -3.61332221398169
C            3.39982441319506       -3.76198471500443       -3.37492625250431
C            3.24687420885792       -2.76845879630246       -2.41669802883405
C            4.11748736344992       -1.73905060679513       -1.91516886244931
C            5.40627812114529       -1.35759816016004       -2.27494428791852
C            6.00985603692854       -0.30237579498398       -1.61524548436456
C            5.35273916955691        0.29995897602997       -0.54628359319696
C            5.77130367982803        1.31699745287723        0.37900731552348
C            6.91707613178660        2.09398295980998        0.48153142429907
C            7.02819530371247        2.97056455219353        1.54599376376298
C            6.02662778400842        3.05785683674418        2.50852169494157
C            4.87849267536685        2.28811983106528        2.42856085456860
C            4.74432944837062        1.43469538691003        1.34319671243590
N            3.72170042607713        0.55499139490544        1.02786951731522
C            2.66619249802233        0.22524706683551        1.89079050529835
C            1.87577903289869        1.21856417340655        2.46582873188863
C            0.86096259740041        0.87019163743612        3.33885050125174
C            0.62581700006076       -0.45864538270856        3.64801416681974
C            1.42066360927313       -1.44783870435323        3.08685682241244
C            2.43880363556352       -1.11093440035071        2.21634038782303
C            4.06124589941932       -0.11480970997744       -0.12478653680626
C            3.39284116911110       -1.06858887562129       -0.89448140205341
N            1.11483103468812        0.41305979221504       -0.35136689019385
C            1.24943258999562        3.22313744548011       -0.26514293982553
C            1.31015268791760        4.59458264787095       -0.18808808681924
H            0.28980616954114        6.40117805176013        0.37401396057496
H           -1.74262973127680        5.21698535601809        1.13116309230752
H           -1.86056791666424        2.75445699023268        1.00754788254894
H           -0.33625488746231       -3.41075715009679        1.40626512275856
H           -0.82174633809624       -5.24308555361632        3.01330700204989
H           -3.00984666934892       -5.40329388520487        4.10463488722304
H           -4.78752717749153       -3.75614573476525        3.62102540058168
H           -6.22284282609725       -1.65804263459152        2.76311980697135
H           -7.12293336415767        0.35809485063345        1.62337612064307
H           -7.62422048162748        2.44498999734267        0.04076946159836
H           -7.62456898792933        4.12111187143963       -1.77799546266184
H           -5.74367754173824        4.26729863986195       -3.34258495220444
H           -3.79426730323281        2.78038903170732       -3.12945715907277
H           -1.78195054417819        2.54353355054620       -1.95062709489565
H            0.08267900744532        1.96317616325607       -3.44524603947944
H            0.41529441382125       -0.37722979912310       -4.16532415510051
H           -1.15319713133583       -2.12599003303953       -3.41507435913375
H           -3.04573960598874       -1.54311604486692       -1.94652356579851
H            0.04586586179341       -3.40196257336573       -1.40947929927234
H            0.33694333092289       -5.18302427937368       -3.11645760988439
H            2.44238141030447       -5.40076859119712       -4.35216253502261
H            4.32783748471121       -3.86363653599713       -3.91649985258445
H            5.91932124411414       -1.87555122898524       -3.07001573608614
H            6.99528225111939        0.03246624890375       -1.89812676420612
H            7.70313506679155        2.01115817602784       -0.25302951831947
H            7.90832110358112        3.58840517662296        1.64084072045001
H            6.14722893672984        3.73688232971964        3.33913229860691
H            4.12068244182526        2.34970163379950        3.19365504455306
H            2.03153650144630        2.25089676468770        2.19476525885453
H            0.24100862026411        1.64461221713265        3.76600724691089
H           -0.17412463653013       -0.72693808959514        4.32224497287585
H            1.24713718944830       -2.48437300581050        3.33429820980107
H            3.06842720566407       -1.87916513847496        1.78929309160630
H            2.07643876022171        2.65103308779152       -0.65945122345667
H            2.20054610992263        5.11218901770066       -0.52016747917806

          :  Hamiltonian                  GFN2-xTB          :
         :: gradient norm              0.000039740183 Eh/a0 ::
         :: HOMO-LUMO gap              0.144300584548 eV    ::
         :: SCC energy              -163.476798685018 Eh    ::
         :: -> dispersion             -0.176871996149 Eh    ::
         :: -> Gsolv                  -0.056206743632 Eh    ::
         :: repulsion energy           2.929709368058 Eh    ::

    * Orbital Energies and Occupations

         #    Occupation            Energy/Eh            Energy/eV
      -------------------------------------------------------------
         1        2.0000           -0.6965353             -18.9537
       ...           ...                  ...                  ...
       138        2.0000           -0.4169574             -11.3460
       139        2.0000           -0.4157827             -11.3140
       140        2.0000           -0.3985251             -10.8444
       141        2.0000           -0.3983596             -10.8399
       142        2.0000           -0.3966444             -10.7932
       143        2.0000           -0.3898258             -10.6077
       144        2.0000           -0.3863572             -10.5133
       145        2.0000           -0.3860706             -10.5055
       146        1.9985           -0.3773904             -10.2693
       147        1.9584           -0.3742031             -10.1826
       148        1.7811           -0.3724308             -10.1344
       149        1.2620           -0.3702383             -10.0747
       150        0.9419           -0.2787823              -7.5861 (HOMO)
       151        0.0575           -0.2734793              -7.4418 (LUMO)
       152        0.0006           -0.2691301              -7.3234
       153                         -0.2543809              -6.9221
       154                         -0.2464122              -6.7052
       155                         -0.2455726              -6.6824
       156                         -0.2425358              -6.5997
       157                         -0.2422702              -6.5925
       158                         -0.2411754              -6.5627
       159                         -0.2370784              -6.4512
       160                         -0.2354865              -6.4079
       161                         -0.2350969              -6.3973
       ...                                ...                  ...
       291                          0.7428775              20.2147
      -------------------------------------------------------------
                  HL-Gap            0.0053030 Eh            0.1443 eV

     #   Z          covCN         q      C6AA      α(0)
     1   6 C        2.918    -0.050    29.247     8.868
     2   6 C        2.915    -0.037    28.923     8.819
     3   6 C        2.921    -0.044    29.083     8.844
     4   6 C        2.977    -0.014    28.352     8.734
     5   6 C        2.971     0.170    24.335     8.092
     6   7 N        1.847    -0.332    29.461     8.044
     7   6 C        2.926     0.275    22.360     7.755
     8   7 N        2.809    -0.051    22.217     7.001
     9   6 C        3.072     0.058    26.627     8.461
    10   6 C        2.910    -0.045    29.116     8.848
    11   6 C        2.924    -0.035    28.871     8.811
    12   6 C        2.919    -0.037    28.924     8.819
    13   6 C        2.912    -0.035    28.867     8.810
    14   6 C        3.063    -0.016    28.345     8.730
    15   6 C        3.062    -0.023    28.505     8.755
    16   6 C        2.912    -0.039    28.974     8.827
    17   6 C        2.912    -0.039    28.979     8.827
    18   6 C        3.066    -0.021    28.465     8.749
    19   6 C        3.065    -0.013    28.271     8.719
    20   6 C        2.912    -0.033    28.815     8.802
    21   6 C        2.920    -0.035    28.882     8.813
    22   6 C        2.923    -0.033    28.820     8.804
    23   6 C        2.910    -0.046    29.140     8.852
    24   6 C        3.074     0.050    26.811     8.490
    25   7 N        2.801    -0.028    21.775     6.931
    26   6 C        2.914     0.077    26.275     8.405
    27   6 C        2.921    -0.035    28.868     8.811
    28   6 C        2.919    -0.025    28.620     8.773
    29   6 C        2.919    -0.031    28.769     8.796
    30   6 C        2.919    -0.030    28.737     8.791
    31   6 C        2.922    -0.038    28.944     8.823
    32   6 C        3.057     0.052    26.788     8.488
    33   6 C        3.058     0.054    26.735     8.479
    34   7 N        1.842    -0.372    30.571     8.194
    35   6 C        2.925     0.275    22.361     7.755
    36   7 N        2.808    -0.051    22.230     7.003
    37   6 C        3.071     0.058    26.629     8.461
    38   6 C        2.910    -0.045    29.118     8.848
    39   6 C        2.924    -0.035    28.880     8.813
    40   6 C        2.919    -0.037    28.926     8.820
    41   6 C        2.912    -0.035    28.873     8.811
    42   6 C        3.064    -0.016    28.346     8.731
    43   6 C        3.061    -0.023    28.508     8.756
    44   6 C        2.912    -0.039    28.979     8.827
    45   6 C        2.912    -0.039    28.981     8.828
    46   6 C        3.066    -0.021    28.469     8.749
    47   6 C        3.066    -0.013    28.270     8.719
    48   6 C        2.912    -0.033    28.817     8.803
    49   6 C        2.920    -0.035    28.883     8.813
    50   6 C        2.923    -0.033    28.822     8.804
    51   6 C        2.910    -0.046    29.139     8.852
    52   6 C        3.073     0.050    26.811     8.490
    53   7 N        2.801    -0.026    21.751     6.927
    54   6 C        2.914     0.078    26.258     8.403
    55   6 C        2.921    -0.035    28.874     8.812
    56   6 C        2.919    -0.025    28.637     8.776
    57   6 C        2.919    -0.031    28.776     8.797
    58   6 C        2.919    -0.029    28.729     8.790
    59   6 C        2.922    -0.039    28.962     8.825
    60   6 C        3.058     0.052    26.780     8.486
    61   6 C        3.058     0.054    26.736     8.480
    62   7 N        1.848    -0.331    29.438     8.041
    63   6 C        2.922    -0.044    29.082     8.843
    64   6 C        2.915    -0.037    28.925     8.819
    65   1 H        0.926     0.017     2.778     2.607
    66   1 H        0.925     0.016     2.792     2.613
    67   1 H        0.926     0.019     2.743     2.590
    68   1 H        0.926     0.048     2.342     2.393
    69   1 H        0.926     0.038     2.481     2.463
    70   1 H        0.926     0.042     2.427     2.436
    71   1 H        0.926     0.042     2.417     2.431
    72   1 H        0.926     0.048     2.340     2.392
    73   1 H        0.926     0.050     2.319     2.381
    74   1 H        0.926     0.045     2.377     2.411
    75   1 H        0.926     0.045     2.381     2.413
    76   1 H        0.926     0.043     2.407     2.426
    77   1 H        0.926     0.035     2.516     2.480
    78   1 H        0.926     0.043     2.407     2.426
    79   1 H        0.926     0.039     2.465     2.455
    80   1 H        0.926     0.034     2.532     2.488
    81   1 H        0.926     0.039     2.466     2.456
    82   1 H        0.925     0.030     2.593     2.518
    83   1 H        0.926     0.050     2.324     2.384
    84   1 H        0.926     0.037     2.486     2.466
    85   1 H        0.926     0.041     2.433     2.439
    86   1 H        0.926     0.042     2.422     2.434
    87   1 H        0.926     0.048     2.345     2.395
    88   1 H        0.926     0.050     2.323     2.383
    89   1 H        0.926     0.045     2.381     2.413
    90   1 H        0.926     0.045     2.385     2.415
    91   1 H        0.926     0.043     2.411     2.428
    92   1 H        0.926     0.035     2.513     2.479
    93   1 H        0.926     0.044     2.393     2.419
    94   1 H        0.926     0.038     2.469     2.457
    95   1 H        0.926     0.035     2.516     2.480
    96   1 H        0.926     0.039     2.456     2.451
    97   1 H        0.926     0.030     2.584     2.514
    98   1 H        0.926     0.020     2.740     2.588
    99   1 H        0.925     0.016     2.792     2.613

molecular dipole:
                 x           y           z       tot (Debye)
 q only:       -0.039      -0.944      -0.087
   full:       -0.032      -0.933      -0.071       2.381

 projected vibrational frequencies (cm⁻¹)
eigval :       -0.00    -0.00    -0.00     0.00     0.00     0.00
eigval :        7.55    15.66    20.15    21.67    36.01    38.52
eigval :       41.03    45.04    48.16    52.12    62.30    69.99
eigval :       72.58    75.62    78.65    85.75   103.52   108.64
eigval :      111.82   119.84   126.39   131.08   131.31   143.47
eigval :      150.86   157.94   174.56   192.31   198.50   212.40
eigval :      215.37   219.15   230.16   231.72   237.88   258.88
eigval :      266.64   269.61   281.43   292.39   292.93   312.33
eigval :      321.38   328.35   331.37   334.41   351.48   376.87
eigval :      377.27   381.08   386.43   389.06   392.52   395.30
eigval :      408.49   409.82   415.92   438.25   441.22   467.68
eigval :      469.32   470.83   474.04   483.34   487.37   488.88
eigval :      519.20   528.19   535.93   539.07   546.80   549.02
eigval :      551.91   555.91   568.16   575.41   583.56   584.14
eigval :      585.95   586.02   588.55   595.64   602.12   611.33
eigval :      613.46   623.87   632.67   634.04   639.76   646.49
eigval :      650.52   660.61   662.87   670.61   677.62   681.38
eigval :      687.88   688.51   696.44   697.52   706.96   708.73
eigval :      720.93   738.90   756.61   759.70   762.99   768.45
eigval :      770.83   773.62   777.48   791.64   791.86   804.78
eigval :      813.51   814.86   816.03   853.30   861.36   862.67
eigval :      863.82   871.69   874.99   877.39   879.12   886.72
eigval :      887.16   896.61   896.76   902.08   903.18   905.59
eigval :      908.20   911.49   911.84   912.93   914.80   915.88
eigval :      916.18   917.47   919.17   919.99   920.39   921.36
eigval :      928.70   930.89   932.11   936.13   954.15   959.42
eigval :      972.42   973.15   992.24   992.68   994.22  1027.45
eigval :     1061.92  1065.28  1067.71  1069.92  1070.34  1077.31
eigval :     1078.46  1081.17  1095.72  1096.74  1111.96  1116.25
eigval :     1117.85  1119.82  1130.01  1136.70  1140.87  1141.31
eigval :     1145.14  1165.97  1166.88  1173.51  1173.93  1177.19
eigval :     1178.05  1178.59  1179.44  1179.95  1182.34  1191.39
eigval :     1193.73  1203.69  1205.28  1213.29  1220.30  1223.59
eigval :     1235.11  1247.48  1249.94  1264.90  1266.73  1271.19
eigval :     1273.84  1275.87  1280.77  1281.38  1290.85  1291.70
eigval :     1310.91  1313.15  1320.31  1321.08  1339.40  1339.75
eigval :     1340.57  1345.73  1351.02  1357.99  1359.16  1368.01
eigval :     1371.77  1374.01  1392.25  1393.82  1413.26  1413.82
eigval :     1414.48  1423.22  1424.24  1431.67  1432.69  1436.66
eigval :     1439.02  1445.63  1448.03  1466.22  1466.52  1467.07
eigval :     1467.91  1471.96  1472.66  1498.07  1526.42  1544.21
eigval :     1545.35  1546.20  1559.20  1563.74  1570.91  1571.78
eigval :     1573.20  1574.96  1575.72  1577.52  1578.16  1579.78
eigval :     1580.06  1588.19  1591.59  1592.51  3051.43  3052.04
eigval :     3070.33  3071.05  3075.97  3076.63  3077.27  3077.79
eigval :     3078.08  3079.98  3083.11  3083.32  3084.26  3084.95
eigval :     3085.56  3085.78  3085.83  3088.83  3088.88  3094.30
eigval :     3094.49  3094.60  3095.24  3095.44  3095.89  3096.60
eigval :     3097.02  3101.82  3102.15  3102.79  3105.40  3105.67
eigval :     3106.02  3106.97  3108.62

   temp. (K)  partition function   enthalpy   heat capacity  entropy
                                   cal/mol     cal/K/mol   cal/K/mol   J/K/mol
 298.15  VIB  0.128E+22            28611.623    185.547    176.249
         ROT  0.103E+09              888.752      2.981     39.651
         INT  0.133E+30            29500.376    188.528    215.899
         TR   0.226E+29             1481.254      4.968     45.962
         TOT                       30981.6295   193.4963   261.8609  1095.6260

       T/K    H(0)-H(T)+PV         H(T)/Eh          T*S/Eh         G(T)/Eh
   ------------------------------------------------------------------------
    298.15    0.493724E-01    0.791450E+00    0.124419E+00    0.667031E+00
   ------------------------------------------------------------------------

         :::::::::::::::::::::::::::::::::::::::::::::::::::::
         ::                  THERMODYNAMIC                  ::
         :::::::::::::::::::::::::::::::::::::::::::::::::::::
         :: total free energy        -159.880058093471 Eh   ::
         ::.................................................::
         :: total energy             -160.547089314460 Eh   ::
         :: zero point energy           0.742077419727 Eh   ::
         :: G(RRHO) w/o ZPVE           -0.075046198739 Eh   ::
         :: G(RRHO) contrib.            0.667031220989 Eh   ::
         :::::::::::::::::::::::::::::::::::::::::::::::::::::

           -------------------------------------------------
          | TOTAL ENERGY             -160.547089314460 Eh   |
          | TOTAL ENTHALPY           -159.755639525374 Eh   |
          | TOTAL FREE ENERGY        -159.880058093471 Eh   |
          | GRADIENT NORM               0.000039383023 Eh/α |
          | HOMO-LUMO GAP               0.144302730338 eV   |
           -------------------------------------------------

 * finished run on 2025/09/04 at 20:01:53.533
