   * xtb version 6.7.1 (edcfbbe) compiled by 'albert@albert-system' on 2024-07-22

   ID    Z sym.   atoms
    1    6 C      1-20, 22-25, 27-30, 32-34, 36-56
    2    7 N      21, 31, 35
    3    8 O      26
    4    1 H      57-111

          program call               : xtb data2507/toluene/3BPy-mDTC/3BPy-mDTC.xyz --gfn 2 --gbsa toluene --ohess vtight --parallel 40 --molden --ceasefiles --namespace data2507/toluene/3BPy-mDTC/3BPy-mDTC_toluene_S0_preOpt
      * Solvation model:               GBSA
        Solvent                        toluene
        Solvent mass                       9.2140E+01 g/mol
          :  Hamiltonian                  GFN2-xTB          :
 * total energy  :  -152.3983594 Eh     change       -0.1040755E-07 Eh
 * total energy  :  -152.4150317 Eh     change       -0.1667232E-01 Eh
 * total energy  :  -152.4198329 Eh     change       -0.4801155E-02 Eh
 * total energy  :  -152.4212364 Eh     change       -0.1403550E-02 Eh
 * total energy  :  -152.4220506 Eh     change       -0.8141288E-03 Eh
 * total energy  :  -152.4222960 Eh     change       -0.2454279E-03 Eh
 * total energy  :  -152.4224296 Eh     change       -0.1335840E-03 Eh
 * total energy  :  -152.4225430 Eh     change       -0.1134669E-03 Eh
 * total energy  :  -152.4226380 Eh     change       -0.9500095E-04 Eh
 * total energy  :  -152.4227048 Eh     change       -0.6677800E-04 Eh
 * total energy  :  -152.4229921 Eh     change       -0.7311731E-06 Eh
 * total energy  :  -152.4229928 Eh     change       -0.6904014E-06 Eh
 * total energy  :  -152.4229934 Eh     change       -0.6142587E-06 Eh
 * total energy  :  -152.4229941 Eh     change       -0.6518731E-06 Eh
 * total energy  :  -152.4229948 Eh     change       -0.7294499E-06 Eh
 * total energy  :  -152.4229956 Eh     change       -0.8228402E-06 Eh
 * total energy  :  -152.4229965 Eh     change       -0.9050049E-06 Eh
 * total energy  :  -152.4229976 Eh     change       -0.1004846E-05 Eh
 * total energy  :  -152.4229976 Eh     change       -0.9323941E-08 Eh
   *** GEOMETRY OPTIMIZATION CONVERGED AFTER 68 ITERATIONS ***

 final structure:
================
111
 xtb: 6.7.1 (edcfbbe)
C            8.72545560052035       -0.68589684066606       -1.20216079744838
C            7.69934961848588       -1.76424563099533       -1.56421057760037
C            8.19430586103646       -3.10280570534107       -0.99594784643168
C            7.61733477982575       -1.84775940673031       -3.09587646349567
C            6.31581695990601       -1.46734589588072       -1.00198566752125
C            5.27135250577434       -2.36427433715154       -1.26334968175755
C            3.98807253989202       -2.18339971137011       -0.78720583343749
C            3.73417877928074       -1.06761772431349       -0.00500608497747
C            4.76016878602185       -0.13510696177927        0.25008730971397
C            6.04167785361034       -0.33981031512187       -0.24494772488810
C            4.17036745271465        0.92002868180957        1.02908803909916
C            4.68736656322389        2.08209885642029        1.58713321260913
C            3.86502488858612        2.91602559567450        2.32737965805616
C            4.35966308352063        4.21224382185703        2.95481806422630
C            4.18318788320870        4.13723102979231        4.47877446857299
C            3.54232756766150        5.38559901180309        2.39349849382802
C            5.83882685288559        4.48132237118382        2.66081949234147
C            2.52708286654693        2.54132957833174        2.50919519278776
C            1.98744697755705        1.39198864158438        1.96653936410884
C            2.81214997174579        0.58286287708019        1.20053558598756
N            2.55407730240335       -0.62379499821286        0.56987731545727
C            1.32651838838534       -1.28346439131938        0.51971477939821
C            1.25113325609176       -2.64662555668675        0.78786690691714
C            0.03060079500463       -3.31034801994035        0.70242782680869
C           -0.00093808761356       -4.76084003470084        1.00422605785391
O            0.81987275886678       -5.28545635418278        1.73822872725426
C           -1.07445123962376       -5.56183993859709        0.36553731253591
C           -1.65385097086627       -6.62620320876809        1.05628773819669
C           -2.63028769143641       -7.38118760617168        0.43169386935654
C           -2.98664699892931       -7.04651034834723       -0.86787188485272
N           -2.41724615851146       -6.06283949873778       -1.54624310432874
C           -1.48594967994157       -5.34366308020607       -0.95147752667308
C           -1.12823017539948       -2.60628896097507        0.38811898467886
C           -1.06392094807921       -1.23369496537430        0.16022733007624
N           -2.22580012041040       -0.51844012982241       -0.13127337984373
C           -3.42830414742853       -0.61103284192088        0.55172664292344
C           -3.77062367959243       -1.34738330629375        1.67296380288146
C           -5.05500815419874       -1.22420539590258        2.17388296157145
C           -6.01073927676142       -0.38052649277548        1.60197291798205
C           -7.42473792478649       -0.25156330299377        2.15348265527313
C           -7.66387124641504        1.20334288303490        2.58481263065513
C           -8.42795779798185       -0.63950020020698        1.05670672324007
C           -7.67654544555656       -1.15317412522382        3.36601259165827
C           -5.64468516039978        0.37593698030466        0.49559068013629
C           -4.36604430838940        0.27045553885012       -0.02749828320277
C           -3.69508962753082        0.92233565720729       -1.12068089163454
C           -4.10141637918439        1.86189828421900       -2.05457362360440
C           -3.21693605946356        2.30209525437988       -3.03131608577782
C           -3.68202377172200        3.34912384559170       -4.03493898847520
C           -2.59167175051234        3.74116062202329       -5.03686849000900
C           -4.87712507630103        2.79364730251461       -4.82395182572730
C           -4.10473265434957        4.61522540004753       -3.27429058516703
C           -1.93131248492984        1.75550031954323       -3.05677259938321
C           -1.49991029226633        0.81533885395523       -2.13726769097975
C           -2.38000289349209        0.41131340922437       -1.14803023272603
C            0.16457764605266       -0.57972291842293        0.21231835552979
H            9.69292599754527       -0.95045526548684       -1.62466574789390
H            8.84199921879049       -0.60258230195535       -0.12391893435978
H            8.43566523997139        0.28123683926159       -1.60683608163529
H            7.53450820565567       -3.92044781456233       -1.27336036219135
H            8.23976628971222       -3.05635375492192        0.09058988600274
H            9.19002068060299       -3.32537217728720       -1.37422109115025
H            8.60544822856454       -2.02863326114497       -3.51411877584175
H            6.96125836887549       -2.65259375778804       -3.41591596370092
H            7.23501495455902       -0.91366772527735       -3.50314194179092
H            5.46340901822893       -3.23972012516434       -1.86493371758014
H            3.21109470092041       -2.89278090744987       -1.03089057299309
H            6.80047398172025        0.39349308032346       -0.02933583519422
H            5.72928086801790        2.30758077526801        1.43373638018613
H            3.13826383486808        4.02125615850090        4.75314267605523
H            4.73676603641173        3.29045573750472        4.88032400721380
H            4.55786050667473        5.04677983574943        4.94405043072140
H            3.64654760397445        5.43227396653620        1.31106685471194
H            2.48665350983392        5.28331291003964        2.62944846283968
H            3.89609553350254        6.32418488177273        2.81535427523888
H            6.13474260523693        5.42085294827840        3.12365953878024
H            6.01639505638132        4.56386669270085        1.59084715993276
H            6.46880247331476        3.69396885664107        3.06862113809551
H            1.87753578509814        3.16771087873773        3.10151096339770
H            0.95578217438048        1.13418762518282        2.15378951371747
H            2.13135919571050       -3.20258423792593        1.07145180123844
H           -1.33731078956570       -6.83300995828962        2.06871096513087
H           -3.10613559332671       -8.20530175077973        0.93890213006720
H           -3.75660451676314       -7.59092542671196       -1.39841050166987
H           -1.03261606178405       -4.56894596561585       -1.55666222711584
H           -2.07888503351609       -3.11154577136714        0.32652849086321
H           -3.05953104603152       -1.99605265945628        2.16291683849873
H           -5.30455649726635       -1.80842527584533        3.04419449171501
H           -8.66382034142269        1.31170525925418        3.00007266971891
H           -7.56831509451314        1.88683084204050        1.74559994512425
H           -6.94086840000485        1.49407928301735        3.34470630773205
H           -8.34015859133764        0.01020330728874        0.19030092360046
H           -8.25384119452955       -1.66396432802580        0.73282453838279
H           -9.44519642303959       -0.56533404657901        1.43596952060251
H           -8.70182826339241       -1.02196858031281        3.70683317607456
H           -7.01459964786356       -0.89651772305019        4.19014761880053
H           -7.53991592300622       -2.20160126122850        3.11023269255442
H           -6.34256508455858        1.05654794588280        0.03317068630312
H           -5.11166567251009        2.23811235036614       -2.00996209252865
H           -2.27995813890913        2.88646225463559       -5.63311835055747
H           -1.72491792821994        4.15900646097442       -4.52947548509869
H           -2.98037515888361        4.49834033408227       -5.71521715650723
H           -5.21516058272125        3.52409936506093       -5.55626535892025
H           -4.59117806925223        1.88444491294072       -5.34954737525867
H           -5.71068486744731        2.55885313911608       -4.16776043646434
H           -3.26807822351841        5.00285240727584       -2.69594278040785
H           -4.42635770112941        5.38381733740077       -3.97422179655670
H           -4.92502507485058        4.41274916001874       -2.59120248816207
H           -1.23152664834478        2.06150294716984       -3.81663746059673
H           -0.50343962921619        0.40623387664979       -2.21057277215276
H            0.21557479159817        0.48024309522638        0.01983140126274

          :  Hamiltonian                  GFN2-xTB          :
         :: gradient norm              0.000069043560 Eh/a0 ::
         :: HOMO-LUMO gap              1.495314455571 eV    ::
         :: SCC energy              -155.017873867166 Eh    ::
         :: -> dispersion             -0.138253280129 Eh    ::
         :: -> Gsolv                  -0.061368553569 Eh    ::
         :: repulsion energy           2.594876303421 Eh    ::

    * Orbital Energies and Occupations

         #    Occupation            Energy/Eh            Energy/eV
      -------------------------------------------------------------
         1        2.0000           -0.7234207             -19.6853
       ...           ...                  ...                  ...
       130        2.0000           -0.4152521             -11.2996
       131        2.0000           -0.4116580             -11.2018
       132        2.0000           -0.4093286             -11.1384
       133        2.0000           -0.4087588             -11.1229
       134        2.0000           -0.4077244             -11.0947
       135        2.0000           -0.4066491             -11.0655
       136        2.0000           -0.3969435             -10.8014
       137        2.0000           -0.3961436             -10.7796
       138        2.0000           -0.3846445             -10.4667
       139        2.0000           -0.3761666             -10.2360
       140        2.0000           -0.3740855             -10.1794
       141        2.0000           -0.3602965              -9.8042
       142        2.0000           -0.3601407              -9.7999 (HOMO)
       143                         -0.3051889              -8.3046 (LUMO)
       144                         -0.2651134              -7.2141
       145                         -0.2555421              -6.9537
       146                         -0.2509957              -6.8299
       147                         -0.2419618              -6.5841
       148                         -0.2389071              -6.5010
       149                         -0.2200486              -5.9878
       150                         -0.2182686              -5.9394
       151                         -0.2123689              -5.7789
       152                         -0.1899341              -5.1684
       153                         -0.1875116              -5.1025
       ...                                ...                  ...
       279                          0.7445103              20.2592
      -------------------------------------------------------------
                  HL-Gap            0.0549518 Eh            1.4953 eV

     #   Z          covCN         q      C6AA      α(0)
     1   6 C        3.761    -0.107    22.592     6.776
     2   6 C        3.902     0.025    20.099     6.373
     3   6 C        3.761    -0.105    22.543     6.768
     4   6 C        3.761    -0.105    22.550     6.769
     5   6 C        2.972    -0.001    28.053     8.688
     6   6 C        2.931    -0.040    28.989     8.830
     7   6 C        2.908    -0.054    29.342     8.882
     8   6 C        3.074     0.043    26.970     8.515
     9   6 C        3.065    -0.019    28.422     8.742
    10   6 C        2.918    -0.045    29.111     8.848
    11   6 C        3.066    -0.019    28.419     8.742
    12   6 C        2.918    -0.045    29.108     8.847
    13   6 C        2.972    -0.001    28.051     8.688
    14   6 C        3.902     0.025    20.099     6.373
    15   6 C        3.761    -0.105    22.548     6.769
    16   6 C        3.761    -0.105    22.552     6.770
    17   6 C        3.761    -0.107    22.590     6.775
    18   6 C        2.931    -0.040    28.990     8.830
    19   6 C        2.908    -0.055    29.356     8.884
    20   6 C        3.072     0.042    26.974     8.516
    21   7 N        2.801    -0.046    22.128     6.987
    22   6 C        2.908     0.072    26.392     8.424
    23   6 C        2.927    -0.039    28.977     8.828
    24   6 C        2.971    -0.014    28.361     8.735
    25   6 C        2.828     0.229    23.198     7.892
    26   8 O        0.858    -0.403    21.748     6.253
    27   6 C        2.967    -0.020    28.511     8.758
    28   6 C        2.932     0.001    28.017     8.681
    29   6 C        2.912    -0.034    28.853     8.808
    30   6 C        2.912     0.064    26.556     8.450
    31   7 N        1.835    -0.217    26.571     7.639
    32   6 C        2.912     0.063    26.583     8.455
    33   6 C        2.923    -0.050    29.232     8.866
    34   6 C        2.909     0.072    26.392     8.424
    35   7 N        2.800    -0.047    22.143     6.989
    36   6 C        3.070     0.042    26.978     8.517
    37   6 C        2.909    -0.056    29.381     8.888
    38   6 C        2.928    -0.044    29.105     8.847
    39   6 C        2.972    -0.001    28.054     8.688
    40   6 C        3.902     0.025    20.098     6.373
    41   6 C        3.761    -0.105    22.547     6.769
    42   6 C        3.761    -0.105    22.550     6.769
    43   6 C        3.761    -0.107    22.585     6.775
    44   6 C        2.920    -0.040    28.993     8.830
    45   6 C        3.063    -0.018    28.402     8.739
    46   6 C        3.063    -0.018    28.404     8.740
    47   6 C        2.920    -0.040    28.989     8.829
    48   6 C        2.972    -0.001    28.044     8.686
    49   6 C        3.902     0.025    20.097     6.372
    50   6 C        3.761    -0.107    22.591     6.776
    51   6 C        3.761    -0.105    22.548     6.769
    52   6 C        3.761    -0.105    22.549     6.769
    53   6 C        2.928    -0.044    29.088     8.845
    54   6 C        2.909    -0.055    29.369     8.886
    55   6 C        3.070     0.043    26.970     8.515
    56   6 C        2.926    -0.056    29.386     8.890
    57   1 H        0.925     0.037     2.489     2.467
    58   1 H        0.925     0.036     2.503     2.474
    59   1 H        0.925     0.036     2.497     2.471
    60   1 H        0.925     0.035     2.518     2.482
    61   1 H        0.925     0.032     2.558     2.501
    62   1 H        0.925     0.038     2.473     2.459
    63   1 H        0.925     0.038     2.473     2.459
    64   1 H        0.925     0.035     2.512     2.479
    65   1 H        0.925     0.033     2.547     2.496
    66   1 H        0.926     0.030     2.580     2.512
    67   1 H        0.926     0.023     2.692     2.566
    68   1 H        0.926     0.041     2.437     2.441
    69   1 H        0.926     0.041     2.442     2.443
    70   1 H        0.925     0.035     2.510     2.478
    71   1 H        0.925     0.032     2.558     2.501
    72   1 H        0.925     0.038     2.474     2.460
    73   1 H        0.925     0.033     2.548     2.496
    74   1 H        0.925     0.036     2.505     2.475
    75   1 H        0.925     0.038     2.475     2.460
    76   1 H        0.925     0.037     2.491     2.468
    77   1 H        0.925     0.036     2.500     2.473
    78   1 H        0.925     0.036     2.507     2.476
    79   1 H        0.926     0.031     2.565     2.505
    80   1 H        0.926     0.026     2.650     2.546
    81   1 H        0.926     0.059     2.208     2.324
    82   1 H        0.926     0.056     2.241     2.341
    83   1 H        0.926     0.059     2.206     2.322
    84   1 H        0.925     0.055     2.259     2.350
    85   1 H        0.925     0.047     2.352     2.398
    86   1 H        0.926     0.051     2.310     2.377
    87   1 H        0.926     0.022     2.703     2.571
    88   1 H        0.926     0.038     2.481     2.463
    89   1 H        0.925     0.038     2.473     2.459
    90   1 H        0.925     0.037     2.495     2.470
    91   1 H        0.925     0.032     2.559     2.501
    92   1 H        0.925     0.037     2.494     2.469
    93   1 H        0.925     0.032     2.556     2.500
    94   1 H        0.925     0.038     2.474     2.460
    95   1 H        0.925     0.037     2.485     2.465
    96   1 H        0.925     0.035     2.518     2.481
    97   1 H        0.925     0.035     2.518     2.482
    98   1 H        0.926     0.033     2.544     2.494
    99   1 H        0.926     0.033     2.551     2.497
   100   1 H        0.925     0.035     2.511     2.478
   101   1 H        0.925     0.036     2.510     2.477
   102   1 H        0.925     0.037     2.487     2.466
   103   1 H        0.925     0.038     2.475     2.460
   104   1 H        0.925     0.032     2.553     2.499
   105   1 H        0.925     0.036     2.500     2.473
   106   1 H        0.925     0.032     2.554     2.499
   107   1 H        0.925     0.038     2.477     2.461
   108   1 H        0.925     0.036     2.499     2.472
   109   1 H        0.926     0.039     2.456     2.451
   110   1 H        0.926     0.027     2.636     2.539
   111   1 H        0.926     0.063     2.168     2.302

molecular dipole:
                 x           y           z       tot (Debye)
 q only:       -0.822       0.959      -0.493
   full:       -0.811       0.718      -0.163       2.784

 projected vibrational frequencies (cm⁻¹)
eigval :       -0.00    -0.00    -0.00     0.00     0.00     0.00
eigval :        4.13     8.27    11.52    13.31    20.95    27.58
eigval :       29.57    29.63    30.62    34.92    43.43    45.28
eigval :       55.16    62.34    65.85    70.01    73.81    85.57
eigval :       86.62   104.51   112.10   122.57   144.48   152.81
eigval :      155.85   161.50   172.93   177.78   179.75   183.48
eigval :      189.89   196.07   199.61   204.12   215.65   221.51
eigval :      221.97   225.96   227.98   233.60   237.51   249.91
eigval :      258.06   260.77   269.11   274.30   283.49   291.37
eigval :      307.61   309.69   313.98   315.51   317.17   320.40
eigval :      327.85   328.80   335.75   337.42   343.88   354.76
eigval :      357.11   359.25   366.34   368.31   372.74   381.01
eigval :      395.68   399.43   404.30   410.92   412.22   432.27
eigval :      440.27   440.65   443.13   444.64   459.29   460.60
eigval :      461.21   463.34   466.37   470.86   479.50   512.34
eigval :      521.29   539.86   570.47   572.81   577.11   582.13
eigval :      584.04   588.91   597.01   601.50   622.13   639.04
eigval :      640.07   640.34   648.87   667.08   671.80   685.06
eigval :      687.18   688.47   702.68   706.31   709.34   714.58
eigval :      718.45   722.99   766.23   784.98   797.66   815.65
eigval :      818.53   819.60   822.28   831.02   833.72   850.52
eigval :      870.93   871.74   872.99   873.96   878.61   883.94
eigval :      892.01   895.71   901.58   907.24   911.46   913.61
eigval :      915.49   918.28   922.89   923.93   925.85   931.43
eigval :      932.17   934.64   958.12   959.20   959.30   959.77
eigval :      960.64   961.51   961.67   962.33   962.68   962.87
eigval :      963.11   964.45   990.08   999.48  1028.37  1032.35
eigval :     1034.01  1034.37  1034.79  1035.05  1035.29  1036.02
eigval :     1036.67  1038.23  1044.10  1051.56  1088.08  1114.01
eigval :     1118.62  1129.24  1130.21  1130.80  1139.75  1143.51
eigval :     1166.03  1175.19  1180.48  1188.64  1193.63  1217.16
eigval :     1225.01  1225.29  1225.59  1225.90  1225.92  1227.29
eigval :     1229.42  1229.97  1231.13  1234.87  1235.78  1240.20
eigval :     1244.45  1252.24  1254.92  1257.95  1268.43  1279.52
eigval :     1282.96  1284.19  1294.56  1301.04  1305.05  1305.36
eigval :     1324.49  1337.88  1344.67  1348.82  1355.82  1362.81
eigval :     1389.57  1395.49  1399.28  1399.77  1401.59  1401.76
eigval :     1402.35  1402.83  1403.33  1404.45  1410.02  1410.86
eigval :     1426.00  1426.80  1427.36  1427.49  1430.58  1431.94
eigval :     1432.93  1451.60  1460.31  1472.83  1473.27  1480.64
eigval :     1482.55  1488.44  1488.86  1488.91  1489.85  1491.55
eigval :     1492.08  1492.97  1493.34  1498.77  1499.31  1499.82
eigval :     1500.92  1501.91  1502.06  1502.45  1503.09  1511.42
eigval :     1511.64  1511.98  1513.12  1517.19  1517.57  1517.87
eigval :     1518.09  1554.70  1557.88  1561.80  1562.33  1570.44
eigval :     1572.49  1580.91  1584.58  1603.43  1604.28  1614.81
eigval :     1617.76  1660.46  3018.32  3018.84  3019.01  3019.19
eigval :     3019.47  3019.80  3020.00  3020.11  3022.73  3022.97
eigval :     3023.21  3023.24  3024.36  3024.69  3024.76  3025.06
eigval :     3026.60  3026.94  3026.99  3027.13  3029.73  3029.97
eigval :     3030.65  3030.80  3034.87  3035.25  3035.45  3035.57
eigval :     3043.26  3043.29  3044.35  3044.49  3046.67  3046.72
eigval :     3047.91  3048.02  3055.13  3062.60  3074.75  3075.51
eigval :     3076.66  3078.44  3080.81  3088.28  3089.89  3091.01
eigval :     3091.08  3103.12  3105.50  3108.52  3112.15  3116.53
eigval :     3116.67  3118.93  3119.56

   temp. (K)  partition function   enthalpy   heat capacity  entropy
                                   cal/mol     cal/K/mol   cal/K/mol   J/K/mol
 298.15  VIB  0.106E+27            32292.498    195.925    202.166
         ROT  0.159E+09              888.752      2.981     40.509
         INT  0.168E+35            33181.250    198.906    242.675
         TR   0.194E+29             1481.254      4.968     45.655
         TOT                       34662.5038   203.8743   288.3304  1206.3745

       T/K    H(0)-H(T)+PV         H(T)/Eh          T*S/Eh         G(T)/Eh
   ------------------------------------------------------------------------
    298.15    0.552382E-01    0.975830E+00    0.136995E+00    0.838835E+00
   ------------------------------------------------------------------------

         :::::::::::::::::::::::::::::::::::::::::::::::::::::
         ::                  THERMODYNAMIC                  ::
         :::::::::::::::::::::::::::::::::::::::::::::::::::::
         :: total free energy        -151.584162520737 Eh   ::
         ::.................................................::
         :: total energy             -152.422997561781 Eh   ::
         :: zero point energy           0.920591912061 Eh   ::
         :: G(RRHO) w/o ZPVE           -0.081756871017 Eh   ::
         :: G(RRHO) contrib.            0.838835041044 Eh   ::
         :::::::::::::::::::::::::::::::::::::::::::::::::::::

           -------------------------------------------------
          | TOTAL ENERGY             -152.422997561781 Eh   |
          | TOTAL ENTHALPY           -151.447167433887 Eh   |
          | TOTAL FREE ENERGY        -151.584162520737 Eh   |
          | GRADIENT NORM               0.000069032005 Eh/α |
          | HOMO-LUMO GAP               1.495313856279 eV   |
           -------------------------------------------------

 * finished run on 2025/09/08 at 01:39:38.403
