   * xtb version 6.7.1 (edcfbbe) compiled by 'albert@albert-system' on 2024-07-22

   ID    Z sym.   atoms
    1    6 C      1-20, 22-25, 27-30, 32-34, 36-56
    2    7 N      21, 31, 35
    3    8 O      26
    4    1 H      57-111

          program call               : xtb data2507/toluene/3BPy-mDTC/3BPy-mDTC_toluene_S0_finalOpt.xtbopt.xyz --gfn 2 --uhf 2 --gbsa toluene --ohess vtight --parallel 40 --molden --ceasefiles --namespace data2507/toluene/3BPy-mDTC/3BPy-mDTC_toluene_T1_preOpt
      * Solvation model:               GBSA
        Solvent                        toluene
        Solvent mass                       9.2140E+01 g/mol
          :  Hamiltonian                  GFN2-xTB          :
 * total energy  :  -152.3451696 Eh     change       -0.1124008E-07 Eh
 * total energy  :  -152.3490978 Eh     change       -0.3928252E-02 Eh
 * total energy  :  -152.3501207 Eh     change       -0.1022858E-02 Eh
 * total energy  :  -152.3503536 Eh     change       -0.2329491E-03 Eh
 * total energy  :  -152.3505619 Eh     change       -0.2082634E-03 Eh
 * total energy  :  -152.3507443 Eh     change       -0.1824579E-03 Eh
 * total energy  :  -152.3509400 Eh     change       -0.1956224E-03 Eh
 * total energy  :  -152.3510956 Eh     change       -0.1556500E-03 Eh
 * total energy  :  -152.3512113 Eh     change       -0.1156964E-03 Eh
 * total energy  :  -152.3513038 Eh     change       -0.9250967E-04 Eh
 * total energy  :  -152.3518529 Eh     change       -0.5791724E-06 Eh
 * total energy  :  -152.3518535 Eh     change       -0.5617502E-06 Eh
 * total energy  :  -152.3518538 Eh     change       -0.3612675E-06 Eh
 * total energy  :  -152.3518542 Eh     change       -0.3249135E-06 Eh
 * total energy  :  -152.3518546 Eh     change       -0.4159818E-06 Eh
 * total energy  :  -152.3518551 Eh     change       -0.5175936E-06 Eh
 * total energy  :  -152.3518556 Eh     change       -0.5503226E-06 Eh
 * total energy  :  -152.3518561 Eh     change       -0.4863836E-06 Eh
 * total energy  :  -152.3518561 Eh     change       -0.7097469E-08 Eh
   *** GEOMETRY OPTIMIZATION CONVERGED AFTER 68 ITERATIONS ***

 final structure:
================
111
 xtb: 6.7.1 (edcfbbe)
C            8.26617563385922        1.45564373335651       -1.31272486849437
C            7.42413458242269        0.29134434009688       -1.84381607520490
C            8.11796688473379       -1.02065795413834       -1.44586080931049
C            7.36411184903612        0.40420941529580       -3.37494647781780
C            6.00922340495686        0.28917568565300       -1.28710984967390
C            5.12467625794308       -0.72245358117559       -1.68593583459845
C            3.82824464114424       -0.80875175843632       -1.22135629875386
C            3.39771428298568        0.14260643009486       -0.30687227389555
C            4.25865147056412        1.19084620320730        0.08745129381012
C            5.55370825497418        1.25878210384341       -0.39934743311072
C            3.49842428002950        2.02127371657697        0.98816850315308
C            3.80197397092676        3.17223432811572        1.69662453596600
C            2.84214712578810        3.74709025880280        2.52304659758190
C            3.10477162595550        5.01449513650127        3.32143494576449
C            2.95439768440104        4.70545055131428        4.81901756811025
C            2.08703446802728        6.08871893978738        2.90761351375861
C            4.51046371128214        5.57717572086870        3.08958139459915
C            1.59116730074422        3.12427798081547        2.62885976397466
C            1.26241914059058        1.97723850510240        1.93435240886782
C            2.21899593979832        1.43071593631484        1.08949040807141
N            2.16961154638398        0.30157782350212        0.29820732096573
C            1.07844277449301       -0.57197054317983        0.18586182845778
C            1.26811935984128       -1.92879574702995        0.39389708300219
C            0.18209024507218       -2.82133504683353        0.32536285441019
C            0.29340996190767       -4.24096864995766        0.59655462127158
O           -0.71544738061818       -4.91225392760041        0.97476123810583
C            1.57621505857035       -4.91298171412845        0.44702500107426
C            1.85716875428760       -6.08369239793078        1.18185689165237
C            3.05819834178742       -6.73404263867581        1.00835911198872
C            3.96390221069973       -6.22166156237626        0.08367481329132
N            3.68604511304846       -5.15380507587171       -0.65432273923812
C            2.54708740278811       -4.52551997550399       -0.49588520344646
C           -1.09996610366063       -2.28370390446689        0.09532416889368
C           -1.28225791170763       -0.92715646558933       -0.09692517324453
N           -2.56982578983359       -0.42738529991483       -0.33438632432756
C           -3.69308081632659       -0.72042619343321        0.40997997165988
C           -3.83162773467018       -1.48864233681376        1.55850347441593
C           -5.08732723827868       -1.58512316072983        2.12364379160377
C           -6.21293714490876       -0.93713156009006        1.59634911108940
C           -7.55460769147626       -1.10912899870152        2.29133110354431
C           -8.68382902063614       -0.34416378613977        1.59390790267245
C           -7.92557945839832       -2.60007351127163        2.30405976363741
C           -7.44383535473418       -0.58880814928258        3.73286250463911
C           -6.05521981574686       -0.15110858565748        0.45963959207037
C           -4.80678122929730       -0.03949290745796       -0.13012035924921
C           -4.31968957968327        0.69148378586943       -1.27354499999000
C           -4.93474642614484        1.51678948024832       -2.20053133279512
C           -4.18552588903829        2.07652930689635       -3.23022155071434
C           -4.79454952491036        2.99487520826636       -4.27821736532830
C           -4.07977699729761        4.35426742830234       -4.23001985367673
C           -4.61531644821981        2.36189398058587       -5.66675045789899
C           -6.29067519683914        3.23551785401844       -4.05444800110543
C           -2.81967723209068        1.77153626615600       -3.30592853054035
C           -2.18178615930099        0.95260198011850       -2.39593608662052
C           -2.93564922497599        0.42053265070041       -1.35822144840639
C           -0.19204307716980       -0.05365943358248       -0.07321938562287
H            9.26659994761097        1.39969719292276       -1.73700392099454
H            8.35916021748948        1.40981888836687       -0.23004898277854
H            7.83546997610538        2.41305581775175       -1.59685078763746
H            7.59783206685680       -1.88551958362519       -1.84807920873199
H            8.14862483165955       -1.11684982779968       -0.36216269206200
H            9.13866257051823       -1.03160659860634       -1.82235853988106
H            8.37119032643755        0.43308586304185       -3.78540573670982
H            6.84215281550827       -0.44008915937505       -3.81640418957220
H            6.84643095447555        1.31634000528556       -3.66546501391625
H            5.45579206714720       -1.47255500353131       -2.38671848971104
H            3.17176225646961       -1.59189379521146       -1.56618037004044
H            6.18747155292338        2.06793480570903       -0.07861772890750
H            4.78498257024955        3.59947147892303        1.59555648573395
H            1.94831501921699        4.37264714021983        5.05861464994066
H            3.65127637076832        3.92327574092323        5.11409362158784
H            3.16677863762226        5.59632434736860        5.40626740171150
H            2.17326704168194        6.29907130083821        1.84335509616156
H            1.06795114577688        5.77220092571603        3.11120585047382
H            2.27328975084460        7.00878005014813        3.45739583344348
H            4.63672688588170        6.48506634109923        3.67595410322957
H            4.66315063209307        5.83048789127081        2.04295209619973
H            5.27368549578552        4.86854805791553        3.40301061982216
H            0.84363113342751        3.54671539974678        3.28202792635046
H            0.29460095869661        1.51625956671853        2.05946297769214
H            2.24541531106474       -2.28639945277502        0.67869725497691
H            1.11705298536920       -6.44591732841149        1.88094713940481
H            3.29611459159001       -7.62365932669096        1.57192733198105
H            4.92543907804233       -6.68200503414788       -0.09307256412762
H            2.36493476188327       -3.70330082104400       -1.17348802228462
H           -1.93467776244084       -2.96621326594028        0.04563803716577
H           -2.98811755124413       -1.99727039837314        2.00047511183035
H           -5.19072929136594       -2.18857936186362        3.01205106064581
H           -9.61615828318903       -0.51106154250417        2.12952747615953
H           -8.81836489951584       -0.69079602814548        0.57184376447341
H           -8.48783489500868        0.72555614006096        1.58846110466179
H           -7.99181476836993       -2.98070935621945        1.28656497953809
H           -7.18762743121076       -3.19099908246062        2.83948265160570
H           -8.88964647566601       -2.74012191110129        2.78843971495348
H           -8.40221563049186       -0.68630602602024        4.23825910204337
H           -7.15777428420676        0.46119156529882        3.73336700528478
H           -6.70255344413591       -1.14418964851606        4.30061533097285
H           -6.88484369626928        0.37967238896346        0.02464289146885
H           -5.99051975467721        1.70571399917658       -2.10694728382944
H           -3.02101066154581        4.25626085902189       -4.45261229586183
H           -4.18162669338865        4.79793591876979       -3.24150897374014
H           -4.51900075438103        5.03174201600438       -4.95915676602395
H           -5.06294016314899        2.99899519434702       -6.42653647897852
H           -3.56552825961850        2.22705152178647       -5.91175143104482
H           -5.10133774470796        1.38876499734423       -5.70270931167186
H           -6.47248199304267        3.70332187956719       -3.08956494237471
H           -6.66820956870333        3.90270581554120       -4.82670299432743
H           -6.85081115950324        2.30513768160976       -4.11403372027102
H           -2.22961318281358        2.18427570509717       -4.10923993324297
H           -1.13209564676955        0.72531697849298       -2.50115567082104
H           -0.33090758988589        1.00348042238363       -0.22838536945062

          :  Hamiltonian                  GFN2-xTB          :
         :: gradient norm              0.000055716152 Eh/a0 ::
         :: HOMO-LUMO gap              0.895072644694 eV    ::
         :: SCC energy              -154.933221423760 Eh    ::
         :: -> dispersion             -0.139097403380 Eh    ::
         :: -> Gsolv                  -0.071835175929 Eh    ::
         :: repulsion energy           2.581365293758 Eh    ::

    * Orbital Energies and Occupations

         #    Occupation            Energy/Eh            Energy/eV
      -------------------------------------------------------------
         1        2.0000           -0.6866482             -18.6846
       ...           ...                  ...                  ...
       131        2.0000           -0.4133960             -11.2491
       132        2.0000           -0.4127997             -11.2329
       133        2.0000           -0.4098074             -11.1514
       134        2.0000           -0.4074372             -11.0869
       135        2.0000           -0.4058833             -11.0446
       136        2.0000           -0.4055838             -11.0365
       137        2.0000           -0.3838235             -10.4444
       138        2.0000           -0.3837064             -10.4412
       139        2.0000           -0.3809551             -10.3663
       140        1.9002           -0.3684272             -10.0254
       141        1.8545           -0.3680202             -10.0143
       142        1.2453           -0.3652704              -9.9395
       143        1.0000           -0.2847003              -7.7471 (HOMO)
       144                         -0.2518064              -6.8520 (LUMO)
       145                         -0.2506994              -6.8219
       146                         -0.2434249              -6.6239
       147                         -0.2385134              -6.4903
       148                         -0.2363471              -6.4313
       149                         -0.2289232              -6.2293
       150                         -0.2288701              -6.2279
       151                         -0.2059882              -5.6052
       152                         -0.1954856              -5.3194
       153                         -0.1935051              -5.2655
       154                         -0.1933652              -5.2617
       ...                                ...                  ...
       279                          0.7319669              19.9178
      -------------------------------------------------------------
                  HL-Gap            0.0328939 Eh            0.8951 eV

     #   Z          covCN         q      C6AA      α(0)
     1   6 C        3.761    -0.110    22.646     6.784
     2   6 C        3.903     0.027    20.067     6.368
     3   6 C        3.761    -0.106    22.581     6.774
     4   6 C        3.761    -0.107    22.588     6.775
     5   6 C        2.973     0.010    27.780     8.646
     6   6 C        2.929    -0.036    28.887     8.814
     7   6 C        2.908    -0.044    29.081     8.843
     8   6 C        3.078     0.045    26.917     8.506
     9   6 C        3.064    -0.014    28.305     8.724
    10   6 C        2.916    -0.039    28.976     8.827
    11   6 C        3.064    -0.014    28.291     8.722
    12   6 C        2.917    -0.039    28.974     8.827
    13   6 C        2.972     0.010    27.798     8.648
    14   6 C        3.902     0.027    20.069     6.368
    15   6 C        3.761    -0.106    22.579     6.774
    16   6 C        3.761    -0.107    22.589     6.775
    17   6 C        3.761    -0.110    22.644     6.784
    18   6 C        2.929    -0.037    28.919     8.819
    19   6 C        2.908    -0.046    29.131     8.850
    20   6 C        3.078     0.044    26.922     8.507
    21   7 N        2.803    -0.019    21.611     6.904
    22   6 C        2.909     0.062    26.621     8.460
    23   6 C        2.921    -0.055    29.361     8.886
    24   6 C        2.966    -0.019    28.491     8.755
    25   6 C        2.832     0.163    24.474     8.107
    26   8 O        0.858    -0.524    24.330     6.613
    27   6 C        2.964    -0.024    28.610     8.774
    28   6 C        2.931    -0.017    28.434     8.745
    29   6 C        2.909    -0.041    29.007     8.831
    30   6 C        2.902     0.039    27.133     8.541
    31   7 N        1.836    -0.215    26.518     7.631
    32   6 C        2.902     0.050    26.871     8.500
    33   6 C        2.927    -0.042    29.042     8.838
    34   6 C        2.908     0.061    26.635     8.463
    35   7 N        2.804    -0.019    21.607     6.904
    36   6 C        3.078     0.046    26.891     8.502
    37   6 C        2.907    -0.043    29.072     8.841
    38   6 C        2.929    -0.036    28.900     8.816
    39   6 C        2.972     0.010    27.795     8.648
    40   6 C        3.902     0.027    20.069     6.368
    41   6 C        3.761    -0.110    22.649     6.784
    42   6 C        3.761    -0.106    22.569     6.772
    43   6 C        3.761    -0.106    22.581     6.774
    44   6 C        2.917    -0.040    28.984     8.828
    45   6 C        3.064    -0.014    28.307     8.725
    46   6 C        3.064    -0.014    28.292     8.722
    47   6 C        2.917    -0.039    28.971     8.826
    48   6 C        2.972     0.010    27.792     8.647
    49   6 C        3.902     0.027    20.068     6.368
    50   6 C        3.761    -0.107    22.591     6.775
    51   6 C        3.761    -0.107    22.583     6.774
    52   6 C        3.761    -0.110    22.644     6.784
    53   6 C        2.929    -0.037    28.919     8.819
    54   6 C        2.908    -0.046    29.131     8.850
    55   6 C        3.077     0.045    26.910     8.505
    56   6 C        2.922    -0.076    29.903     8.968
    57   1 H        0.925     0.040     2.447     2.446
    58   1 H        0.925     0.038     2.470     2.458
    59   1 H        0.925     0.039     2.457     2.451
    60   1 H        0.925     0.039     2.469     2.457
    61   1 H        0.925     0.034     2.532     2.488
    62   1 H        0.925     0.042     2.425     2.435
    63   1 H        0.925     0.042     2.422     2.434
    64   1 H        0.925     0.038     2.470     2.458
    65   1 H        0.925     0.036     2.509     2.477
    66   1 H        0.926     0.043     2.412     2.429
    67   1 H        0.926     0.033     2.544     2.494
    68   1 H        0.926     0.053     2.283     2.363
    69   1 H        0.926     0.052     2.290     2.367
    70   1 H        0.925     0.038     2.478     2.462
    71   1 H        0.925     0.034     2.529     2.487
    72   1 H        0.925     0.042     2.426     2.436
    73   1 H        0.925     0.036     2.508     2.477
    74   1 H        0.925     0.038     2.470     2.458
    75   1 H        0.925     0.042     2.426     2.436
    76   1 H        0.925     0.040     2.450     2.448
    77   1 H        0.925     0.039     2.461     2.453
    78   1 H        0.925     0.038     2.473     2.459
    79   1 H        0.926     0.041     2.429     2.437
    80   1 H        0.926     0.036     2.499     2.472
    81   1 H        0.926     0.039     2.466     2.456
    82   1 H        0.926     0.033     2.541     2.493
    83   1 H        0.926     0.036     2.507     2.476
    84   1 H        0.926     0.037     2.486     2.466
    85   1 H        0.926     0.033     2.544     2.494
    86   1 H        0.926     0.045     2.389     2.417
    87   1 H        0.926     0.033     2.538     2.491
    88   1 H        0.926     0.039     2.466     2.456
    89   1 H        0.925     0.040     2.442     2.444
    90   1 H        0.925     0.039     2.465     2.455
    91   1 H        0.925     0.040     2.451     2.448
    92   1 H        0.925     0.034     2.530     2.487
    93   1 H        0.925     0.036     2.498     2.472
    94   1 H        0.925     0.042     2.423     2.434
    95   1 H        0.925     0.042     2.420     2.433
    96   1 H        0.925     0.036     2.506     2.475
    97   1 H        0.925     0.037     2.487     2.466
    98   1 H        0.926     0.053     2.278     2.360
    99   1 H        0.926     0.052     2.291     2.367
   100   1 H        0.925     0.039     2.465     2.455
   101   1 H        0.925     0.036     2.509     2.477
   102   1 H        0.925     0.042     2.425     2.435
   103   1 H        0.925     0.042     2.424     2.435
   104   1 H        0.925     0.038     2.473     2.459
   105   1 H        0.925     0.034     2.528     2.486
   106   1 H        0.925     0.039     2.463     2.454
   107   1 H        0.925     0.040     2.449     2.447
   108   1 H        0.925     0.038     2.475     2.460
   109   1 H        0.926     0.042     2.416     2.431
   110   1 H        0.926     0.038     2.479     2.462
   111   1 H        0.926     0.051     2.311     2.377

molecular dipole:
                 x           y           z       tot (Debye)
 q only:       -0.096       5.269      -0.697
   full:       -0.179       4.802      -0.440      12.265

 projected vibrational frequencies (cm⁻¹)
eigval :       -0.00    -0.00     0.00     0.00     0.00     0.00
eigval :        9.59    10.42    12.81    16.55    23.56    25.25
eigval :       34.37    35.99    36.70    37.78    43.93    49.18
eigval :       60.40    61.86    67.53    70.99    79.46    85.39
eigval :       86.93   106.45   112.74   128.84   146.31   153.39
eigval :      158.45   158.74   171.97   175.71   181.93   185.85
eigval :      194.73   198.88   199.60   210.10   217.01   220.68
eigval :      223.22   225.52   227.56   230.74   232.94   243.16
eigval :      252.47   256.08   257.12   272.76   283.09   287.11
eigval :      295.98   315.36   317.13   321.64   324.46   326.23
eigval :      330.33   336.90   338.12   344.73   348.46   355.43
eigval :      356.31   357.55   365.31   371.12   380.37   382.95
eigval :      393.08   396.07   402.02   403.86   404.57   426.61
eigval :      439.13   440.46   441.25   441.85   455.46   461.04
eigval :      461.75   463.31   464.96   465.46   501.87   509.70
eigval :      516.73   532.54   541.13   569.20   572.93   575.48
eigval :      582.58   585.20   591.93   596.33   609.67   624.32
eigval :      633.57   635.34   642.34   643.30   651.59   665.09
eigval :      668.87   691.39   692.66   700.31   708.56   709.80
eigval :      715.26   718.15   760.21   764.11   780.87   801.95
eigval :      819.67   823.53   824.46   829.21   830.30   831.49
eigval :      846.12   855.60   864.89   866.15   867.61   869.17
eigval :      870.79   872.23   875.43   888.73   903.99   910.68
eigval :      915.62   917.23   918.56   919.49   923.41   926.32
eigval :      929.44   931.80   958.42   958.86   959.04   959.44
eigval :      961.05   961.90   962.05   962.64   963.06   963.41
eigval :      964.37   964.46   965.18   978.20  1025.16  1028.20
eigval :     1031.68  1032.99  1033.36  1033.54  1033.96  1034.37
eigval :     1036.75  1038.27  1041.57  1045.41  1081.68  1107.60
eigval :     1112.42  1124.83  1125.64  1126.11  1133.28  1135.92
eigval :     1157.00  1158.76  1162.42  1177.87  1185.36  1208.06
eigval :     1218.73  1222.21  1222.37  1222.51  1222.55  1224.44
eigval :     1225.63  1226.60  1227.14  1227.69  1228.16  1229.79
eigval :     1230.40  1241.17  1248.81  1255.43  1258.41  1277.12
eigval :     1278.66  1287.18  1287.23  1292.38  1300.06  1306.72
eigval :     1329.19  1330.19  1331.51  1344.21  1348.14  1352.04
eigval :     1367.39  1381.20  1396.58  1398.31  1400.45  1401.14
eigval :     1401.45  1401.58  1402.75  1402.86  1402.99  1405.13
eigval :     1408.71  1413.58  1417.74  1425.52  1426.89  1427.25
eigval :     1427.34  1435.11  1440.04  1448.05  1457.30  1457.64
eigval :     1463.67  1473.27  1473.54  1486.94  1487.09  1487.75
eigval :     1488.09  1488.23  1489.67  1489.91  1490.24  1490.61
eigval :     1496.43  1496.58  1497.01  1497.46  1500.47  1500.95
eigval :     1501.36  1501.56  1507.14  1510.79  1510.86  1511.40
eigval :     1511.47  1515.27  1515.68  1516.44  1516.69  1552.82
eigval :     1556.14  1558.75  1569.18  1571.64  1571.87  1572.86
eigval :     1590.53  1603.23  3022.12  3022.26  3022.29  3022.55
eigval :     3022.59  3022.70  3023.02  3023.05  3025.98  3026.10
eigval :     3026.18  3026.41  3026.74  3026.85  3027.13  3027.19
eigval :     3029.56  3029.60  3029.72  3030.06  3032.52  3032.80
eigval :     3032.90  3032.92  3037.39  3037.55  3037.61  3037.66
eigval :     3046.09  3046.47  3046.58  3047.24  3049.20  3049.42
eigval :     3049.61  3049.94  3061.02  3065.75  3073.26  3083.78
eigval :     3085.56  3085.84  3086.65  3093.29  3097.13  3097.26
eigval :     3098.31  3099.08  3099.68  3104.32  3114.48  3122.49
eigval :     3123.02  3125.22  3125.63

   temp. (K)  partition function   enthalpy   heat capacity  entropy
                                   cal/mol     cal/K/mol   cal/K/mol   J/K/mol
 298.15  VIB  0.119E+26            32353.940    197.815    200.900
         ROT  0.160E+09              888.752      2.981     40.522
         INT  0.191E+34            33242.692    200.796    241.422
         TR   0.194E+29             1481.254      4.968     45.655
         TOT                       34723.9460   205.7639   287.0771  1201.1307

       T/K    H(0)-H(T)+PV         H(T)/Eh          T*S/Eh         G(T)/Eh
   ------------------------------------------------------------------------
    298.15    0.553361E-01    0.972612E+00    0.136400E+00    0.836212E+00
   ------------------------------------------------------------------------

         :::::::::::::::::::::::::::::::::::::::::::::::::::::
         ::                  THERMODYNAMIC                  ::
         :::::::::::::::::::::::::::::::::::::::::::::::::::::
         :: total free energy        -151.515644043333 Eh   ::
         ::.................................................::
         :: total energy             -152.351856133077 Eh   ::
         :: zero point energy           0.917275563912 Eh   ::
         :: G(RRHO) w/o ZPVE           -0.081063474168 Eh   ::
         :: G(RRHO) contrib.            0.836212089743 Eh   ::
         :::::::::::::::::::::::::::::::::::::::::::::::::::::

           -------------------------------------------------
          | TOTAL ENERGY             -152.351856133077 Eh   |
          | TOTAL ENTHALPY           -151.379244438953 Eh   |
          | TOTAL FREE ENERGY        -151.515644043333 Eh   |
          | GRADIENT NORM               0.000055091818 Eh/α |
          | HOMO-LUMO GAP               0.895088209832 eV   |
           -------------------------------------------------

 * finished run on 2025/09/08 at 02:00:56.934
