   * xtb version 6.7.1 (edcfbbe) compiled by 'albert@albert-system' on 2024-07-22

   ID    Z sym.   atoms
    1    6 C      1-20, 22-25, 27-30, 32-34, 36-56
    2    7 N      21, 31, 35
    3    8 O      26
    4    1 H      57-111

          program call               : xtb data2507/toluene/3BPy-mDTC/3BPy-mDTC_toluene_T1_crest.xyz --gfn 2 --uhf 2 --gbsa toluene --ohess vtight --parallel 40 --molden --ceasefiles --namespace data2507/toluene/3BPy-mDTC/3BPy-mDTC_toluene_T1_finalOpt
      * Solvation model:               GBSA
        Solvent                        toluene
        Solvent mass                       9.2140E+01 g/mol
          :  Hamiltonian                  GFN2-xTB          :
 * total energy  :  -152.3514632 Eh     change       -0.7370659E-07 Eh
 * total energy  :  -152.3516655 Eh     change       -0.2022708E-03 Eh
 * total energy  :  -152.3517304 Eh     change       -0.6494213E-04 Eh
 * total energy  :  -152.3517431 Eh     change       -0.1268466E-04 Eh
 * total energy  :  -152.3517519 Eh     change       -0.8826459E-05 Eh
 * total energy  :  -152.3517609 Eh     change       -0.8923590E-05 Eh
 * total energy  :  -152.3517675 Eh     change       -0.6645012E-05 Eh
 * total energy  :  -152.3517717 Eh     change       -0.4220125E-05 Eh
 * total energy  :  -152.3517747 Eh     change       -0.2981844E-05 Eh
 * total energy  :  -152.3517777 Eh     change       -0.2968048E-05 Eh
 * total energy  :  -152.3518265 Eh     change       -0.5942870E-06 Eh
 * total energy  :  -152.3518271 Eh     change       -0.5878685E-06 Eh
 * total energy  :  -152.3518277 Eh     change       -0.6329046E-06 Eh
 * total energy  :  -152.3518284 Eh     change       -0.6544360E-06 Eh
 * total energy  :  -152.3518290 Eh     change       -0.6043536E-06 Eh
 * total energy  :  -152.3518295 Eh     change       -0.5230087E-06 Eh
 * total energy  :  -152.3518299 Eh     change       -0.4493851E-06 Eh
 * total energy  :  -152.3518303 Eh     change       -0.4154528E-06 Eh
 * total energy  :  -152.3518303 Eh     change       -0.4263370E-08 Eh
   *** GEOMETRY OPTIMIZATION CONVERGED AFTER 44 ITERATIONS ***

 final structure:
================
111
 xtb: 6.7.1 (edcfbbe)
C            8.26222539817210        1.34050579903675       -1.41513118252749
C            7.38084166144356        0.22572929573011       -1.98694666772427
C            8.05112218182586       -1.12126980568984       -1.67494252141433
C            7.28976427461869        0.42066729912346       -3.50823081007319
C            5.97905246626887        0.22610645704522       -1.39806959197364
C            5.06317957559313       -0.74496062550566       -1.82580506469495
C            3.77639465879227       -0.82776317590534       -1.33456111593035
C            3.38830077865428        0.08396985553973       -0.36254282348740
C            4.28041857495205        1.09394947322090        0.06067965412924
C            5.56518299050307        1.15951918449535       -0.45304749069114
C            3.55862435684039        1.89597581770417        1.01674674819105
C            3.90414183616352        3.00633566684809        1.76927164380320
C            2.97620772213232        3.56413267655925        2.64227138265084
C            3.28488546768916        4.78830362759036        3.48998209227683
C            3.15335367630651        4.41804834251206        4.97531895669095
C            2.28700020506985        5.90359161511693        3.14151178042697
C            4.70001673085023        5.32599975712467        3.25636578749650
C            1.71344070964757        2.96558376125702        2.74683657315376
C            1.34360128140180        1.85844030886037        2.00946612075430
C            2.26900024186141        1.32822262973213        1.12042180082896
N            2.17823646921870        0.23722731243123        0.28000514400809
C            1.06948510928447       -0.61162248024502        0.15156169754544
C            1.24083590356089       -1.98127053654728        0.27691812656176
C            0.13835248400115       -2.85106740425142        0.18467944272008
C            0.23335039759928       -4.28624861010474        0.36966056752333
O           -0.77340901810535       -4.96194909285580        0.74521198913483
C            1.49723426766251       -4.96717781092780        0.13120343052527
C            1.78478167339301       -6.18712757814060        0.77841412687290
C            2.96804496251011       -6.84148639084304        0.51941320784581
C            3.84884580275574       -6.28281879475260       -0.40263622378240
N            3.56224302412054       -5.16564823098936       -1.06004727195894
C            2.43994789957292       -4.53341345704191       -0.82014807720317
C           -1.13932818357491       -2.28223473237545        0.01544835528308
C           -1.30308591911261       -0.91400397367472       -0.09523547109483
N           -2.58568271027260       -0.38202314006557       -0.28335458806041
C           -3.70486673006087       -0.70246013032739        0.45589777026817
C           -3.84220587748766       -1.53310396119000        1.56027044636508
C           -5.09387854686333       -1.64723048500920        2.13115568038086
C           -6.21639292584354       -0.95730808363834        1.65273858105139
C           -7.55522865097129       -1.15784858583963        2.34547675640713
C           -8.67906918226568       -0.33406981391673        1.70902597777254
C           -7.94399332367732       -2.64198877222677        2.26058571639924
C           -7.42956462209411       -0.73694415771432        3.81780642155828
C           -6.05919359238846       -0.10869439943897        0.56193934788137
C           -4.81476905257526        0.02251671747529       -0.03206605957186
C           -4.32994781294259        0.81166233790306       -1.13702407852074
C           -4.94383425064766        1.69694188571394       -2.00770690315114
C           -4.19888119097487        2.30347323402707       -3.01367824024286
C           -4.80701759759117        3.28878448996454       -3.99946557289818
C           -4.06451172939725        4.62974693502189       -3.89247644091119
C           -4.66419724100893        2.72742325686310       -5.42259433313518
C           -6.29374953546857        3.54604442891575       -3.73518350908479
C           -2.83935421940926        1.98180453363036       -3.12563297306920
C           -2.20263924379634        1.10404088087601       -2.27126991596519
C           -2.95110785996893        0.52691850364605       -1.25391337852394
C           -0.19820216396618       -0.06044522463456       -0.04633824636933
H            9.25160625033389        1.28385840456464       -1.86445678846367
H            8.37728803441293        1.23546332732743       -0.33871278955472
H            7.84898331486764        2.32132928794335       -1.63886671025975
H            7.50227454212191       -1.95065310474837       -2.11211027626667
H            8.10129797803445       -1.27686287861917       -0.59891122877268
H            9.06343538667238       -1.13503178847817       -2.07330794822669
H            8.28776731030906        0.44357783142977       -3.94066987843809
H            6.73405646863048       -0.38479197617407       -3.97996171401972
H            6.79176054288536        1.36052802945832       -3.73858116722655
H            5.36074889212466       -1.46503341688741       -2.57167869399413
H            3.09518525085852       -1.57791640189348       -1.70355492548727
H            6.22324884262860        1.93893829967326       -0.10844915899407
H            4.89448570551089        3.41545077288621        1.66482227983477
H            2.14540023255034        4.09308094951213        5.21763206095102
H            3.84055650899913        3.61183415966209        5.22488669632184
H            3.39155623639494        5.27908487783298        5.59615927994899
H            2.35775849426238        6.15530202080324        2.08509329730339
H            1.26441202347176        5.60389429515090        3.35290652883712
H            2.50717734446899        6.79546919772381        3.72426207252412
H            4.86070432760348        6.20238436068195        3.88100500216426
H            4.83974855514455        5.62352415885807        2.21964739335406
H            5.45023813792255        4.58463073397128        3.52174799713230
H            0.98907360427749        3.37538467399181        3.43333475135095
H            0.36722960726420        1.41626527161442        2.13533866430209
H            2.21817899557147       -2.37087221880213        0.51604432772398
H            1.06422093039760       -6.58372681316686        1.47927698271370
H            3.21133104783849       -7.76908929654930        1.01535534571152
H            4.79608088657323       -6.74383296418751       -0.64318923281577
H            2.24605478786561       -3.66687588777802       -1.43660232227761
H           -1.98585594053190       -2.94810798962068       -0.05544777961735
H           -3.00133519805558       -2.07695542828107        1.96355316360112
H           -5.19668171548249       -2.29972615592469        2.98425946400457
H           -9.60902877361134       -0.52146240248581        2.24195017032094
H           -8.82783060525308       -0.61289571303047        0.66837710099644
H           -8.46715341376474        0.73090928193264        1.76967308839008
H           -8.01968693548520       -2.95273024699693        1.22024835524436
H           -7.20988876458577       -3.27528295383045        2.75105580732713
H           -8.90721012699013       -2.80312760671586        2.74004495640574
H           -8.38643001655935       -0.85604192486626        4.32150000557215
H           -7.12980254547765        0.30694439666693        3.88689577362815
H           -6.69285845796985       -1.33879098260176        4.34246796284987
H           -6.88604236370656        0.45585616409582        0.16597939877297
H           -5.99550934433258        1.89486759196056       -1.88995334814001
H           -3.01196269821713        4.52371201562745       -4.13929748265813
H           -4.14054515253001        5.02218741007757       -2.88029068299054
H           -4.50274685485479        5.35299858850027       -4.57684061932940
H           -5.11490387653632        3.41060507810323       -6.13935557393710
H           -3.62130704910110        2.58965623381891       -5.69410676949447
H           -5.16662769371121        1.76511883057128       -5.49995723963860
H           -6.44888597944807        3.96189349898450       -2.74222333014798
H           -6.67051083761112        4.26329561863486       -4.46158447040676
H           -6.87427903257626        2.63197209453720       -3.83680895909327
H           -2.25344520565226        2.42884105608330       -3.91346317834209
H           -1.15836680807441        0.86648597221331       -2.40414263967324
H           -0.32310504727530        1.00567154505368       -0.13920683589430

          :  Hamiltonian                  GFN2-xTB          :
         :: gradient norm              0.000058738865 Eh/a0 ::
         :: HOMO-LUMO gap              0.891343524441 eV    ::
         :: SCC energy              -154.933247008344 Eh    ::
         :: -> dispersion             -0.139156841520 Eh    ::
         :: -> Gsolv                  -0.071811668801 Eh    ::
         :: repulsion energy           2.581416659993 Eh    ::

    * Orbital Energies and Occupations

         #    Occupation            Energy/Eh            Energy/eV
      -------------------------------------------------------------
         1        2.0000           -0.6866168             -18.6838
       ...           ...                  ...                  ...
       131        2.0000           -0.4133951             -11.2491
       132        2.0000           -0.4127992             -11.2328
       133        2.0000           -0.4098141             -11.1516
       134        2.0000           -0.4074381             -11.0870
       135        2.0000           -0.4058792             -11.0445
       136        2.0000           -0.4055791             -11.0364
       137        2.0000           -0.3838247             -10.4444
       138        2.0000           -0.3836794             -10.4404
       139        2.0000           -0.3809049             -10.3650
       140        1.8984           -0.3684155             -10.0251
       141        1.8587           -0.3680586             -10.0154
       142        1.2429           -0.3652644              -9.9394
       143        1.0000           -0.2846036              -7.7445 (HOMO)
       144                         -0.2518475              -6.8531 (LUMO)
       145                         -0.2507118              -6.8222
       146                         -0.2433374              -6.6215
       147                         -0.2386202              -6.4932
       148                         -0.2363614              -6.4317
       149                         -0.2289327              -6.2296
       150                         -0.2288547              -6.2275
       151                         -0.2060351              -5.6065
       152                         -0.1954102              -5.3174
       153                         -0.1935038              -5.2655
       154                         -0.1933218              -5.2606
       ...                                ...                  ...
       279                          0.7319948              19.9186
      -------------------------------------------------------------
                  HL-Gap            0.0327560 Eh            0.8913 eV

     #   Z          covCN         q      C6AA      α(0)
     1   6 C        3.761    -0.110    22.645     6.784
     2   6 C        3.903     0.027    20.067     6.368
     3   6 C        3.761    -0.107    22.582     6.774
     4   6 C        3.761    -0.107    22.588     6.775
     5   6 C        2.973     0.010    27.780     8.646
     6   6 C        2.929    -0.036    28.888     8.814
     7   6 C        2.908    -0.044    29.083     8.843
     8   6 C        3.078     0.045    26.918     8.506
     9   6 C        3.063    -0.014    28.306     8.724
    10   6 C        2.917    -0.039    28.976     8.827
    11   6 C        3.065    -0.014    28.289     8.722
    12   6 C        2.917    -0.039    28.974     8.827
    13   6 C        2.973     0.010    27.798     8.648
    14   6 C        3.902     0.027    20.069     6.368
    15   6 C        3.761    -0.106    22.580     6.774
    16   6 C        3.761    -0.107    22.588     6.775
    17   6 C        3.761    -0.110    22.644     6.784
    18   6 C        2.929    -0.037    28.920     8.819
    19   6 C        2.908    -0.046    29.132     8.850
    20   6 C        3.076     0.044    26.924     8.507
    21   7 N        2.803    -0.019    21.611     6.904
    22   6 C        2.908     0.062    26.618     8.460
    23   6 C        2.921    -0.055    29.356     8.885
    24   6 C        2.966    -0.019    28.486     8.755
    25   6 C        2.832     0.163    24.474     8.107
    26   8 O        0.858    -0.524    24.329     6.613
    27   6 C        2.964    -0.025    28.616     8.774
    28   6 C        2.931    -0.017    28.438     8.746
    29   6 C        2.909    -0.041    29.007     8.831
    30   6 C        2.902     0.038    27.138     8.542
    31   7 N        1.836    -0.215    26.517     7.631
    32   6 C        2.902     0.050    26.871     8.500
    33   6 C        2.927    -0.042    29.039     8.837
    34   6 C        2.908     0.061    26.634     8.462
    35   7 N        2.804    -0.019    21.606     6.904
    36   6 C        3.077     0.046    26.892     8.502
    37   6 C        2.907    -0.043    29.072     8.841
    38   6 C        2.929    -0.036    28.900     8.816
    39   6 C        2.973     0.010    27.796     8.648
    40   6 C        3.902     0.027    20.069     6.368
    41   6 C        3.761    -0.110    22.649     6.784
    42   6 C        3.761    -0.106    22.568     6.772
    43   6 C        3.761    -0.106    22.582     6.774
    44   6 C        2.917    -0.040    28.985     8.828
    45   6 C        3.064    -0.014    28.307     8.724
    46   6 C        3.064    -0.014    28.291     8.722
    47   6 C        2.917    -0.039    28.972     8.826
    48   6 C        2.973     0.010    27.792     8.647
    49   6 C        3.902     0.027    20.068     6.368
    50   6 C        3.761    -0.107    22.592     6.776
    51   6 C        3.761    -0.107    22.582     6.774
    52   6 C        3.761    -0.110    22.644     6.784
    53   6 C        2.929    -0.037    28.919     8.819
    54   6 C        2.908    -0.046    29.132     8.850
    55   6 C        3.077     0.045    26.912     8.505
    56   6 C        2.922    -0.076    29.906     8.968
    57   1 H        0.925     0.040     2.447     2.446
    58   1 H        0.925     0.038     2.470     2.458
    59   1 H        0.925     0.039     2.457     2.451
    60   1 H        0.925     0.039     2.468     2.457
    61   1 H        0.925     0.034     2.532     2.489
    62   1 H        0.925     0.042     2.425     2.435
    63   1 H        0.925     0.042     2.422     2.434
    64   1 H        0.925     0.038     2.470     2.458
    65   1 H        0.925     0.036     2.508     2.477
    66   1 H        0.926     0.043     2.411     2.428
    67   1 H        0.926     0.033     2.542     2.493
    68   1 H        0.926     0.053     2.284     2.363
    69   1 H        0.926     0.052     2.291     2.367
    70   1 H        0.925     0.038     2.478     2.462
    71   1 H        0.925     0.034     2.529     2.487
    72   1 H        0.925     0.042     2.426     2.436
    73   1 H        0.925     0.036     2.508     2.477
    74   1 H        0.925     0.038     2.470     2.457
    75   1 H        0.925     0.042     2.427     2.436
    76   1 H        0.925     0.040     2.450     2.448
    77   1 H        0.925     0.039     2.461     2.453
    78   1 H        0.925     0.038     2.474     2.460
    79   1 H        0.926     0.041     2.429     2.437
    80   1 H        0.926     0.036     2.497     2.471
    81   1 H        0.926     0.039     2.464     2.455
    82   1 H        0.926     0.033     2.543     2.494
    83   1 H        0.926     0.036     2.509     2.477
    84   1 H        0.926     0.037     2.487     2.466
    85   1 H        0.926     0.033     2.547     2.496
    86   1 H        0.926     0.044     2.390     2.418
    87   1 H        0.926     0.034     2.537     2.491
    88   1 H        0.926     0.039     2.466     2.456
    89   1 H        0.925     0.040     2.443     2.444
    90   1 H        0.925     0.039     2.465     2.455
    91   1 H        0.925     0.040     2.451     2.448
    92   1 H        0.925     0.034     2.530     2.487
    93   1 H        0.925     0.036     2.498     2.472
    94   1 H        0.925     0.042     2.422     2.434
    95   1 H        0.925     0.042     2.420     2.433
    96   1 H        0.925     0.036     2.505     2.475
    97   1 H        0.925     0.037     2.487     2.466
    98   1 H        0.926     0.053     2.278     2.360
    99   1 H        0.926     0.052     2.291     2.367
   100   1 H        0.925     0.039     2.464     2.455
   101   1 H        0.925     0.036     2.509     2.477
   102   1 H        0.925     0.042     2.425     2.435
   103   1 H        0.925     0.042     2.424     2.435
   104   1 H        0.925     0.038     2.473     2.459
   105   1 H        0.925     0.034     2.528     2.486
   106   1 H        0.925     0.039     2.463     2.454
   107   1 H        0.925     0.040     2.449     2.447
   108   1 H        0.925     0.038     2.475     2.460
   109   1 H        0.926     0.042     2.416     2.431
   110   1 H        0.926     0.038     2.478     2.462
   111   1 H        0.926     0.051     2.308     2.376

molecular dipole:
                 x           y           z       tot (Debye)
 q only:       -0.025       5.299      -0.432
   full:       -0.109       4.818      -0.197      12.259

 projected vibrational frequencies (cm⁻¹)
eigval :       -0.00    -0.00    -0.00     0.00     0.00     0.00
eigval :        7.90     9.89    12.42    12.79    23.25    25.74
eigval :       31.01    32.93    35.69    39.50    44.06    48.18
eigval :       60.87    62.56    67.38    70.90    79.34    85.11
eigval :       87.97   106.69   113.31   128.87   146.38   153.42
eigval :      159.77   161.29   174.92   176.93   183.66   185.98
eigval :      194.08   200.11   201.71   210.34   217.16   220.11
eigval :      224.41   226.95   230.02   231.66   236.68   245.55
eigval :      252.04   256.40   257.30   273.00   282.93   286.73
eigval :      295.58   315.19   316.29   317.01   320.58   322.76
eigval :      329.95   336.92   337.94   344.20   348.37   355.23
eigval :      356.06   356.80   364.61   371.10   380.55   382.85
eigval :      392.94   396.53   402.23   403.57   404.85   426.61
eigval :      439.54   440.80   441.48   441.72   454.45   461.19
eigval :      461.57   463.06   465.16   465.37   500.85   509.66
eigval :      516.50   532.80   541.05   569.02   573.18   575.09
eigval :      582.25   585.29   591.82   596.31   608.70   622.11
eigval :      632.73   635.09   642.52   642.72   651.50   664.69
eigval :      668.78   691.79   692.36   700.21   708.61   709.24
eigval :      715.21   718.24   758.59   764.08   780.53   803.26
eigval :      819.91   823.16   826.11   829.48   831.20   831.45
eigval :      845.01   854.67   863.16   864.92   866.87   870.56
eigval :      871.56   872.30   874.84   888.33   902.05   909.59
eigval :      915.92   917.31   917.60   919.32   923.26   925.97
eigval :      929.51   931.80   958.25   958.94   959.03   959.16
eigval :      960.83   961.80   962.83   962.98   963.11   963.91
eigval :      964.78   965.02   965.68   978.26  1024.90  1027.89
eigval :     1031.91  1033.03  1033.40  1033.98  1034.26  1034.85
eigval :     1036.18  1037.76  1041.44  1045.17  1080.81  1108.16
eigval :     1112.83  1125.44  1125.99  1126.39  1134.66  1136.47
eigval :     1156.95  1158.23  1162.61  1177.83  1185.57  1208.18
eigval :     1218.37  1222.30  1222.39  1222.42  1222.65  1224.70
eigval :     1226.07  1227.16  1227.31  1227.80  1228.22  1230.10
eigval :     1230.68  1241.68  1249.78  1255.30  1258.21  1276.73
eigval :     1278.30  1287.09  1287.18  1292.35  1300.24  1307.09
eigval :     1329.03  1330.21  1331.38  1344.20  1348.25  1351.65
eigval :     1367.05  1380.84  1396.67  1398.32  1400.75  1400.82
eigval :     1401.47  1401.71  1402.60  1403.08  1403.89  1405.31
eigval :     1408.86  1413.51  1417.93  1425.58  1426.30  1426.98
eigval :     1427.63  1435.07  1439.98  1447.70  1457.42  1457.60
eigval :     1462.57  1473.38  1473.49  1487.39  1487.44  1487.67
eigval :     1488.46  1488.75  1489.86  1490.10  1490.90  1491.46
eigval :     1496.44  1496.66  1497.23  1497.32  1500.65  1500.81
eigval :     1501.60  1502.16  1506.67  1510.32  1510.60  1511.13
eigval :     1511.33  1515.28  1515.39  1516.08  1516.50  1552.76
eigval :     1556.06  1558.70  1568.99  1571.61  1571.95  1572.96
eigval :     1590.67  1603.23  3021.84  3022.03  3022.11  3022.48
eigval :     3022.61  3022.68  3023.02  3023.42  3025.61  3025.94
eigval :     3026.03  3026.19  3026.76  3027.28  3027.36  3027.57
eigval :     3029.41  3029.59  3029.87  3030.20  3032.45  3032.64
eigval :     3032.84  3033.11  3037.33  3037.60  3037.62  3037.94
eigval :     3045.91  3046.50  3046.62  3047.62  3049.09  3049.83
eigval :     3049.96  3050.53  3059.22  3065.82  3073.89  3084.64
eigval :     3086.01  3087.12  3087.32  3093.76  3096.54  3097.34
eigval :     3098.93  3099.43  3099.86  3104.69  3115.22  3122.60
eigval :     3123.05  3125.67  3125.86

   temp. (K)  partition function   enthalpy   heat capacity  entropy
                                   cal/mol     cal/K/mol   cal/K/mol   J/K/mol
 298.15  VIB  0.221E+26            32359.533    197.734    201.290
         ROT  0.160E+09              888.752      2.981     40.522
         INT  0.354E+34            33248.286    200.715    241.812
         TR   0.194E+29             1481.254      4.968     45.655
         TOT                       34729.5395   205.6831   287.4668  1202.7612

       T/K    H(0)-H(T)+PV         H(T)/Eh          T*S/Eh         G(T)/Eh
   ------------------------------------------------------------------------
    298.15    0.553450E-01    0.972617E+00    0.136585E+00    0.836033E+00
   ------------------------------------------------------------------------

         :::::::::::::::::::::::::::::::::::::::::::::::::::::
         ::                  THERMODYNAMIC                  ::
         :::::::::::::::::::::::::::::::::::::::::::::::::::::
         :: total free energy        -151.515797680259 Eh   ::
         ::.................................................::
         :: total energy             -152.351830353749 Eh   ::
         :: zero point energy           0.917272390826 Eh   ::
         :: G(RRHO) w/o ZPVE           -0.081239717336 Eh   ::
         :: G(RRHO) contrib.            0.836032673490 Eh   ::
         :::::::::::::::::::::::::::::::::::::::::::::::::::::

           -------------------------------------------------
          | TOTAL ENERGY             -152.351830353749 Eh   |
          | TOTAL ENTHALPY           -151.379212918796 Eh   |
          | TOTAL FREE ENERGY        -151.515797680259 Eh   |
          | GRADIENT NORM               0.000055938868 Eh/α |
          | HOMO-LUMO GAP               0.891336845810 eV   |
           -------------------------------------------------

 * finished run on 2025/09/08 at 02:26:43.760
