   * xtb version 6.7.1 (edcfbbe) compiled by 'albert@albert-system' on 2024-07-22

   ID    Z sym.   atoms
    1    6 C      1-20, 22-25, 27-30, 32-34, 36-56
    2    7 N      21, 31, 35
    3    8 O      26
    4    1 H      57-111

          program call               : xtb data2507/toluene/3BPy-mDTC/3BPy-mDTC_toluene_S0_crest.xyz --gfn 2 --gbsa toluene --ohess vtight --parallel 40 --molden --ceasefiles --namespace data2507/toluene/3BPy-mDTC/3BPy-mDTC_toluene_S0_finalOpt
      * Solvation model:               GBSA
        Solvent                        toluene
        Solvent mass                       9.2140E+01 g/mol
          :  Hamiltonian                  GFN2-xTB          :
 * total energy  :  -152.4243595 Eh     change       -0.6959368E-08 Eh
 * total energy  :  -152.4244438 Eh     change       -0.8434288E-04 Eh
 * total energy  :  -152.4244865 Eh     change       -0.4261242E-04 Eh
 * total energy  :  -152.4245030 Eh     change       -0.1656286E-04 Eh
 * total energy  :  -152.4245158 Eh     change       -0.1276980E-04 Eh
 * total energy  :  -152.4245336 Eh     change       -0.1782750E-04 Eh
 * total energy  :  -152.4245252 Eh     change        0.8417185E-05 Eh
 * total energy  :  -152.4245381 Eh     change       -0.1292882E-04 Eh
 * total energy  :  -152.4245449 Eh     change       -0.6760980E-05 Eh
 * total energy  :  -152.4245478 Eh     change       -0.2917080E-05 Eh
 * total energy  :  -152.4245931 Eh     change       -0.5641374E-06 Eh
 * total energy  :  -152.4245939 Eh     change       -0.8190173E-06 Eh
 * total energy  :  -152.4245949 Eh     change       -0.9963405E-06 Eh
 * total energy  :  -152.4245959 Eh     change       -0.9510687E-06 Eh
 * total energy  :  -152.4245968 Eh     change       -0.9523076E-06 Eh
 * total energy  :  -152.4245980 Eh     change       -0.1115228E-05 Eh
 * total energy  :  -152.4245992 Eh     change       -0.1272702E-05 Eh
 * total energy  :  -152.4246005 Eh     change       -0.1239381E-05 Eh
 * total energy  :  -152.4246005 Eh     change       -0.7413973E-08 Eh
   *** GEOMETRY OPTIMIZATION CONVERGED AFTER 44 ITERATIONS ***

 final structure:
================
111
 xtb: 6.7.1 (edcfbbe)
C            8.27458435645944        1.36164842812079       -1.22167945688029
C            7.45154734309731        0.15660378061068       -1.68788538278219
C            8.16082446290054       -1.11842173255274       -1.20730691076108
C            7.40278324098290        0.17703191308046       -3.22293685268650
C            6.03006468506601        0.17245100251137       -1.14241567690939
C            5.16533951305990       -0.87892638871869       -1.47472538798348
C            3.86444552950385       -0.95386110428945       -1.01884154029911
C            3.40526897007152        0.05406779573578       -0.18582362021798
C            4.24447206226686        1.13929866887441        0.13886732345602
C            5.54888624821321        1.19136236463274       -0.33595052665101
C            3.46746038981940        2.02636833696942        0.96211723894811
C            3.76261718288754        3.22745355042915        1.59432984695152
C            2.79938585404453        3.85369261644372        2.36872618159596
C            3.05073045628530        5.17283862106380        3.08645469835854
C            2.89080490022841        4.96130083405967        4.59954306103343
C            2.03486136068661        6.21590652571141        2.59706298535200
C            4.45676711573765        5.72388277278355        2.82955150429232
C            1.54980872317574        3.23483649371491        2.50592019815455
C            1.22921733222144        2.04245712530674        1.88779109226490
C            2.19094145457892        1.44169819850181        1.09057360319869
N            2.15861777176908        0.24655133780781        0.38880609196657
C            1.07437998450925       -0.62721624355886        0.31110109616013
C            1.25872661327616       -1.99264689722618        0.51640934305318
C            0.16650514191138       -2.85372410678723        0.46508300781148
C            0.32677082354108       -4.30632334262976        0.71310704135224
O           -0.54735951454104       -4.97665529640429        1.23512706457948
C            1.61054354385991       -4.90996069771077        0.27959777404223
C            2.20893235946910       -5.92142972799032        1.02998115908225
C            3.39686533702669       -6.47361936020611        0.58469787205924
C            3.94091984993473       -5.99460268033905       -0.59946424475458
N            3.35984531908182       -5.06514332195494       -1.34152262764675
C            2.22589775707153       -4.54247879800207       -0.91917650167635
C           -1.11004255870645       -2.35466636571187        0.22610880349410
C           -1.29720612227448       -0.99275044863777        0.00923657949678
N           -2.57335526903783       -0.48811347022504       -0.23950934443846
C           -3.71706398589236       -0.78791307245677        0.48296641028543
C           -3.88393007875232       -1.57235015382486        1.61350035591324
C           -5.14980175915935       -1.66534341796153        2.15680728519911
C           -6.26080919112378       -0.99906585965495        1.62220755862540
C           -7.61670668259104       -1.17417352600843        2.29278374302831
C           -8.72867179608174       -0.39299294925793        1.58556975552149
C           -7.99810254923127       -2.66206101922576        2.27782591827141
C           -7.53082397963283       -0.67414066482702        3.74267813423909
C           -6.07503714787948       -0.19687273041416        0.50791389855673
C           -4.81188694122751       -0.08432054736102       -0.05901187461159
C           -4.30347253321907        0.66979195647611       -1.17316824598253
C           -4.90682637682070        1.51785801834169       -2.09307544061109
C           -4.14813021719616        2.09626612917412       -3.09787860208207
C           -4.74059934058608        3.03880995804293       -4.13671440884695
C           -4.03521973037283        4.40002183473226       -4.04090486327304
C           -4.53321509114024        2.44331261690087       -5.53735905884703
C           -6.24216224113099        3.26650123507352       -3.93634272508384
C           -2.78217014758650        1.79028818235558       -3.16146200354112
C           -2.15690083388860        0.95075627179559       -2.26104846292925
C           -2.92174937364510        0.39861122020544       -1.24542175937951
C           -0.20099383427270       -0.13444974763752        0.04565958315296
H            9.28093201703675        1.29251049805007       -1.63033071904962
H            8.35355953986695        1.38533283817215       -0.13701495327409
H            7.83562500814265        2.29425568302492       -1.56911006126724
H            7.65865674268852       -2.01221884815900       -1.56713929303820
H            8.17824055719641       -1.15155729013059       -0.11945109590180
H            9.18681580602257       -1.13539797774398       -1.56961416929952
H            8.41203253746778        0.18663903199336       -3.62972411876061
H            6.88620206593867       -0.69467653644509       -3.61506163459147
H            6.88182293015483        1.06714142074207       -3.57075820667797
H            5.51460671247368       -1.67293736710517       -2.11668614785245
H            3.23261340913348       -1.77578987992603       -1.31732903448754
H            6.16238020986355        2.03416187039300       -0.06494024292930
H            4.74758729460495        3.64549328949180        1.47154484228130
H            1.88293832047227        4.64309101572088        4.85193823803658
H            3.58568929515696        4.19949197509847        4.94820170516482
H            3.09822816196677        5.88770749946601        5.13138570775429
H            2.13297552505721        6.36146629012142        1.52288088128577
H            1.01453724405482        5.90642149693877        2.80631229236327
H            2.20920301840957        7.16916474527951        3.09205942895730
H            4.57645566030065        6.66929907771927        3.35522894294476
H            4.61748127634519        5.90649499436713        1.76935692060456
H            5.21885176736773        5.03893361616172        3.19454577207900
H            0.79475708137760        3.69720197658992        3.12330457689127
H            0.25963860843691        1.59320775391100        2.04279969208986
H            2.24017799262114       -2.36798950028299        0.76006636499811
H            1.74246449806553       -6.24465598745292        1.94956066905063
H            3.89240705403530       -7.25161852399832        1.14333841982375
H            4.87954029999682       -6.37373542331862       -0.98136971264520
H            1.76939376329390       -3.81137509911140       -1.57447783288806
H           -1.94322838683491       -3.03894507007389        0.18338884782131
H           -3.05489901490789       -2.09321454428652        2.06926054798092
H           -5.27305054045861       -2.28058735044221        3.03513509303899
H           -9.67281206684128       -0.56180922468576        2.09997363209677
H           -8.84375213205072       -0.72297933245237        0.55550387885413
H           -8.52615309810889        0.67557814518223        1.59881379101350
H           -8.04342106991264       -3.02831575020651        1.25382608611761
H           -7.27524756666524       -3.26385729650464        2.82186730760777
H           -8.97375460220813       -2.80342849361964        2.73862718289316
H           -8.49861241283026       -0.77181142598583        4.23046647724211
H           -7.23791233743827        0.37395885306083        3.76245392911002
H           -6.80266932977600       -1.24155996890547        4.31585036263368
H           -6.88907395582992        0.35287083910328        0.06607776267018
H           -5.96435592796011        1.70266365847719       -2.00635813225525
H           -2.97083573963664        4.31078449191739       -4.24041118322600
H           -4.16120729320994        4.81927614337600       -3.04438763772456
H           -4.46009204760979        5.09372548475551       -4.76365778442142
H           -4.97310037078949        3.09511236007021       -6.28953526848331
H           -3.47798851424170        2.32371507813668       -5.76706741955117
H           -5.00944047384994        1.46693514067469       -5.60530686019945
H           -6.44449129756316        3.71121579134118       -2.96453803094290
H           -6.61018753436379        3.94819739343028       -4.70079228978150
H           -6.79455409106932        2.33368647715266       -4.02510345869313
H           -2.17963979253768        2.21952425475356       -3.94742745155639
H           -1.10530632881497        0.72800015930562       -2.36332741018848
H           -0.34260787057793        0.92156757955586       -0.12244232700498

          :  Hamiltonian                  GFN2-xTB          :
         :: gradient norm              0.000089205089 Eh/a0 ::
         :: HOMO-LUMO gap              1.502719579549 eV    ::
         :: SCC energy              -155.019953235746 Eh    ::
         :: -> dispersion             -0.139707260266 Eh    ::
         :: -> Gsolv                  -0.060825968711 Eh    ::
         :: repulsion energy           2.595352752548 Eh    ::

    * Orbital Energies and Occupations

         #    Occupation            Energy/Eh            Energy/eV
      -------------------------------------------------------------
         1        2.0000           -0.7241104             -19.7040
       ...           ...                  ...                  ...
       130        2.0000           -0.4146610             -11.2835
       131        2.0000           -0.4117523             -11.2044
       132        2.0000           -0.4091132             -11.1325
       133        2.0000           -0.4086445             -11.1198
       134        2.0000           -0.4064227             -11.0593
       135        2.0000           -0.4063292             -11.0568
       136        2.0000           -0.3967534             -10.7962
       137        2.0000           -0.3966528             -10.7935
       138        2.0000           -0.3857165             -10.4959
       139        2.0000           -0.3738473             -10.1729
       140        2.0000           -0.3737551             -10.1704
       141        2.0000           -0.3603024              -9.8043
       142        2.0000           -0.3600220              -9.7967 (HOMO)
       143                         -0.3047980              -8.2940 (LUMO)
       144                         -0.2657642              -7.2318
       145                         -0.2560033              -6.9662
       146                         -0.2511288              -6.8336
       147                         -0.2412072              -6.5636
       148                         -0.2381172              -6.4795
       149                         -0.2180763              -5.9342
       150                         -0.2179182              -5.9299
       151                         -0.2136329              -5.8132
       152                         -0.1888970              -5.1401
       153                         -0.1869747              -5.0878
       ...                                ...                  ...
       279                          0.7409636              20.1626
      -------------------------------------------------------------
                  HL-Gap            0.0552239 Eh            1.5027 eV

     #   Z          covCN         q      C6AA      α(0)
     1   6 C        3.761    -0.107    22.588     6.775
     2   6 C        3.902     0.025    20.099     6.373
     3   6 C        3.761    -0.105    22.557     6.770
     4   6 C        3.761    -0.105    22.556     6.770
     5   6 C        2.972    -0.001    28.046     8.687
     6   6 C        2.931    -0.040    28.985     8.829
     7   6 C        2.909    -0.055    29.372     8.887
     8   6 C        3.072     0.041    26.998     8.519
     9   6 C        3.065    -0.020    28.428     8.743
    10   6 C        2.918    -0.045    29.113     8.848
    11   6 C        3.066    -0.019    28.420     8.742
    12   6 C        2.918    -0.045    29.111     8.848
    13   6 C        2.972    -0.001    28.054     8.688
    14   6 C        3.902     0.025    20.099     6.373
    15   6 C        3.761    -0.105    22.546     6.769
    16   6 C        3.761    -0.105    22.551     6.770
    17   6 C        3.761    -0.107    22.590     6.775
    18   6 C        2.931    -0.040    28.991     8.830
    19   6 C        2.908    -0.055    29.361     8.885
    20   6 C        3.072     0.042    26.985     8.517
    21   7 N        2.801    -0.047    22.141     6.989
    22   6 C        2.908     0.072    26.386     8.423
    23   6 C        2.923    -0.049    29.223     8.865
    24   6 C        2.971    -0.014    28.356     8.735
    25   6 C        2.828     0.230    23.182     7.890
    26   8 O        0.858    -0.402    21.722     6.249
    27   6 C        2.968    -0.021    28.517     8.759
    28   6 C        2.931     0.001    28.017     8.681
    29   6 C        2.912    -0.034    28.848     8.807
    30   6 C        2.912     0.065    26.553     8.450
    31   7 N        1.835    -0.216    26.548     7.635
    32   6 C        2.913     0.065    26.548     8.449
    33   6 C        2.926    -0.040    28.987     8.829
    34   6 C        2.908     0.072    26.391     8.424
    35   7 N        2.801    -0.047    22.145     6.989
    36   6 C        3.074     0.043    26.969     8.515
    37   6 C        2.908    -0.054    29.339     8.882
    38   6 C        2.931    -0.040    28.985     8.829
    39   6 C        2.972    -0.001    28.058     8.689
    40   6 C        3.902     0.025    20.100     6.373
    41   6 C        3.761    -0.107    22.590     6.775
    42   6 C        3.761    -0.105    22.543     6.768
    43   6 C        3.761    -0.105    22.546     6.769
    44   6 C        2.918    -0.045    29.117     8.849
    45   6 C        3.065    -0.020    28.431     8.743
    46   6 C        3.066    -0.019    28.423     8.742
    47   6 C        2.918    -0.045    29.109     8.847
    48   6 C        2.972    -0.001    28.054     8.688
    49   6 C        3.902     0.025    20.099     6.373
    50   6 C        3.761    -0.105    22.551     6.770
    51   6 C        3.761    -0.105    22.550     6.769
    52   6 C        3.761    -0.107    22.589     6.775
    53   6 C        2.931    -0.040    28.991     8.830
    54   6 C        2.908    -0.055    29.363     8.885
    55   6 C        3.073     0.042    26.978     8.516
    56   6 C        2.926    -0.055    29.369     8.887
    57   1 H        0.925     0.037     2.492     2.469
    58   1 H        0.925     0.036     2.509     2.477
    59   1 H        0.925     0.036     2.505     2.475
    60   1 H        0.925     0.037     2.492     2.469
    61   1 H        0.925     0.032     2.563     2.503
    62   1 H        0.925     0.038     2.474     2.460
    63   1 H        0.925     0.038     2.474     2.460
    64   1 H        0.925     0.037     2.493     2.469
    65   1 H        0.925     0.032     2.553     2.499
    66   1 H        0.926     0.034     2.526     2.485
    67   1 H        0.926     0.026     2.648     2.545
    68   1 H        0.926     0.040     2.446     2.446
    69   1 H        0.926     0.040     2.442     2.444
    70   1 H        0.925     0.035     2.512     2.479
    71   1 H        0.925     0.032     2.559     2.501
    72   1 H        0.925     0.038     2.475     2.460
    73   1 H        0.925     0.033     2.547     2.496
    74   1 H        0.925     0.036     2.508     2.477
    75   1 H        0.925     0.038     2.477     2.461
    76   1 H        0.925     0.037     2.492     2.469
    77   1 H        0.925     0.036     2.500     2.473
    78   1 H        0.925     0.036     2.505     2.475
    79   1 H        0.926     0.031     2.571     2.507
    80   1 H        0.926     0.025     2.656     2.549
    81   1 H        0.926     0.049     2.331     2.388
    82   1 H        0.926     0.056     2.244     2.343
    83   1 H        0.926     0.060     2.203     2.321
    84   1 H        0.925     0.055     2.253     2.347
    85   1 H        0.925     0.044     2.390     2.418
    86   1 H        0.926     0.057     2.229     2.335
    87   1 H        0.926     0.025     2.660     2.551
    88   1 H        0.926     0.030     2.584     2.514
    89   1 H        0.925     0.037     2.489     2.467
    90   1 H        0.925     0.036     2.503     2.474
    91   1 H        0.925     0.036     2.499     2.472
    92   1 H        0.925     0.032     2.558     2.501
    93   1 H        0.925     0.035     2.517     2.481
    94   1 H        0.925     0.038     2.476     2.461
    95   1 H        0.925     0.038     2.473     2.459
    96   1 H        0.925     0.033     2.551     2.498
    97   1 H        0.925     0.035     2.515     2.480
    98   1 H        0.926     0.041     2.442     2.444
    99   1 H        0.926     0.040     2.447     2.446
   100   1 H        0.925     0.036     2.504     2.474
   101   1 H        0.925     0.033     2.550     2.497
   102   1 H        0.925     0.038     2.476     2.461
   103   1 H        0.925     0.038     2.475     2.460
   104   1 H        0.925     0.036     2.506     2.476
   105   1 H        0.925     0.032     2.557     2.501
   106   1 H        0.925     0.036     2.503     2.474
   107   1 H        0.925     0.037     2.492     2.469
   108   1 H        0.925     0.036     2.508     2.476
   109   1 H        0.926     0.032     2.560     2.502
   110   1 H        0.926     0.026     2.644     2.543
   111   1 H        0.926     0.063     2.168     2.302

molecular dipole:
                 x           y           z       tot (Debye)
 q only:        0.869       1.013      -0.262
   full:        0.792       0.728       0.054       2.738

 projected vibrational frequencies (cm⁻¹)
eigval :       -0.00    -0.00    -0.00     0.00     0.00     0.00
eigval :        9.24     9.54    12.23    12.50    21.44    25.52
eigval :       29.55    30.33    32.82    34.69    42.32    44.71
eigval :       58.87    61.58    64.26    67.84    75.09    85.11
eigval :       86.91   107.00   109.42   127.18   142.15   153.13
eigval :      156.03   158.28   171.46   173.19   179.39   184.03
eigval :      193.32   199.16   201.35   202.08   214.88   217.72
eigval :      220.41   221.36   225.53   229.69   236.31   239.73
eigval :      244.19   258.72   259.25   271.18   282.72   285.38
eigval :      291.79   313.94   316.76   318.26   321.48   323.08
eigval :      326.52   335.17   337.94   342.25   348.31   353.09
eigval :      359.56   359.89   363.65   366.81   374.00   381.36
eigval :      396.78   398.80   403.23   411.37   411.68   432.33
eigval :      439.38   440.29   441.83   442.83   456.57   461.50
eigval :      461.94   463.03   465.03   465.47   488.66   511.78
eigval :      519.36   539.96   553.61   574.71   579.04   584.20
eigval :      584.80   593.12   598.21   601.71   625.50   640.59
eigval :      640.82   641.09   653.76   665.62   668.93   686.04
eigval :      687.75   688.58   703.43   707.16   708.85   717.17
eigval :      718.66   721.69   766.64   785.61   796.91   816.75
eigval :      820.24   821.68   823.56   830.63   832.32   845.84
eigval :      868.84   869.24   871.46   872.68   873.65   876.24
eigval :      887.69   896.68   902.20   903.85   915.74   916.72
eigval :      917.65   920.30   922.53   923.70   926.20   927.39
eigval :      933.26   934.17   958.33   958.63   958.72   958.89
eigval :      960.12   960.32   961.43   961.72   961.83   962.34
eigval :      962.48   962.59   989.58   999.63  1027.83  1029.45
eigval :     1032.04  1032.96  1034.02  1034.39  1035.30  1035.30
eigval :     1036.77  1038.77  1043.47  1051.07  1089.08  1113.50
eigval :     1117.34  1128.62  1129.33  1129.89  1139.72  1142.88
eigval :     1165.65  1175.49  1176.85  1190.24  1192.39  1216.22
eigval :     1225.34  1225.40  1225.56  1225.65  1226.70  1229.00
eigval :     1229.41  1230.12  1232.14  1234.76  1235.28  1238.63
eigval :     1240.12  1250.04  1254.71  1257.89  1267.47  1280.69
eigval :     1282.54  1283.46  1295.86  1304.86  1306.11  1308.20
eigval :     1323.22  1340.75  1344.13  1344.82  1354.49  1357.80
eigval :     1390.12  1395.59  1399.07  1399.64  1400.74  1401.54
eigval :     1402.35  1402.40  1402.54  1402.83  1409.85  1410.46
eigval :     1425.90  1426.24  1426.45  1426.95  1430.91  1431.54
eigval :     1433.66  1452.01  1459.52  1480.30  1480.85  1482.24
eigval :     1482.56  1488.36  1488.60  1488.84  1488.88  1491.42
eigval :     1491.68  1491.89  1492.01  1498.19  1498.48  1498.57
eigval :     1499.14  1501.71  1501.73  1501.98  1502.38  1511.26
eigval :     1511.29  1511.46  1511.54  1516.86  1517.25  1518.09
eigval :     1518.15  1555.59  1556.96  1560.60  1562.57  1569.79
eigval :     1570.99  1580.72  1581.24  1603.30  1603.48  1614.45
eigval :     1614.85  1665.39  3018.50  3018.60  3018.79  3018.98
eigval :     3019.26  3019.42  3019.46  3019.68  3022.68  3022.97
eigval :     3022.98  3023.01  3024.16  3024.44  3024.56  3024.61
eigval :     3026.55  3026.57  3026.69  3026.72  3029.98  3030.06
eigval :     3030.42  3030.49  3035.09  3035.13  3035.21  3035.38
eigval :     3042.80  3043.05  3044.11  3044.44  3046.04  3046.56
eigval :     3047.15  3048.02  3050.94  3063.83  3074.91  3076.02
eigval :     3077.06  3079.05  3087.31  3089.67  3090.31  3091.25
eigval :     3099.20  3101.81  3104.19  3105.62  3110.09  3115.57
eigval :     3116.16  3118.89  3118.98

   temp. (K)  partition function   enthalpy   heat capacity  entropy
                                   cal/mol     cal/K/mol   cal/K/mol   J/K/mol
 298.15  VIB  0.469E+26            32336.673    196.064    201.662
         ROT  0.158E+09              888.752      2.981     40.498
         INT  0.742E+34            33225.425    199.044    242.161
         TR   0.194E+29             1481.254      4.968     45.655
         TOT                       34706.6793   204.0126   287.8159  1204.2217

       T/K    H(0)-H(T)+PV         H(T)/Eh          T*S/Eh         G(T)/Eh
   ------------------------------------------------------------------------
    298.15    0.553086E-01    0.975665E+00    0.136751E+00    0.838914E+00
   ------------------------------------------------------------------------

         :::::::::::::::::::::::::::::::::::::::::::::::::::::
         ::                  THERMODYNAMIC                  ::
         :::::::::::::::::::::::::::::::::::::::::::::::::::::
         :: total free energy        -151.585686409157 Eh   ::
         ::.................................................::
         :: total energy             -152.424600485067 Eh   ::
         :: zero point energy           0.920356076249 Eh   ::
         :: G(RRHO) w/o ZPVE           -0.081442000338 Eh   ::
         :: G(RRHO) contrib.            0.838914075911 Eh   ::
         :::::::::::::::::::::::::::::::::::::::::::::::::::::

           -------------------------------------------------
          | TOTAL ENERGY             -152.424600485067 Eh   |
          | TOTAL ENTHALPY           -151.448935794737 Eh   |
          | TOTAL FREE ENERGY        -151.585686409157 Eh   |
          | GRADIENT NORM               0.000089181802 Eh/α |
          | HOMO-LUMO GAP               1.502719922581 eV   |
           -------------------------------------------------

 * finished run on 2025/09/08 at 02:00:39.055
