   * xtb version 6.7.1 (edcfbbe) compiled by 'albert@albert-system' on 2024-07-22

   ID    Z sym.   atoms
    1    6 C      1-9, 11-22, 24-27
    2    7 N      10
    3    9 F      23
    4    1 H      28-47

          program call               : xtb data2507/toluene/BACF/BACF_toluene_S0_finalOpt.xtbopt.xyz --gfn 2 --uhf 2 --gbsa toluene --ohess vtight --parallel 40 --molden --ceasefiles --namespace data2507/toluene/BACF/BACF_toluene_T1_preOpt
      * Solvation model:               GBSA
        Solvent                        toluene
        Solvent mass                       9.2140E+01 g/mol
          :  Hamiltonian                  GFN2-xTB          :
 * total energy  :   -71.3469723 Eh     change       -0.3439467E-08 Eh
 * total energy  :   -71.3527140 Eh     change       -0.5741712E-02 Eh
 * total energy  :   -71.3540549 Eh     change       -0.1340898E-02 Eh
 * total energy  :   -71.3541414 Eh     change       -0.8651806E-04 Eh
 * total energy  :   -71.3541728 Eh     change       -0.3131185E-04 Eh
 * total energy  :   -71.3541864 Eh     change       -0.1367904E-04 Eh
 * total energy  :   -71.3541989 Eh     change       -0.1245067E-04 Eh
 * total energy  :   -71.3542155 Eh     change       -0.1657717E-04 Eh
 * total energy  :   -71.3542243 Eh     change       -0.8837027E-05 Eh
 * total energy  :   -71.3542331 Eh     change       -0.8812669E-05 Eh
 * total energy  :   -71.3542514 Eh     change       -0.1898601E-06 Eh
 * total energy  :   -71.3542516 Eh     change       -0.1885337E-06 Eh
 * total energy  :   -71.3542517 Eh     change       -0.1759105E-06 Eh
 * total energy  :   -71.3542519 Eh     change       -0.1730327E-06 Eh
 * total energy  :   -71.3542521 Eh     change       -0.1897822E-06 Eh
 * total energy  :   -71.3542523 Eh     change       -0.1939579E-06 Eh
 * total energy  :   -71.3542525 Eh     change       -0.1715709E-06 Eh
 * total energy  :   -71.3542526 Eh     change       -0.1212196E-06 Eh
 * total energy  :   -71.3542527 Eh     change       -0.8080235E-07 Eh
   *** GEOMETRY OPTIMIZATION CONVERGED AFTER 36 ITERATIONS ***

 final structure:
================
47
 xtb: 6.7.1 (edcfbbe)
C           -1.17056740588181       -2.72551291011243        1.11257672582365
C           -0.51573870780379       -1.92001394296573       -0.04318734514726
C           -0.91093390766689       -2.45939948076649       -1.44467937160845
C            0.97549740950198       -2.14866957562183        0.03888323525801
C            1.46750542404780       -3.44631777783117        0.07464975101125
C            2.82449447021982       -3.71069907914642        0.10058839797447
C            3.72994209461251       -2.65431245687912        0.08308280172863
C            3.27385191125411       -1.35898282309623        0.05181348057257
C            1.89362445074424       -1.08538094452122        0.03616881222919
N            1.44336812066175        0.21057058271363        0.02569027756246
C            2.41516860265370        1.25724193108598       -0.00938602504073
C            2.82095092821956        1.77620478664957       -1.23173555824910
C            3.76647697209825        2.78681714569253       -1.26578177967645
C            4.30532083449375        3.27617535747222       -0.08694736118642
C            3.89928737279380        2.75474531575837        1.13074440443256
C            2.95454552717123        1.74394244582457        1.17461733481068
C            0.11544563612225        0.55812595753059        0.05912008122653
C           -0.23161724750813        1.89884579136200        0.12387577634604
C           -1.55763508870006        2.28597090594409        0.14349009470110
C           -2.59796300411782        1.32981478485838        0.07889053548216
C           -3.92794963643699        1.74863446505629        0.08028852053374
C           -4.95695427499131        0.79842469091294        0.00882152969951
F           -6.25031153465843        1.24323459971733        0.01310251179900
C           -4.69708415487590       -0.53915010835505       -0.06389366193095
C           -3.35991181989930       -0.97041367574662       -0.06396039566754
C           -2.27326144589647       -0.06627361882035        0.01070969121380
C           -0.91375902493194       -0.46668067915427        0.02535116356727
H           -1.94443140951228       -2.14599522926851        1.60569798251017
H           -0.42097831449595       -2.97108454252751        1.86222393265862
H           -1.60673370765979       -3.65256080205299        0.75028046512016
H           -0.27587982371417       -1.99538355519441       -2.19804827657674
H           -0.76811900148465       -3.53528959546214       -1.49385884882911
H           -1.94149147570319       -2.22410213737991       -1.68754037615693
H            0.77433003421417       -4.27286311637583        0.08590265246305
H            3.17711786840071       -4.73014716016912        0.13001807153778
H            4.79184973106578       -2.84875533650526        0.09571890237714
H            3.97843416977825       -0.54262741611780        0.04066928909432
H            2.39253823507419        1.38847087723414       -2.14397599737657
H            4.08158179344526        3.19125508117264       -2.21581022959486
H            5.04128761911150        4.06539015869597       -0.11724843799642
H            4.31738274338739        3.13491943419553        2.05062175548034
H            2.62833597922096        1.33124357077000        2.11766988260990
H            0.53481300314085        2.65622363571048        0.16131838493644
H           -1.81414771810052        3.33255960887556        0.19904451303409
H           -4.17426835434292        2.79726777703156        0.13533089806495
H           -5.50234256355905       -1.25474844105649       -0.11940273036982
H           -3.20447450887474       -2.03060967596550       -0.12050406734659

          :  Hamiltonian                  GFN2-xTB          :
         :: gradient norm              0.000044901825 Eh/a0 ::
         :: HOMO-LUMO gap              0.526309663677 eV    ::
         :: SCC energy               -72.573887154055 Eh    ::
         :: -> dispersion             -0.062378269251 Eh    ::
         :: -> Gsolv                  -0.030700811738 Eh    ::
         :: repulsion energy           1.219634496205 Eh    ::

    * Orbital Energies and Occupations

         #    Occupation            Energy/Eh            Energy/eV
      -------------------------------------------------------------
         1        2.0000           -0.8052740             -21.9126
       ...           ...                  ...                  ...
        55        2.0000           -0.4387452             -11.9389
        56        2.0000           -0.4311205             -11.7314
        57        2.0000           -0.4243823             -11.5480
        58        2.0000           -0.4209941             -11.4558
        59        2.0000           -0.4173344             -11.3562
        60        2.0000           -0.4125456             -11.2259
        61        2.0000           -0.4110757             -11.1859
        62        2.0000           -0.4057062             -11.0398
        63        2.0000           -0.4029016             -10.9635
        64        2.0000           -0.3988008             -10.8519
        65        2.0000           -0.3746927             -10.1959
        66        1.0000           -0.3466104              -9.4318
        67        1.0000           -0.2605243              -7.0892 (HOMO)
        68        0.0000           -0.2411827              -6.5629 (LUMO)
        69        0.0000           -0.2393727              -6.5137
        70                         -0.2276171              -6.1938
        71                         -0.2270585              -6.1786
        72                         -0.2053660              -5.5883
        73                         -0.1849898              -5.0338
        74                         -0.1369386              -3.7263
        75                         -0.1104649              -3.0059
        76                         -0.0950794              -2.5872
        77                         -0.0560307              -1.5247
        78                         -0.0052601              -0.1431
       ...                                ...                  ...
       128                          0.6976810              18.9849
      -------------------------------------------------------------
                  HL-Gap            0.0193416 Eh            0.5263 eV

     #   Z          covCN         q      C6AA      α(0)
     1   6 C        3.757    -0.109    22.635     6.783
     2   6 C        3.905     0.026    20.083     6.370
     3   6 C        3.766    -0.103    22.501     6.761
     4   6 C        2.987    -0.003    28.094     8.695
     5   6 C        2.924    -0.036    28.893     8.815
     6   6 C        2.917    -0.038    28.943     8.822
     7   6 C        2.917    -0.031    28.771     8.796
     8   6 C        2.920    -0.052    29.282     8.874
     9   6 C        2.931     0.053    26.805     8.491
    10   7 N        2.756    -0.011    21.460     6.880
    11   6 C        2.936     0.064    26.566     8.453
    12   6 C        2.921    -0.034    28.856     8.809
    13   6 C        2.920    -0.025    28.632     8.775
    14   6 C        2.919    -0.027    28.685     8.783
    15   6 C        2.920    -0.025    28.633     8.775
    16   6 C        2.920    -0.035    28.865     8.810
    17   6 C        2.920     0.047    26.944     8.512
    18   6 C        2.912    -0.066    29.647     8.928
    19   6 C        2.919    -0.063    29.556     8.915
    20   6 C        2.981     0.008    27.829     8.653
    21   6 C        2.919    -0.084    30.107     8.998
    22   6 C        2.777     0.151    24.704     8.141
    23   9 F        0.785    -0.276    12.047     4.100
    24   6 C        2.907    -0.069    29.725     8.940
    25   6 C        2.922    -0.068    29.685     8.935
    26   6 C        2.968     0.003    27.956     8.673
    27   6 C        2.967    -0.023    28.579     8.769
    28   1 H        0.925     0.050     2.322     2.383
    29   1 H        0.925     0.043     2.408     2.427
    30   1 H        0.925     0.048     2.350     2.397
    31   1 H        0.925     0.036     2.505     2.475
    32   1 H        0.925     0.050     2.325     2.385
    33   1 H        0.925     0.054     2.276     2.359
    34   1 H        0.926     0.046     2.364     2.404
    35   1 H        0.926     0.037     2.491     2.468
    36   1 H        0.926     0.037     2.485     2.465
    37   1 H        0.926     0.037     2.488     2.467
    38   1 H        0.926     0.046     2.370     2.407
    39   1 H        0.926     0.048     2.339     2.392
    40   1 H        0.926     0.047     2.354     2.399
    41   1 H        0.926     0.049     2.338     2.391
    42   1 H        0.926     0.047     2.357     2.401
    43   1 H        0.926     0.024     2.674     2.557
    44   1 H        0.926     0.018     2.770     2.603
    45   1 H        0.926     0.026     2.640     2.541
    46   1 H        0.926     0.032     2.563     2.503
    47   1 H        0.926     0.050     2.316     2.380

molecular dipole:
                 x           y           z       tot (Debye)
 q only:        3.797      -0.925      -0.069
   full:        3.700      -0.830      -0.087       9.641

 projected vibrational frequencies (cm⁻¹)
eigval :       -0.00    -0.00    -0.00     0.00     0.00     0.00
eigval :       16.70    28.89    43.66    60.24    64.67    90.09
eigval :      108.60   126.62   148.96   161.27   188.51   194.60
eigval :      217.52   228.89   238.73   264.74   281.77   305.11
eigval :      311.55   334.52   347.07   370.23   380.68   391.19
eigval :      397.08   414.61   449.04   464.37   484.21   500.13
eigval :      512.23   518.16   521.05   538.03   556.38   582.27
eigval :      590.41   599.25   607.44   633.06   669.49   686.81
eigval :      688.60   692.88   722.43   737.90   755.72   763.13
eigval :      767.88   775.65   794.67   825.67   840.64   848.34
eigval :      860.56   873.25   897.87   911.19   913.25   915.88
eigval :      917.72   926.89   930.10   947.45   959.74   971.05
eigval :      991.10  1022.59  1052.30  1073.57  1077.05  1098.47
eigval :     1108.15  1111.56  1112.59  1136.47  1145.32  1153.30
eigval :     1176.59  1180.30  1183.17  1197.20  1207.62  1218.57
eigval :     1226.23  1245.41  1268.35  1271.56  1297.30  1298.80
eigval :     1306.83  1330.95  1337.65  1345.61  1359.14  1372.03
eigval :     1395.26  1410.46  1420.33  1426.24  1428.66  1446.71
eigval :     1459.07  1465.90  1471.02  1478.93  1493.59  1496.94
eigval :     1498.93  1509.17  1522.82  1550.08  1576.43  1578.75
eigval :     1585.80  3019.66  3025.92  3035.39  3041.04  3062.73
eigval :     3066.33  3081.75  3082.48  3083.79  3084.19  3089.94
eigval :     3090.76  3094.50  3095.40  3098.43  3100.87  3102.26
eigval :     3105.12  3107.42  3162.95

   temp. (K)  partition function   enthalpy   heat capacity  entropy
                                   cal/mol     cal/K/mol   cal/K/mol   J/K/mol
 298.15  VIB  0.251E+09            12435.823     83.050     74.579
         ROT  0.128E+08              888.752      2.981     35.503
         INT  0.321E+16            13324.575     86.031    110.082
         TR   0.643E+28             1481.254      4.968     43.462
         TOT                       14805.8290    90.9994   153.5440   642.4279

       T/K    H(0)-H(T)+PV         H(T)/Eh          T*S/Eh         G(T)/Eh
   ------------------------------------------------------------------------
    298.15    0.235946E-01    0.389512E+00    0.729537E-01    0.316558E+00
   ------------------------------------------------------------------------

         :::::::::::::::::::::::::::::::::::::::::::::::::::::
         ::                  THERMODYNAMIC                  ::
         :::::::::::::::::::::::::::::::::::::::::::::::::::::
         :: total free energy         -71.037694638605 Eh   ::
         ::.................................................::
         :: total energy              -71.354252654292 Eh   ::
         :: zero point energy           0.365917111432 Eh   ::
         :: G(RRHO) w/o ZPVE           -0.049359095745 Eh   ::
         :: G(RRHO) contrib.            0.316558015687 Eh   ::
         :::::::::::::::::::::::::::::::::::::::::::::::::::::

           -------------------------------------------------
          | TOTAL ENERGY              -71.354252654292 Eh   |
          | TOTAL ENTHALPY            -70.964740952542 Eh   |
          | TOTAL FREE ENERGY         -71.037694638605 Eh   |
          | GRADIENT NORM               0.000044969003 Eh/α |
          | HOMO-LUMO GAP               0.526311216670 eV   |
           -------------------------------------------------

 * finished run on 2025/07/18 at 12:44:23.734
