   * xtb version 6.7.1 (edcfbbe) compiled by 'albert@albert-system' on 2024-07-22

   ID    Z sym.   atoms
    1    6 C      1-9, 11-22, 24-27
    2    7 N      10
    3    9 F      23
    4    1 H      28-47

          program call               : xtb data2507/toluene/BACF/BACF_toluene_S0_crest.xyz --gfn 2 --gbsa toluene --ohess vtight --parallel 40 --molden --ceasefiles --namespace data2507/toluene/BACF/BACF_toluene_S0_finalOpt
      * Solvation model:               GBSA
        Solvent                        toluene
        Solvent mass                       9.2140E+01 g/mol
          :  Hamiltonian                  GFN2-xTB          :
 * total energy  :   -71.4421294 Eh     change       -0.1738812E-08 Eh
 * total energy  :   -71.4421699 Eh     change       -0.4054700E-04 Eh
 * total energy  :   -71.4421822 Eh     change       -0.1226459E-04 Eh
 * total energy  :   -71.4421835 Eh     change       -0.1348119E-05 Eh
 * total energy  :   -71.4421830 Eh     change        0.5200467E-06 Eh
 * total energy  :   -71.4421842 Eh     change       -0.1131226E-05 Eh
 * total energy  :   -71.4421847 Eh     change       -0.5250440E-06 Eh
 * total energy  :   -71.4421857 Eh     change       -0.1015146E-05 Eh
 * total energy  :   -71.4421866 Eh     change       -0.9008526E-06 Eh
 * total energy  :   -71.4421871 Eh     change       -0.4832242E-06 Eh
 * total energy  :   -71.4421878 Eh     change       -0.3562722E-06 Eh
 * total energy  :   -71.4421882 Eh     change       -0.4775076E-06 Eh
 * total energy  :   -71.4421887 Eh     change       -0.4602748E-06 Eh
 * total energy  :   -71.4421891 Eh     change       -0.3909125E-06 Eh
 * total energy  :   -71.4421895 Eh     change       -0.3909790E-06 Eh
 * total energy  :   -71.4421899 Eh     change       -0.4061807E-06 Eh
 * total energy  :   -71.4421902 Eh     change       -0.2979649E-06 Eh
 * total energy  :   -71.4421903 Eh     change       -0.1161809E-06 Eh
 * total energy  :   -71.4421903 Eh     change       -0.2495374E-07 Eh
   *** GEOMETRY OPTIMIZATION CONVERGED AFTER 20 ITERATIONS ***

 final structure:
================
47
 xtb: 6.7.1 (edcfbbe)
C           -1.16247157235575       -2.71879279382450        1.10799181029766
C           -0.51787394232669       -1.93398883605002       -0.06544779357247
C           -0.93526261726190       -2.47774828575940       -1.45175530403686
C            0.98468405201136       -2.15064420123665        0.01402406772087
C            1.47626953882348       -3.44928756281609        0.03610706978018
C            2.83267325105768       -3.71611890433651        0.07668206154481
C            3.73019252719948       -2.66291238579968        0.09715516952780
C            3.26655455744863       -1.36367036250472        0.07800246690810
C            1.89562997004442       -1.09487893776022        0.03384832937246
N            1.44027999640722        0.21285297765723        0.01322845354898
C            2.40503383947816        1.26376139685400       -0.00851387371164
C            2.85181281826904        1.76472882207106       -1.22490254748037
C            3.79586806127667        2.77688767151232       -1.24723386442208
C            4.29615617973759        3.28757135559635       -0.06065739708067
C            3.85264840614124        2.78550017129678        1.15220601710446
C            2.90872197041790        1.77372259170036        1.18212338626399
C            0.09243112379210        0.51932285107754        0.03155320644189
C           -0.25838249986402        1.89046090471473        0.07920425728085
C           -1.55740288439519        2.28496418461539        0.09402749458087
C           -2.59214765770315        1.33085681324748        0.06082619848826
C           -3.93564707948238        1.75523732493408        0.06797921343958
C           -4.93293032934529        0.82874700381149        0.02940794520184
F           -6.23657084712539        1.23116736701943        0.03444532976684
C           -4.65450468541839       -0.53937853674336       -0.01530241701182
C           -3.35380681091596       -0.96043367809911       -0.01974311983189
C           -2.26164604051099       -0.05530727119842        0.01690159764560
C           -0.89385642573031       -0.45863119660410        0.00688025260402
H           -1.80756800306534       -2.07953550899136        1.70397752085510
H           -0.38811758326941       -3.09903858597207        1.77149378450409
H           -1.74205560388779       -3.56735369417092        0.75228517765650
H           -0.30393925618199       -2.02556669461144       -2.21597739146467
H           -0.79836989502464       -3.55513563993684       -1.49658208880394
H           -1.96626062461749       -2.24423499998559       -1.69481562360134
H            0.78274231584513       -4.27652874815320        0.02305415993681
H            3.18408524434309       -4.73702184717019        0.09045657127932
H            4.79366574830891       -2.85009614371167        0.12853292234435
H            3.97115803447981       -0.54659503142510        0.09605680994303
H            2.45552529809954        1.35870110201910       -2.14411361935248
H            4.14166308754574        3.16586002939752       -2.19347391149564
H            5.03268573798741        4.07695856519630       -0.08087584303681
H            4.24268699033561        3.18160406673115        2.07809552967226
H            2.55594283254432        1.37438455973821        2.12183373181483
H            0.52631379259099        2.62986099511538        0.10366514659006
H           -1.81098196763768        3.33406544464765        0.12927324021187
H           -4.16554214462289        2.80931426828026        0.10231435002657
H           -5.47191760090163       -1.24337659883466       -0.04435896259837
H           -3.18151670804105       -2.02008207503791       -0.04885197065185

          :  Hamiltonian                  GFN2-xTB          :
         :: gradient norm              0.000082759763 Eh/a0 ::
         :: HOMO-LUMO gap              2.259186472696 eV    ::
         :: SCC energy               -72.678958473136 Eh    ::
         :: -> dispersion             -0.062498741945 Eh    ::
         :: -> Gsolv                  -0.027396323548 Eh    ::
         :: repulsion energy           1.236768152023 Eh    ::

    * Orbital Energies and Occupations

         #    Occupation            Energy/Eh            Energy/eV
      -------------------------------------------------------------
         1        2.0000           -0.8129422             -22.1213
       ...           ...                  ...                  ...
        54        2.0000           -0.4402276             -11.9792
        55        2.0000           -0.4379154             -11.9163
        56        2.0000           -0.4304739             -11.7138
        57        2.0000           -0.4260233             -11.5927
        58        2.0000           -0.4202249             -11.4349
        59        2.0000           -0.4157848             -11.3141
        60        2.0000           -0.4133028             -11.2465
        61        2.0000           -0.4088232             -11.1246
        62        2.0000           -0.4037078             -10.9854
        63        2.0000           -0.4028593             -10.9624
        64        2.0000           -0.3939001             -10.7186
        65        2.0000           -0.3863241             -10.5124
        66        2.0000           -0.3452392              -9.3944 (HOMO)
        67                         -0.2622157              -7.1353 (LUMO)
        68                         -0.2355583              -6.4099
        69                         -0.2341514              -6.3716
        70                         -0.2317741              -6.3069
        71                         -0.2178453              -5.9279
        72                         -0.2041000              -5.5538
        73                         -0.1896400              -5.1604
        74                         -0.1418719              -3.8605
        75                         -0.1053805              -2.8675
        76                         -0.0833138              -2.2671
        77                         -0.0615633              -1.6752
       ...                                ...                  ...
       128                          0.6914567              18.8155
      -------------------------------------------------------------
                  HL-Gap            0.0830236 Eh            2.2592 eV

     #   Z          covCN         q      C6AA      α(0)
     1   6 C        3.756    -0.110    22.655     6.787
     2   6 C        3.905     0.021    20.158     6.382
     3   6 C        3.763    -0.105    22.556     6.770
     4   6 C        2.986    -0.014    28.345     8.733
     5   6 C        2.928    -0.039    28.976     8.828
     6   6 C        2.917    -0.046    29.148     8.853
     7   6 C        2.920    -0.035    28.877     8.812
     8   6 C        2.923    -0.059    29.470     8.902
     9   6 C        2.930     0.058    26.705     8.475
    10   7 N        2.756    -0.070    22.590     7.059
    11   6 C        2.927     0.068    26.480     8.439
    12   6 C        2.921    -0.038    28.936     8.821
    13   6 C        2.920    -0.027    28.684     8.783
    14   6 C        2.919    -0.030    28.742     8.792
    15   6 C        2.920    -0.028    28.689     8.783
    16   6 C        2.921    -0.038    28.936     8.821
    17   6 C        2.921     0.060    26.647     8.465
    18   6 C        2.921    -0.052    29.295     8.876
    19   6 C        2.918    -0.039    28.962     8.825
    20   6 C        2.994     0.003    27.949     8.672
    21   6 C        2.920    -0.058    29.434     8.897
    22   6 C        2.782     0.156    24.610     8.126
    23   9 F        0.786    -0.268    11.965     4.086
    24   6 C        2.912    -0.053    29.325     8.880
    25   6 C        2.923    -0.043    29.061     8.840
    26   6 C        2.978     0.004    27.918     8.667
    27   6 C        2.969    -0.024    28.593     8.771
    28   1 H        0.925     0.042     2.425     2.435
    29   1 H        0.925     0.039     2.458     2.452
    30   1 H        0.925     0.042     2.429     2.437
    31   1 H        0.925     0.030     2.585     2.514
    32   1 H        0.925     0.042     2.418     2.432
    33   1 H        0.925     0.045     2.383     2.414
    34   1 H        0.926     0.036     2.499     2.472
    35   1 H        0.926     0.025     2.653     2.547
    36   1 H        0.926     0.026     2.641     2.541
    37   1 H        0.926     0.026     2.649     2.545
    38   1 H        0.926     0.041     2.429     2.437
    39   1 H        0.926     0.043     2.412     2.429
    40   1 H        0.926     0.042     2.419     2.432
    41   1 H        0.926     0.043     2.412     2.429
    42   1 H        0.926     0.042     2.418     2.432
    43   1 H        0.926     0.037     2.494     2.470
    44   1 H        0.926     0.038     2.481     2.463
    45   1 H        0.926     0.048     2.339     2.392
    46   1 H        0.926     0.048     2.339     2.392
    47   1 H        0.926     0.068     2.112     2.272

molecular dipole:
                 x           y           z       tot (Debye)
 q only:        1.897      -0.065      -0.028
   full:        1.860       0.020      -0.036       4.729

 projected vibrational frequencies (cm⁻¹)
eigval :       -0.00     0.00     0.00     0.00     0.00     0.00
eigval :       18.24    29.59    43.26    59.73    66.55    99.28
eigval :      111.75   134.61   149.53   164.70   180.97   201.67
eigval :      221.52   233.93   239.34   262.38   284.43   312.95
eigval :      343.57   348.77   361.76   373.25   383.05   394.46
eigval :      404.74   423.36   452.74   469.20   480.53   501.61
eigval :      517.77   522.37   534.84   563.87   581.60   588.84
eigval :      591.66   612.08   632.19   636.53   673.14   693.27
eigval :      695.21   720.92   735.02   760.95   779.37   796.55
eigval :      811.76   831.40   835.80   866.20   871.09   879.10
eigval :      900.76   911.76   914.51   916.05   921.01   923.49
eigval :      928.70   930.87   933.72   960.86   966.73   971.34
eigval :      994.28  1030.99  1064.98  1076.92  1081.33  1110.68
eigval :     1111.84  1134.80  1143.76  1144.47  1159.44  1177.50
eigval :     1177.73  1184.05  1185.91  1202.18  1229.15  1232.05
eigval :     1239.59  1254.49  1269.18  1272.17  1305.88  1307.07
eigval :     1314.36  1332.93  1335.16  1377.68  1392.70  1404.17
eigval :     1405.58  1422.51  1430.27  1437.19  1462.46  1470.93
eigval :     1485.77  1489.95  1498.09  1502.19  1507.59  1516.60
eigval :     1552.70  1581.05  1586.22  1591.80  1592.95  1600.91
eigval :     1614.18  3015.24  3021.86  3028.72  3037.89  3049.42
eigval :     3067.52  3072.19  3076.92  3078.94  3080.05  3080.11
eigval :     3085.50  3089.84  3091.59  3093.97  3096.88  3098.44
eigval :     3098.96  3107.20  3162.30

   temp. (K)  partition function   enthalpy   heat capacity  entropy
                                   cal/mol     cal/K/mol   cal/K/mol   J/K/mol
 298.15  VIB  0.152E+09            12168.999     81.407     72.856
         ROT  0.128E+08              888.752      2.981     35.500
         INT  0.195E+16            13057.751     84.388    108.356
         TR   0.643E+28             1481.254      4.968     43.462
         TOT                       14539.0052    89.3564   151.8178   635.2058

       T/K    H(0)-H(T)+PV         H(T)/Eh          T*S/Eh         G(T)/Eh
   ------------------------------------------------------------------------
    298.15    0.231694E-01    0.392672E+00    0.721335E-01    0.320538E+00
   ------------------------------------------------------------------------

         :::::::::::::::::::::::::::::::::::::::::::::::::::::
         ::                  THERMODYNAMIC                  ::
         :::::::::::::::::::::::::::::::::::::::::::::::::::::
         :: total free energy         -71.121652284806 Eh   ::
         ::.................................................::
         :: total energy              -71.442190316654 Eh   ::
         :: zero point energy           0.369502197683 Eh   ::
         :: G(RRHO) w/o ZPVE           -0.048964165835 Eh   ::
         :: G(RRHO) contrib.            0.320538031847 Eh   ::
         :::::::::::::::::::::::::::::::::::::::::::::::::::::

           -------------------------------------------------
          | TOTAL ENERGY              -71.442190316654 Eh   |
          | TOTAL ENTHALPY            -71.049518739346 Eh   |
          | TOTAL FREE ENERGY         -71.121652284806 Eh   |
          | GRADIENT NORM               0.000082731806 Eh/α |
          | HOMO-LUMO GAP               2.259186130606 eV   |
           -------------------------------------------------

 * finished run on 2025/07/18 at 12:44:21.571
