   * xtb version 6.7.1 (edcfbbe) compiled by 'albert@albert-system' on 2024-07-22

   ID    Z sym.   atoms
    1    6 C      1-9, 11-22, 24-27
    2    7 N      10
    3    9 F      23
    4    1 H      28-47

          program call               : xtb data2507/toluene/BACF/BACF_toluene_T1_crest.xyz --gfn 2 --uhf 2 --gbsa toluene --ohess vtight --parallel 40 --molden --ceasefiles --namespace data2507/toluene/BACF/BACF_toluene_T1_finalOpt
      * Solvation model:               GBSA
        Solvent                        toluene
        Solvent mass                       9.2140E+01 g/mol
          :  Hamiltonian                  GFN2-xTB          :
 * total energy  :   -71.3541495 Eh     change       -0.3594209E-09 Eh
 * total energy  :   -71.3542146 Eh     change       -0.6517823E-04 Eh
 * total energy  :   -71.3542357 Eh     change       -0.2109332E-04 Eh
 * total energy  :   -71.3542384 Eh     change       -0.2654811E-05 Eh
 * total energy  :   -71.3542395 Eh     change       -0.1133752E-05 Eh
 * total energy  :   -71.3542407 Eh     change       -0.1136366E-05 Eh
 * total energy  :   -71.3542423 Eh     change       -0.1681206E-05 Eh
 * total energy  :   -71.3542440 Eh     change       -0.1678854E-05 Eh
 * total energy  :   -71.3542449 Eh     change       -0.8280585E-06 Eh
 * total energy  :   -71.3542451 Eh     change       -0.2766364E-06 Eh
 * total energy  :   -71.3542467 Eh     change       -0.7622925E-06 Eh
 * total energy  :   -71.3542475 Eh     change       -0.8236647E-06 Eh
 * total energy  :   -71.3542481 Eh     change       -0.5770151E-06 Eh
 * total energy  :   -71.3542485 Eh     change       -0.4604280E-06 Eh
 * total energy  :   -71.3542491 Eh     change       -0.5174921E-06 Eh
 * total energy  :   -71.3542496 Eh     change       -0.5228177E-06 Eh
 * total energy  :   -71.3542499 Eh     change       -0.3079364E-06 Eh
 * total energy  :   -71.3542501 Eh     change       -0.2172340E-06 Eh
 * total energy  :   -71.3542501 Eh     change       -0.4208445E-08 Eh
   *** GEOMETRY OPTIMIZATION CONVERGED AFTER 22 ITERATIONS ***

 final structure:
================
47
 xtb: 6.7.1 (edcfbbe)
C           -1.17150639862237       -2.71800441918593        1.11833912825189
C           -0.52117208260279       -1.91796342989709       -0.04377113754466
C           -0.92528527494732       -2.46062171730694       -1.44138771701581
C            0.96977069588413       -2.15056053500052        0.03218251200126
C            1.45841634857863       -3.44953224553810        0.06604135974029
C            2.81473285459593       -3.71757283387131        0.08933215675812
C            3.72293934581132       -2.66353782219694        0.07255948812296
C            3.27020428636215       -1.36698873448352        0.04399353310496
C            1.89066646122693       -1.08969045409502        0.02915192172820
N            1.44396865078100        0.20752060884599        0.02005921751974
C            2.41978630269384        1.25078186478896       -0.00777816041919
C            2.84539813180312        1.76099769275233       -1.22709168347729
C            3.79688441011677        2.76627341613989       -1.25324228062520
C            4.32178339583680        3.25911536032521       -0.06961940950444
C            3.89546248473501        2.74690382130932        1.14504368073944
C            2.94473290349214        1.74141644095950        1.18103467966111
C            0.11697636077252        0.55885729166948        0.05001058262583
C           -0.22644686554805        1.90089672168843        0.10601688517589
C           -1.55140670102597        2.29171643516007        0.12510185653867
C           -2.59440636848421        1.33785014054698        0.07087338672875
C           -3.92331106916264        1.76016474229483        0.07448098079995
C           -4.95509563862932        0.81227246270716        0.01281413867484
F           -6.24726347135463        1.26052421540205        0.01937111007566
C           -4.69893111953320       -0.52634554425334       -0.05309491632292
C           -3.36285616582609       -0.96113376017501       -0.05550658376683
C           -2.27355185348374       -0.05947067700159        0.01017625224083
C           -0.91501909768740       -0.46335274380129        0.02199921691170
H           -1.94495732153246       -2.13719782508233        1.61055081882942
H           -0.41925874747163       -2.95808095908857        1.86714645022745
H           -1.60691649623806       -3.64784970087900        0.76235855377643
H           -1.95616734287544       -2.22246425265204       -1.68000957730369
H           -0.29229600581849       -2.00126412692279       -2.19933763634120
H           -0.78661031895697       -3.53715923113205       -1.48787470409876
H            0.76312324446086       -4.27427486721706        0.07825900483858
H            3.16468555302387       -4.73799190724280        0.11683173622484
H            4.78435606835409       -2.86073491914456        0.08388201901287
H            3.97697201865028       -0.55252337563055        0.03408677780734
H            2.42803480339125        1.37041192722387       -2.14322371795677
H            4.12767169216982        3.16363131266965       -2.20093209951249
H            5.06300732938713        4.04360333149926       -0.09375449878760
H            4.30268907110630        3.12980625977014        2.06865435671253
H            2.60315850445445        1.33560532870335        2.12162002841832
H            0.54210089852133        2.65643277344473        0.13665180085778
H           -1.80503310628470        3.33939856935542        0.17276788121635
H           -4.16665002211857        2.80978772385266        0.12336029045813
H           -5.50617559056834       -1.24021937635070       -0.10128963997488
H           -3.21056361393765       -2.02206811486014       -0.10666828432766

          :  Hamiltonian                  GFN2-xTB          :
         :: gradient norm              0.000047419535 Eh/a0 ::
         :: HOMO-LUMO gap              0.525743891561 eV    ::
         :: SCC energy               -72.573867962756 Eh    ::
         :: -> dispersion             -0.062376508054 Eh    ::
         :: -> Gsolv                  -0.030699193859 Eh    ::
         :: repulsion energy           1.219617850591 Eh    ::

    * Orbital Energies and Occupations

         #    Occupation            Energy/Eh            Energy/eV
      -------------------------------------------------------------
         1        2.0000           -0.8052694             -21.9125
       ...           ...                  ...                  ...
        55        2.0000           -0.4387502             -11.9390
        56        2.0000           -0.4311104             -11.7311
        57        2.0000           -0.4243615             -11.5475
        58        2.0000           -0.4210277             -11.4567
        59        2.0000           -0.4173493             -11.3567
        60        2.0000           -0.4125117             -11.2250
        61        2.0000           -0.4110695             -11.1858
        62        2.0000           -0.4056954             -11.0395
        63        2.0000           -0.4028989             -10.9634
        64        2.0000           -0.3988072             -10.8521
        65        2.0000           -0.3746911             -10.1959
        66        1.0000           -0.3466051              -9.4316
        67        1.0000           -0.2605197              -7.0891 (HOMO)
        68        0.0000           -0.2411989              -6.5634 (LUMO)
        69        0.0000           -0.2393990              -6.5144
        70                         -0.2276038              -6.1934
        71                         -0.2270559              -6.1785
        72                         -0.2053539              -5.5880
        73                         -0.1849822              -5.0336
        74                         -0.1369173              -3.7257
        75                         -0.1104820              -3.0064
        76                         -0.0950574              -2.5866
        77                         -0.0560077              -1.5240
        78                         -0.0053462              -0.1455
       ...                                ...                  ...
       128                          0.6976648              18.9844
      -------------------------------------------------------------
                  HL-Gap            0.0193208 Eh            0.5257 eV

     #   Z          covCN         q      C6AA      α(0)
     1   6 C        3.757    -0.109    22.633     6.783
     2   6 C        3.905     0.026    20.083     6.370
     3   6 C        3.766    -0.103    22.503     6.761
     4   6 C        2.987    -0.003    28.094     8.694
     5   6 C        2.924    -0.036    28.892     8.815
     6   6 C        2.917    -0.038    28.943     8.822
     7   6 C        2.917    -0.031    28.771     8.796
     8   6 C        2.920    -0.052    29.283     8.874
     9   6 C        2.931     0.053    26.806     8.491
    10   7 N        2.756    -0.011    21.460     6.880
    11   6 C        2.936     0.064    26.565     8.453
    12   6 C        2.921    -0.034    28.857     8.809
    13   6 C        2.920    -0.025    28.632     8.775
    14   6 C        2.919    -0.027    28.685     8.783
    15   6 C        2.920    -0.025    28.633     8.775
    16   6 C        2.920    -0.035    28.863     8.810
    17   6 C        2.920     0.047    26.943     8.512
    18   6 C        2.912    -0.066    29.647     8.928
    19   6 C        2.919    -0.063    29.556     8.915
    20   6 C        2.981     0.008    27.829     8.653
    21   6 C        2.919    -0.084    30.108     8.998
    22   6 C        2.777     0.151    24.704     8.141
    23   9 F        0.785    -0.276    12.047     4.100
    24   6 C        2.907    -0.069    29.725     8.940
    25   6 C        2.922    -0.068    29.686     8.935
    26   6 C        2.968     0.003    27.956     8.673
    27   6 C        2.967    -0.023    28.579     8.769
    28   1 H        0.925     0.050     2.321     2.382
    29   1 H        0.925     0.043     2.410     2.427
    30   1 H        0.925     0.048     2.350     2.397
    31   1 H        0.925     0.054     2.276     2.359
    32   1 H        0.925     0.036     2.504     2.475
    33   1 H        0.925     0.050     2.325     2.385
    34   1 H        0.926     0.046     2.364     2.405
    35   1 H        0.926     0.037     2.491     2.468
    36   1 H        0.926     0.037     2.485     2.465
    37   1 H        0.926     0.037     2.489     2.467
    38   1 H        0.926     0.046     2.369     2.407
    39   1 H        0.926     0.049     2.338     2.391
    40   1 H        0.926     0.047     2.354     2.399
    41   1 H        0.926     0.049     2.337     2.391
    42   1 H        0.926     0.047     2.357     2.401
    43   1 H        0.926     0.024     2.675     2.557
    44   1 H        0.926     0.018     2.770     2.603
    45   1 H        0.926     0.026     2.640     2.541
    46   1 H        0.926     0.032     2.563     2.504
    47   1 H        0.926     0.050     2.316     2.380

molecular dipole:
                 x           y           z       tot (Debye)
 q only:        3.797      -0.935      -0.066
   full:        3.700      -0.840      -0.083       9.647

 projected vibrational frequencies (cm⁻¹)
eigval :       -0.00    -0.00     0.00     0.00     0.00     0.00
eigval :       19.54    30.17    39.98    60.02    64.45    92.20
eigval :      108.82   125.72   149.70   160.47   186.10   193.89
eigval :      217.49   228.41   239.38   264.84   281.83   303.87
eigval :      311.52   334.30   345.67   370.64   380.88   391.39
eigval :      396.86   414.46   449.13   464.52   484.13   500.14
eigval :      512.29   518.09   520.63   537.18   556.21   582.27
eigval :      590.28   598.71   607.38   633.01   669.85   685.88
eigval :      688.90   692.38   722.48   738.15   756.56   763.26
eigval :      767.83   775.60   794.64   825.65   839.57   847.34
eigval :      860.32   874.80   899.19   911.07   913.15   916.00
eigval :      917.65   927.81   931.20   947.39   959.59   970.03
eigval :      991.07  1021.20  1052.14  1072.86  1076.67  1098.55
eigval :     1108.35  1111.60  1112.33  1136.46  1145.42  1153.29
eigval :     1176.59  1180.57  1183.06  1197.16  1207.64  1218.66
eigval :     1226.32  1245.46  1268.48  1271.20  1297.32  1298.84
eigval :     1306.74  1330.98  1337.70  1345.74  1359.21  1372.01
eigval :     1395.22  1410.73  1420.58  1426.30  1428.62  1446.73
eigval :     1459.14  1465.81  1471.02  1478.30  1493.83  1496.61
eigval :     1498.85  1509.17  1522.86  1550.15  1576.86  1578.69
eigval :     1586.02  3018.86  3026.15  3035.29  3041.08  3062.86
eigval :     3065.12  3081.88  3082.70  3084.03  3084.30  3089.99
eigval :     3091.14  3094.77  3095.54  3098.57  3101.07  3102.50
eigval :     3105.05  3107.61  3162.89

   temp. (K)  partition function   enthalpy   heat capacity  entropy
                                   cal/mol     cal/K/mol   cal/K/mol   J/K/mol
 298.15  VIB  0.226E+09            12439.363     83.015     74.452
         ROT  0.128E+08              888.752      2.981     35.503
         INT  0.289E+16            13328.115     85.995    109.956
         TR   0.643E+28             1481.254      4.968     43.462
         TOT                       14809.3691    90.9636   153.4174   641.8984

       T/K    H(0)-H(T)+PV         H(T)/Eh          T*S/Eh         G(T)/Eh
   ------------------------------------------------------------------------
    298.15    0.236002E-01    0.389504E+00    0.728936E-01    0.316611E+00
   ------------------------------------------------------------------------

         :::::::::::::::::::::::::::::::::::::::::::::::::::::
         ::                  THERMODYNAMIC                  ::
         :::::::::::::::::::::::::::::::::::::::::::::::::::::
         :: total free energy         -71.037639254461 Eh   ::
         ::.................................................::
         :: total energy              -71.354250108720 Eh   ::
         :: zero point energy           0.365904183432 Eh   ::
         :: G(RRHO) w/o ZPVE           -0.049293329173 Eh   ::
         :: G(RRHO) contrib.            0.316610854259 Eh   ::
         :::::::::::::::::::::::::::::::::::::::::::::::::::::

           -------------------------------------------------
          | TOTAL ENERGY              -71.354250108720 Eh   |
          | TOTAL ENTHALPY            -70.964745693361 Eh   |
          | TOTAL FREE ENERGY         -71.037639254461 Eh   |
          | GRADIENT NORM               0.000047326351 Eh/α |
          | HOMO-LUMO GAP               0.525746536953 eV   |
           -------------------------------------------------

 * finished run on 2025/07/18 at 12:45:55.073
