   * xtb version 6.7.1 (edcfbbe) compiled by 'albert@albert-system' on 2024-07-22

   ID    Z sym.   atoms
    1    6 C      1-9, 11-22, 24-27
    2    7 N      10
    3    9 F      23
    4    1 H      28-47

          program call               : xtb data2507/toluene/BACF/BACF.xyz --gfn 2 --gbsa toluene --ohess vtight --parallel 40 --molden --ceasefiles --namespace data2507/toluene/BACF/BACF_toluene_S0_preOpt
      * Solvation model:               GBSA
        Solvent                        toluene
        Solvent mass                       9.2140E+01 g/mol
          :  Hamiltonian                  GFN2-xTB          :
 * total energy  :   -71.4228491 Eh     change       -0.1285812E-08 Eh
 * total energy  :   -71.4360194 Eh     change       -0.1317034E-01 Eh
 * total energy  :   -71.4403821 Eh     change       -0.4362659E-02 Eh
 * total energy  :   -71.4408938 Eh     change       -0.5117626E-03 Eh
 * total energy  :   -71.4410383 Eh     change       -0.1444911E-03 Eh
 * total energy  :   -71.4410898 Eh     change       -0.5150137E-04 Eh
 * total energy  :   -71.4411693 Eh     change       -0.7948260E-04 Eh
 * total energy  :   -71.4412354 Eh     change       -0.6606706E-04 Eh
 * total energy  :   -71.4414020 Eh     change       -0.1666288E-03 Eh
 * total energy  :   -71.4414714 Eh     change       -0.6943707E-04 Eh
 * total energy  :   -71.4416447 Eh     change       -0.1234891E-04 Eh
 * total energy  :   -71.4416643 Eh     change       -0.1960342E-04 Eh
 * total energy  :   -71.4416368 Eh     change        0.2749581E-04 Eh
 * total energy  :   -71.4416726 Eh     change       -0.3579106E-04 Eh
 * total energy  :   -71.4416743 Eh     change       -0.1707223E-05 Eh
 * total energy  :   -71.4416733 Eh     change        0.9483509E-06 Eh
 * total energy  :   -71.4416746 Eh     change       -0.1226254E-05 Eh
 * total energy  :   -71.4416747 Eh     change       -0.1412567E-06 Eh
 * total energy  :   -71.4416747 Eh     change       -0.2720367E-07 Eh
   *** GEOMETRY OPTIMIZATION CONVERGED AFTER 24 ITERATIONS ***

 final structure:
================
47
 xtb: 6.7.1 (edcfbbe)
C           -1.77601665458414       -2.05907080980909        1.29771159828143
C           -1.12421039976343       -1.51689597940992       -0.00001780950724
C           -1.77527046371973       -2.05867825481087       -1.29829857416416
C            0.30264662076265       -2.03983960842465        0.00013934073924
C            0.51383805476670       -3.41205923034137        0.00031102441491
C            1.78673103939272       -3.95328601966669        0.00035907428230
C            2.88286802919793       -3.10851630793808        0.00027268802005
C            2.69812193597165       -1.74111051217552        0.00014360648480
C            1.41196625120009       -1.19440332091796        0.00008419381980
N            1.23624646418581        0.17972752525939       -0.00005192873032
C            2.39667922998496        1.00962655123261       -0.00008430594247
C            2.96475749866527        1.40774997166758       -1.20401629690022
C            4.09558218297309        2.20593726665917       -1.20029538061501
C            4.66136250378136        2.60500170432353       -0.00020083615261
C            4.09567195679180        2.20599074529509        1.19995559736225
C            2.96484740987359        1.40780131705197        1.20379370379222
C           -0.01881743522753        0.75868594710218        0.00004856094595
C           -0.08128706311528        2.17355912735082        0.00012186207516
C           -1.27248633136869        2.82532816542373        0.00016759392405
C           -2.48131458771387        2.10312328745477        0.00012773778038
C           -3.70994713755019        2.79281243223980        0.00012135382172
C           -4.87541360249513        2.08842753879540        0.00006834057089
F           -6.06950485951287        2.74848841747086        0.00001413674372
C           -4.88313918105547        0.69136987892378        0.00010067429103
C           -3.69618950251704        0.01279800549609        0.00013706643421
C           -2.44188905382026        0.67837021736174        0.00011716588145
C           -1.18499919036164        0.00459569357179        0.00007044394895
H           -2.21084337636860       -3.04256554267600        1.13906836849932
H           -2.54423156129293       -1.39647638202340        1.68156475087964
H           -1.01297850570852       -2.15051081577372        2.06985565348610
H           -2.20746192061347       -3.04352176504385       -1.14094066033598
H           -2.54536535596149       -1.39754254469224       -1.68083732328643
H           -1.01234443027336       -2.14704784465695       -2.07090164231950
H           -0.33611835029309       -4.07638396480607        0.00044199339970
H            1.92041114357717       -5.02473469260242        0.00046396133137
H            3.88517694512480       -3.51157523939274        0.00029306190312
H            3.55702638042317       -1.08770926123596        0.00009872076741
H            2.51539480452839        1.09037750854015       -2.13369356022347
H            4.53543923005812        2.51595413976007       -2.13661488307549
H            5.54394164581019        3.22716593852305       -0.00024642575043
H            4.53559718370572        2.51604922634802        2.13623186408138
H            2.51555540887395        1.09047162835346        2.13352240497151
H            0.83801792347649        2.73760601810952        0.00015287260121
H           -1.30589434778251        3.90470466347335        0.00020063393445
H           -3.72011900893908        3.87213797576955        0.00013375563625
H           -5.82758533435079        0.16920843710051        0.00009908757067
H           -3.74445318873668       -1.06114123226066        0.00020673432671

          :  Hamiltonian                  GFN2-xTB          :
         :: gradient norm              0.000035036995 Eh/a0 ::
         :: HOMO-LUMO gap              2.250043869272 eV    ::
         :: SCC energy               -72.678323884199 Eh    ::
         :: -> dispersion             -0.062507994344 Eh    ::
         :: -> Gsolv                  -0.027385958187 Eh    ::
         :: repulsion energy           1.236649141922 Eh    ::

    * Orbital Energies and Occupations

         #    Occupation            Energy/Eh            Energy/eV
      -------------------------------------------------------------
         1        2.0000           -0.8130302             -22.1237
       ...           ...                  ...                  ...
        54        2.0000           -0.4404258             -11.9846
        55        2.0000           -0.4389084             -11.9433
        56        2.0000           -0.4304218             -11.7124
        57        2.0000           -0.4260697             -11.5939
        58        2.0000           -0.4196655             -11.4197
        59        2.0000           -0.4157465             -11.3130
        60        2.0000           -0.4131551             -11.2425
        61        2.0000           -0.4077216             -11.0947
        62        2.0000           -0.4033484             -10.9757
        63        2.0000           -0.4030694             -10.9681
        64        2.0000           -0.3941188             -10.7245
        65        2.0000           -0.3864402             -10.5156
        66        2.0000           -0.3452133              -9.3937 (HOMO)
        67                         -0.2625257              -7.1437 (LUMO)
        68                         -0.2355091              -6.4085
        69                         -0.2341107              -6.3705
        70                         -0.2318031              -6.3077
        71                         -0.2174639              -5.9175
        72                         -0.2041559              -5.5554
        73                         -0.1897018              -5.1620
        74                         -0.1419568              -3.8628
        75                         -0.1053423              -2.8665
        76                         -0.0827799              -2.2526
        77                         -0.0616895              -1.6787
       ...                                ...                  ...
       128                          0.6915694              18.8186
      -------------------------------------------------------------
                  HL-Gap            0.0826876 Eh            2.2500 eV

     #   Z          covCN         q      C6AA      α(0)
     1   6 C        3.760    -0.108    22.605     6.778
     2   6 C        3.905     0.021    20.160     6.382
     3   6 C        3.760    -0.108    22.605     6.778
     4   6 C        2.987    -0.013    28.341     8.733
     5   6 C        2.928    -0.039    28.963     8.826
     6   6 C        2.917    -0.046    29.143     8.853
     7   6 C        2.919    -0.035    28.883     8.813
     8   6 C        2.923    -0.059    29.470     8.902
     9   6 C        2.930     0.057    26.717     8.477
    10   7 N        2.756    -0.070    22.587     7.059
    11   6 C        2.928     0.068    26.480     8.439
    12   6 C        2.921    -0.038    28.936     8.821
    13   6 C        2.920    -0.027    28.687     8.783
    14   6 C        2.919    -0.030    28.743     8.792
    15   6 C        2.920    -0.027    28.687     8.783
    16   6 C        2.921    -0.038    28.936     8.821
    17   6 C        2.921     0.061    26.640     8.464
    18   6 C        2.920    -0.052    29.293     8.875
    19   6 C        2.918    -0.039    28.960     8.825
    20   6 C        2.994     0.003    27.949     8.672
    21   6 C        2.919    -0.058    29.431     8.896
    22   6 C        2.781     0.156    24.611     8.126
    23   9 F        0.786    -0.268    11.964     4.086
    24   6 C        2.912    -0.053    29.325     8.880
    25   6 C        2.922    -0.043    29.075     8.843
    26   6 C        2.978     0.004    27.929     8.669
    27   6 C        2.969    -0.024    28.590     8.771
    28   1 H        0.925     0.041     2.436     2.441
    29   1 H        0.925     0.045     2.382     2.414
    30   1 H        0.925     0.033     2.538     2.492
    31   1 H        0.925     0.041     2.436     2.441
    32   1 H        0.925     0.045     2.382     2.414
    33   1 H        0.925     0.033     2.539     2.492
    34   1 H        0.926     0.036     2.496     2.471
    35   1 H        0.926     0.025     2.651     2.546
    36   1 H        0.926     0.026     2.644     2.543
    37   1 H        0.926     0.025     2.652     2.547
    38   1 H        0.926     0.042     2.423     2.434
    39   1 H        0.926     0.043     2.412     2.429
    40   1 H        0.926     0.042     2.419     2.432
    41   1 H        0.926     0.043     2.412     2.429
    42   1 H        0.926     0.042     2.423     2.434
    43   1 H        0.926     0.037     2.493     2.469
    44   1 H        0.926     0.038     2.479     2.462
    45   1 H        0.926     0.049     2.338     2.391
    46   1 H        0.926     0.049     2.336     2.390
    47   1 H        0.926     0.069     2.102     2.267

molecular dipole:
                 x           y           z       tot (Debye)
 q only:        1.832      -0.432       0.000
   full:        1.817      -0.348      -0.000       4.701

 projected vibrational frequencies (cm⁻¹)
eigval :       -0.00    -0.00    -0.00    -0.00     0.00     0.00
eigval :      -78.86    22.52    36.31    43.24    64.52    68.54
eigval :      100.77   107.25   151.85   159.76   169.56   200.93
eigval :      220.92   234.76   243.00   266.17   286.26   313.90
eigval :      335.15   347.00   363.71   378.30   389.16   393.92
eigval :      403.83   426.52   453.67   469.83   481.52   503.06
eigval :      518.31   520.96   537.54   566.67   580.38   589.16
eigval :      591.54   612.64   631.75   637.31   674.78   694.89
eigval :      695.34   720.79   734.53   762.15   777.23   797.58
eigval :      810.99   831.77   837.95   863.22   871.23   878.00
eigval :      902.30   910.52   911.65   914.44   920.64   922.47
eigval :      931.93   935.14   936.27   961.72   967.19   972.05
eigval :      994.63  1031.31  1064.53  1077.57  1083.36  1108.85
eigval :     1112.59  1132.70  1143.24  1146.96  1158.92  1177.09
eigval :     1177.80  1184.02  1185.25  1201.40  1228.39  1231.22
eigval :     1241.08  1255.66  1269.26  1273.04  1305.93  1306.99
eigval :     1314.37  1331.44  1334.57  1377.76  1393.64  1404.39
eigval :     1406.77  1428.11  1430.60  1437.43  1462.39  1471.25
eigval :     1487.11  1489.57  1496.13  1502.67  1509.44  1518.23
eigval :     1553.01  1581.13  1586.12  1591.69  1592.76  1600.39
eigval :     1613.68  3014.24  3015.98  3031.50  3035.12  3068.24
eigval :     3069.17  3072.15  3076.64  3078.33  3079.31  3082.04
eigval :     3085.33  3089.26  3094.45  3095.86  3096.72  3098.25
eigval :     3100.82  3105.91  3147.76

   temp. (K)  partition function   enthalpy   heat capacity  entropy
                                   cal/mol     cal/K/mol   cal/K/mol   J/K/mol
 298.15  VIB  0.472E+08            11727.178     79.670     69.770
         ROT  0.128E+08              888.752      2.981     35.499
         INT  0.603E+15            12615.930     82.650    105.269
         TR   0.643E+28             1481.254      4.968     43.462
         TOT                       14097.1842    87.6186   148.7307   622.2892

       T/K    H(0)-H(T)+PV         H(T)/Eh          T*S/Eh         G(T)/Eh
   ------------------------------------------------------------------------
    298.15    0.224653E-01    0.391762E+00    0.706668E-01    0.321095E+00
   ------------------------------------------------------------------------

         :::::::::::::::::::::::::::::::::::::::::::::::::::::
         ::                  THERMODYNAMIC                  ::
         :::::::::::::::::::::::::::::::::::::::::::::::::::::
         :: total free energy         -71.120579652414 Eh   ::
         ::.................................................::
         :: total energy              -71.441674739174 Eh   ::
         :: zero point energy           0.369296546094 Eh   ::
         :: G(RRHO) w/o ZPVE           -0.048201459335 Eh   ::
         :: G(RRHO) contrib.            0.321095086759 Eh   ::
         :::::::::::::::::::::::::::::::::::::::::::::::::::::

           -------------------------------------------------
          | TOTAL ENERGY              -71.441674739174 Eh   |
          | TOTAL ENTHALPY            -71.049912900034 Eh   |
          | TOTAL FREE ENERGY         -71.120579652414 Eh   |
          | GRADIENT NORM               0.000035034361 Eh/α |
          | HOMO-LUMO GAP               2.250044119841 eV   |
           -------------------------------------------------

 * finished run on 2025/07/18 at 12:42:55.010
