   * xtb version 6.7.1 (edcfbbe) compiled by 'albert@albert-system' on 2024-07-22

   ID    Z sym.   atoms
    1    8 O      1
    2   15 P      2
    3    6 C      3-30, 32-35, 37-41, 43-53
    4    7 N      31, 36, 42
    5    1 H      54-85

          program call               : xtb data2507/gas/p-PO15NCzDPA/p-PO15NCzDPA_gas_S0_crest.xyz --gfn 2 --ohess vtight --parallel 40 --molden --ceasefiles --namespace data2507/gas/p-PO15NCzDPA/p-PO15NCzDPA_gas_S0_finalOpt
          :  Hamiltonian                  GFN2-xTB          :
 * total energy  :  -134.5327150 Eh     change       -0.1700357E-08 Eh
 * total energy  :  -134.5327156 Eh     change       -0.6894103E-06 Eh
 * total energy  :  -134.5327161 Eh     change       -0.4970589E-06 Eh
 * total energy  :  -134.5327169 Eh     change       -0.7755079E-06 Eh
 * total energy  :  -134.5327173 Eh     change       -0.4120477E-06 Eh
 * total energy  :  -134.5327177 Eh     change       -0.3700681E-06 Eh
 * total energy  :  -134.5327180 Eh     change       -0.2731492E-06 Eh
 * total energy  :  -134.5327183 Eh     change       -0.3036213E-06 Eh
 * total energy  :  -134.5327186 Eh     change       -0.3325775E-06 Eh
 * total energy  :  -134.5327189 Eh     change       -0.3144687E-06 Eh
 * total energy  :  -134.5327192 Eh     change       -0.2975738E-06 Eh
 * total energy  :  -134.5327195 Eh     change       -0.2838918E-06 Eh
 * total energy  :  -134.5327197 Eh     change       -0.2434108E-06 Eh
 * total energy  :  -134.5327199 Eh     change       -0.1879566E-06 Eh
 * total energy  :  -134.5327201 Eh     change       -0.1307424E-06 Eh
 * total energy  :  -134.5327201 Eh     change       -0.1729441E-07 Eh
   *** GEOMETRY OPTIMIZATION CONVERGED AFTER 16 ITERATIONS ***

 final structure:
================
85
 xtb: 6.7.1 (edcfbbe)
O            7.62229891581887       -1.00251872737527       -1.98033566194046
P            7.17625875145265       -0.38300904899780       -0.72726071785160
C            7.81192068913387       -1.22206156747301        0.76102198029437
C            7.98603211875250       -0.58580066583373        1.98266996563781
C            8.46245078854080       -1.30232384815218        3.06607790276145
C            8.76532506432777       -2.64809541887033        2.93258681057368
C            8.59893553888369       -3.28140084807131        1.71155555340861
C            8.12303332727400       -2.56788845482939        0.62652890339945
C            7.69572154950673        1.35614615708884       -0.55451341230534
C            6.99465137513205        2.29461176700177        0.19046053137546
C            7.47046820438471        3.59051730346434        0.28203081861187
C            8.64109146948527        3.95014217707958       -0.36661827875165
C            9.33704816722429        3.01560888380394       -1.11628828360174
C            8.86347984125129        1.71960194943218       -1.21045358506197
C            5.36489970520977       -0.36000216057031       -0.53715019195006
C            4.62132983764786       -0.32759419483160       -1.70917238500736
C            3.24184136307352       -0.28444080545859       -1.65730804879376
C            2.58711754914970       -0.26994025340710       -0.42833559544859
C            1.11153730295308       -0.21774078775341       -0.36339975280988
C            0.35634262426303       -1.32954350486051       -0.76134259534210
C            0.97063216089230       -2.52901601230988       -1.20883179628931
C            0.22650590130689       -3.59293731239732       -1.61575009079598
C           -1.18079842320621       -3.52144874723648       -1.60560570368104
C           -1.80814318227962       -2.39839209087851       -1.16226002055617
C           -1.07105554034482       -1.27423758977365       -0.70497975155102
C           -1.70612144989433       -0.12055124166572       -0.22300943017163
C           -3.18037368891871       -0.07296749939424       -0.14174163084017
C           -3.86317319582369       -0.87653505114748        0.76647434770698
C           -5.24088380479011       -0.83039121769075        0.85336095336728
C           -5.96217808541469        0.01282462064276        0.01402164248862
N           -7.36338061896659        0.06139335866915        0.09188478191771
C           -8.21923476217059       -1.00962011872001        0.24068221228900
C           -7.98883001262384       -2.37732233699704        0.23458409015276
C           -9.09881342591338       -3.19204905211379        0.38107905491314
C          -10.36793190065972       -2.62843492600135        0.51372618422996
N          -10.60904809074059       -1.33230388978413        0.48607987663332
C           -9.55740888464825       -0.53934004379793        0.34626984150132
C           -9.49237432084462        0.88870699469496        0.24877788408542
C          -10.40827359423194        1.92928807158791        0.28226122013477
C           -9.90788714510430        3.21396331551260        0.14944680964671
C           -8.53727205976495        3.40852587540601       -0.00531376480228
N           -7.64073768572646        2.43658014065378       -0.04080947585100
C           -8.12032045748135        1.20984933314355        0.08188840780676
C           -5.28871627215869        0.82504461569912       -0.89208069016706
C           -3.91056018420780        0.78270153503128       -0.96212674583724
C           -0.94955631942339        0.98737272038174        0.18559512360612
C           -1.55891546485277        2.15925624940864        0.70687124852155
C           -0.81439132230355        3.23637060177383        1.07717709085926
C            0.58829167735572        3.21118563880123        0.94520494672494
C            1.21307919902021        2.09826115869560        0.47378627454609
C            0.47671101304143        0.94351445273436        0.09896219081001
C            3.33941099918304       -0.31004914842485        0.74323315301198
C            4.71940200686770       -0.35715171800060        0.69224408589546
H            7.76253675183144        0.46739772431933        2.08102234221233
H            8.60139209684405       -0.80933103692216        4.01750449829135
H            9.13800364197021       -3.20195057880003        3.78181443209816
H            8.84206774284964       -4.32863359538366        1.60706073826699
H            7.99560267593540       -3.03408755974989       -0.34006701032996
H            6.07573140498612        2.01443760585987        0.68655799415817
H            6.92600981936896        4.32377583958465        0.85955061813825
H            9.00777948846371        4.96339646467697       -0.29135648250017
H           10.24574994879805        3.29891152606276       -1.62683727261596
H            9.38005890218765        0.97427393317171       -1.79827756415759
H            5.14436369579843       -0.34717255766436       -2.65466925434871
H            2.66046646192173       -0.25577904646273       -2.56775393466786
H            2.04905982571290       -2.58374466832471       -1.22024184367595
H            0.70832709262508       -4.49814346090638       -1.95458040773619
H           -1.75590688592027       -4.36798010517952       -1.95110681227999
H           -2.88663098617952       -2.34400827391180       -1.15657672928921
H           -3.30422179237097       -1.52904785338330        1.42158119170054
H           -5.75686884651319       -1.43074761168294        1.58755307536473
H           -7.00023769953463       -2.79282903513126        0.10598362643555
H           -8.98682384565945       -4.26516533046411        0.38573112912026
H          -11.23802767699159       -3.25924009037303        0.63526163300104
H          -11.46201574538916        1.73350119294601        0.40760731754490
H          -10.56839577256651        4.06652403992066        0.16576503648495
H           -8.13007852695100        4.40548464413948       -0.10844000056795
H           -5.85118861840742        1.49097091680327       -1.52594392898703
H           -3.38818367803608        1.41081835510236       -1.66875053922929
H           -2.63364560862622        2.18175179150883        0.80750091259612
H           -1.29321373758393        4.12058467879040        1.47124811467404
H            1.16213640297091        4.08247109726541        1.22512991387602
H            2.28817257118027        2.07914862684341        0.37242361137111
H            2.83091568284823       -0.31114532454559        1.69713350064358
H            5.29493765030085       -0.40276079669882        1.60624881130377

          :  Hamiltonian                  GFN2-xTB          :
         :: gradient norm              0.000094771528 Eh/a0 ::
         :: HOMO-LUMO gap              2.110716861887 eV    ::
         :: SCC energy              -137.001424671617 Eh    ::
         :: -> dispersion             -0.123951149284 Eh    ::
         :: repulsion energy           2.468704587224 Eh    ::

    * Orbital Energies and Occupations

         #    Occupation            Energy/Eh            Energy/eV
      -------------------------------------------------------------
         1        2.0000           -0.6913405             -18.8123
       ...           ...                  ...                  ...
       113        2.0000           -0.4154125             -11.3039
       114        2.0000           -0.4127659             -11.2319
       115        2.0000           -0.4116787             -11.2023
       116        2.0000           -0.4081694             -11.1069
       117        2.0000           -0.4069092             -11.0726
       118        2.0000           -0.4033212             -10.9749
       119        2.0000           -0.3986115             -10.8468
       120        2.0000           -0.3985182             -10.8442
       121        2.0000           -0.3972484             -10.8097
       122        2.0000           -0.3799449             -10.3388
       123        2.0000           -0.3750285             -10.2050
       124        2.0000           -0.3699277             -10.0662
       125        2.0000           -0.3625640              -9.8659 (HOMO)
       126                         -0.2849966              -7.7552 (LUMO)
       127                         -0.2705802              -7.3629
       128                         -0.2508023              -6.8247
       129                         -0.2500288              -6.8036
       130                         -0.2469763              -6.7206
       131                         -0.2415603              -6.5732
       132                         -0.2372403              -6.4556
       133                         -0.2360351              -6.4228
       134                         -0.2346390              -6.3849
       135                         -0.2341155              -6.3706
       136                         -0.2338143              -6.3624
       ...                                ...                  ...
       249                          1.1899461              32.3801
      -------------------------------------------------------------
                  HL-Gap            0.0775674 Eh            2.1107 eV

     #   Z          covCN         q      C6AA      α(0)
     1   8 O        0.808    -0.355    20.823     6.117
     2  15 P        4.080     0.062   157.513    22.545
     3   6 C        2.921     0.013    27.715     8.633
     4   6 C        2.970    -0.027    28.660     8.781
     5   6 C        2.920    -0.028    28.703     8.786
     6   6 C        2.920    -0.025    28.630     8.775
     7   6 C        2.919    -0.027    28.666     8.780
     8   6 C        3.031    -0.019    28.459     8.750
     9   6 C        2.921     0.013    27.717     8.633
    10   6 C        2.970    -0.026    28.656     8.781
    11   6 C        2.920    -0.028    28.703     8.786
    12   6 C        2.920    -0.025    28.631     8.775
    13   6 C        2.919    -0.026    28.663     8.779
    14   6 C        3.032    -0.019    28.455     8.750
    15   6 C        2.920     0.010    27.792     8.645
    16   6 C        3.031    -0.021    28.490     8.755
    17   6 C        2.923    -0.031    28.766     8.795
    18   6 C        2.978     0.021    27.543     8.609
    19   6 C        2.978    -0.007    28.186     8.709
    20   6 C        2.984     0.007    27.857     8.658
    21   6 C        2.917    -0.034    28.847     8.808
    22   6 C        2.914    -0.029    28.725     8.789
    23   6 C        2.914    -0.029    28.735     8.790
    24   6 C        2.917    -0.035    28.864     8.810
    25   6 C        2.984     0.007    27.867     8.659
    26   6 C        2.977    -0.006    28.159     8.704
    27   6 C        2.976     0.014    27.699     8.633
    28   6 C        2.925    -0.032    28.795     8.800
    29   6 C        2.920    -0.044    29.100     8.846
    30   6 C        2.914     0.066    26.528     8.446
    31   7 N        2.797    -0.046    22.123     6.986
    32   6 C        3.083     0.037    27.072     8.530
    33   6 C        2.915    -0.033    28.812     8.802
    34   6 C        2.921    -0.044    29.089     8.845
    35   6 C        2.924     0.051    26.852     8.498
    36   7 N        1.832    -0.227    26.815     7.674
    37   6 C        3.073     0.069    26.384     8.422
    38   6 C        3.063    -0.033    28.750     8.793
    39   6 C        2.918    -0.010    28.274     8.720
    40   6 C        2.918    -0.051    29.261     8.871
    41   6 C        2.932     0.060    26.658     8.468
    42   7 N        1.832    -0.254    27.460     7.765
    43   6 C        3.101     0.136    24.918     8.180
    44   6 C        2.921    -0.038    28.956     8.824
    45   6 C        2.925    -0.029    28.735     8.791
    46   6 C        2.984     0.007    27.861     8.658
    47   6 C        2.917    -0.034    28.859     8.809
    48   6 C        2.915    -0.029    28.734     8.790
    49   6 C        2.914    -0.029    28.730     8.789
    50   6 C        2.917    -0.034    28.855     8.809
    51   6 C        2.984     0.007    27.861     8.658
    52   6 C        2.924    -0.032    28.797     8.800
    53   6 C        2.968    -0.028    28.695     8.787
    54   1 H        0.926     0.037     2.483     2.464
    55   1 H        0.926     0.035     2.513     2.479
    56   1 H        0.926     0.037     2.486     2.466
    57   1 H        0.926     0.039     2.458     2.452
    58   1 H        0.926     0.061     2.191     2.315
    59   1 H        0.925     0.036     2.499     2.472
    60   1 H        0.926     0.035     2.515     2.480
    61   1 H        0.926     0.037     2.485     2.465
    62   1 H        0.926     0.039     2.457     2.451
    63   1 H        0.926     0.060     2.196     2.317
    64   1 H        0.926     0.060     2.195     2.317
    65   1 H        0.926     0.039     2.462     2.454
    66   1 H        0.926     0.032     2.555     2.500
    67   1 H        0.926     0.031     2.566     2.505
    68   1 H        0.926     0.030     2.587     2.515
    69   1 H        0.926     0.030     2.583     2.513
    70   1 H        0.926     0.037     2.487     2.466
    71   1 H        0.926     0.039     2.462     2.454
    72   1 H        0.926     0.035     2.521     2.483
    73   1 H        0.926     0.036     2.500     2.473
    74   1 H        0.925     0.038     2.472     2.459
    75   1 H        0.926     0.049     2.327     2.385
    76   1 H        0.926     0.037     2.488     2.466
    77   1 H        0.925     0.040     2.452     2.448
    78   1 H        0.926     0.056     2.245     2.343
    79   1 H        0.926     0.041     2.442     2.443
    80   1 H        0.926     0.035     2.516     2.480
    81   1 H        0.926     0.031     2.569     2.506
    82   1 H        0.926     0.030     2.593     2.518
    83   1 H        0.926     0.029     2.604     2.523
    84   1 H        0.926     0.035     2.517     2.481
    85   1 H        0.926     0.038     2.482     2.464

molecular dipole:
                 x           y           z       tot (Debye)
 q only:        0.132       0.411       1.036
   full:        0.083       0.333       1.319       3.463

 projected vibrational frequencies (cm⁻¹)
eigval :       -0.00    -0.00     0.00     0.00     0.00     0.00
eigval :        5.89     8.71    10.10    14.71    18.97    23.42
eigval :       28.75    37.32    40.90    45.37    49.06    58.22
eigval :       64.81    67.81    73.21    81.62    99.96   106.94
eigval :      114.36   138.73   140.57   147.03   152.41   158.74
eigval :      174.22   191.74   202.93   210.30   220.02   223.79
eigval :      228.87   252.61   264.68   282.19   283.02   285.68
eigval :      319.28   335.57   349.39   362.74   363.12   365.42
eigval :      377.71   378.98   383.38   390.79   399.14   406.27
eigval :      411.89   420.17   427.10   440.23   442.87   443.60
eigval :      447.02   454.96   458.83   478.40   503.68   518.79
eigval :      522.06   533.55   542.89   553.49   579.44   584.26
eigval :      585.80   586.21   587.33   593.22   601.80   609.16
eigval :      612.12   625.67   642.38   643.31   658.20   658.79
eigval :      675.11   683.13   692.32   693.40   699.09   706.55
eigval :      715.95   725.07   733.73   740.15   741.25   743.92
eigval :      755.77   774.77   776.24   780.62   792.00   801.71
eigval :      806.01   817.43   870.75   874.61   875.89   879.10
eigval :      879.20   882.15   898.13   900.48   902.90   904.03
eigval :      905.75   907.04   912.13   916.51   916.94   917.60
eigval :      919.39   920.34   922.02   924.60   927.24   927.42
eigval :      928.92   929.14   931.07   933.04   933.10   934.07
eigval :      935.02   956.84   972.51   975.51  1012.31  1026.44
eigval :     1032.70  1078.24  1078.68  1082.09  1082.14  1082.85
eigval :     1090.99  1113.18  1115.32  1122.11  1124.68  1126.93
eigval :     1127.60  1131.09  1134.86  1135.47  1145.63  1146.36
eigval :     1170.72  1180.68  1180.79  1181.63  1185.12  1189.36
eigval :     1191.33  1192.86  1194.57  1212.14  1214.71  1220.83
eigval :     1229.27  1237.70  1259.03  1259.48  1262.71  1264.54
eigval :     1268.52  1269.60  1274.17  1284.01  1290.65  1311.50
eigval :     1314.49  1321.70  1321.83  1322.83  1331.75  1337.33
eigval :     1340.03  1349.98  1372.25  1378.49  1383.77  1387.39
eigval :     1402.93  1414.05  1420.07  1424.39  1425.30  1429.21
eigval :     1443.74  1453.78  1454.57  1466.57  1468.26  1481.39
eigval :     1487.41  1499.57  1527.15  1530.26  1542.26  1553.96
eigval :     1559.40  1561.31  1568.23  1583.77  1584.06  1584.40
eigval :     1586.70  1587.04  1588.10  1596.10  1599.67  1608.49
eigval :     1622.73  3062.73  3065.06  3065.96  3067.11  3067.24
eigval :     3074.64  3074.70  3074.75  3074.97  3075.32  3075.69
eigval :     3077.49  3077.96  3079.77  3080.11  3081.72  3081.87
eigval :     3084.24  3084.37  3084.60  3086.00  3090.48  3090.87
eigval :     3090.89  3091.82  3092.37  3093.59  3095.56  3096.70
eigval :     3096.97  3102.28  3117.21

   temp. (K)  partition function   enthalpy   heat capacity  entropy
                                   cal/mol     cal/K/mol   cal/K/mol   J/K/mol
 298.15  VIB  0.202E+22            25196.954    155.484    159.595
         ROT  0.148E+09              888.752      2.981     40.362
         INT  0.298E+30            26085.706    158.464    199.957
         TR   0.178E+29             1481.254      4.968     45.488
         TOT                       27566.9602   163.4326   245.4451  1026.9425

       T/K    H(0)-H(T)+PV         H(T)/Eh          T*S/Eh         G(T)/Eh
   ------------------------------------------------------------------------
    298.15    0.439307E-01    0.687881E+00    0.116619E+00    0.571262E+00
   ------------------------------------------------------------------------

         :::::::::::::::::::::::::::::::::::::::::::::::::::::
         ::                  THERMODYNAMIC                  ::
         :::::::::::::::::::::::::::::::::::::::::::::::::::::
         :: total free energy        -133.961457658450 Eh   ::
         ::.................................................::
         :: total energy             -134.532720084381 Eh   ::
         :: zero point energy           0.643950589478 Eh   ::
         :: G(RRHO) w/o ZPVE           -0.072688163547 Eh   ::
         :: G(RRHO) contrib.            0.571262425931 Eh   ::
         :::::::::::::::::::::::::::::::::::::::::::::::::::::

           -------------------------------------------------
          | TOTAL ENERGY             -134.532720084381 Eh   |
          | TOTAL ENTHALPY           -133.844838747553 Eh   |
          | TOTAL FREE ENERGY        -133.961457658450 Eh   |
          | GRADIENT NORM               0.000094765687 Eh/α |
          | HOMO-LUMO GAP               2.110716878435 eV   |
           -------------------------------------------------

 * finished run on 2025/08/25 at 07:32:52.128
