   * xtb version 6.7.1 (edcfbbe) compiled by 'albert@albert-system' on 2024-07-22

   ID    Z sym.   atoms
    1    8 O      1
    2   15 P      2
    3    6 C      3-30, 32-35, 37-41, 43-53
    4    7 N      31, 36, 42
    5    1 H      54-85

          program call               : xtb data2507/gas/p-PO15NCzDPA/p-PO15NCzDPA.xyz --gfn 2 --ohess vtight --parallel 40 --molden --ceasefiles --namespace data2507/gas/p-PO15NCzDPA/p-PO15NCzDPA_gas_S0_preOpt
          :  Hamiltonian                  GFN2-xTB          :
 * total energy  :  -134.5040112 Eh     change       -0.1872621E-08 Eh
 * total energy  :  -134.5242242 Eh     change       -0.2021300E-01 Eh
 * total energy  :  -134.5298213 Eh     change       -0.5597103E-02 Eh
 * total energy  :  -134.5305108 Eh     change       -0.6895078E-03 Eh
 * total energy  :  -134.5310260 Eh     change       -0.5152491E-03 Eh
 * total energy  :  -134.5312411 Eh     change       -0.2150383E-03 Eh
 * total energy  :  -134.5314188 Eh     change       -0.1777573E-03 Eh
 * total energy  :  -134.5315399 Eh     change       -0.1211103E-03 Eh
 * total energy  :  -134.5316364 Eh     change       -0.9642124E-04 Eh
 * total energy  :  -134.5317435 Eh     change       -0.1071343E-03 Eh
 * total energy  :  -134.5325122 Eh     change       -0.7288149E-06 Eh
 * total energy  :  -134.5325129 Eh     change       -0.7523743E-06 Eh
 * total energy  :  -134.5325137 Eh     change       -0.7810423E-06 Eh
 * total energy  :  -134.5325146 Eh     change       -0.8541875E-06 Eh
 * total energy  :  -134.5325156 Eh     change       -0.9819895E-06 Eh
 * total energy  :  -134.5325167 Eh     change       -0.1170669E-05 Eh
 * total energy  :  -134.5325181 Eh     change       -0.1393576E-05 Eh
 * total energy  :  -134.5325197 Eh     change       -0.1560261E-05 Eh
 * total energy  :  -134.5325197 Eh     change       -0.6563624E-08 Eh
   *** GEOMETRY OPTIMIZATION CONVERGED AFTER 122 ITERATIONS ***

 final structure:
================
85
 xtb: 6.7.1 (edcfbbe)
O            7.42971617656089       -1.49191733458561       -1.99342417051843
P            7.02470323866191       -0.64913713421546       -0.86271142793671
C            7.68517720187524       -1.21983143787070        0.73780989599854
C            7.92268926680826       -0.37538506458392        1.81370621040495
C            8.41006950290521       -0.89718755459775        2.99882612446237
C            8.66030235854128       -2.25558857598841        3.11123702645696
C            8.43032817526178       -3.09743395928696        2.03504371173731
C            7.94347520661496       -2.57891844911708        0.84899478554155
C            7.57763772840170        1.08202873906571       -1.01670383921972
C            8.75221772595111        1.28859118419820       -1.72691092555758
C            9.25653918078915        2.56752572254816       -1.87706292078456
C            8.58468351134503        3.64260876225146       -1.31790654511318
C            7.40755622099862        3.43872800826070       -0.61584810268585
C            6.90106749419795        2.16017287037038       -0.46291788752432
C            5.22033742496691       -0.56682356688571       -0.63270790640368
C            4.43848010968390       -0.82790844659706       -1.74955459581969
C            3.06119236007154       -0.76455427870951       -1.66468576163012
C            2.44916087588504       -0.43181966265367       -0.45955052761191
C            0.97546818173310       -0.34885273670433       -0.36418774439824
C            0.21155678378498       -1.52288300302310       -0.33962269512572
C            0.81532782493433       -2.80716295837010       -0.38491605808979
C            0.06162936914975       -3.93988027839173       -0.37443265265826
C           -1.34445915477113       -3.85830774456526       -0.32117160290046
C           -1.96121440005094       -2.64685505285814       -0.26229994014056
C           -1.21298307591028       -1.44021511076502       -0.25431249326368
C           -1.83463956898255       -0.18606623434577       -0.18179446595743
C           -3.30799500126245       -0.10004070521573       -0.09229027620882
C           -3.97004157543423       -0.45581584542658        1.07901207030054
C           -5.34613806291480       -0.38020124465312        1.16391138637084
C           -6.08499677695448        0.05471466384465        0.06895852458426
N           -7.48477148788153        0.13154325127006        0.15387889856290
C           -8.39104146973139       -0.23812954565617       -0.81751728146919
C           -8.21938846359523       -0.86799039182678       -2.04125574185166
C           -9.36816720930549       -1.12651355015192       -2.76978487838333
C          -10.61585870945875       -0.76660483917455       -2.26010600812722
N          -10.79980923177605       -0.19905923625756       -1.08412293573322
C           -9.71052236666868        0.05441443585388       -0.37447109563557
C           -9.58012168621016        0.62362631647028        0.93401780170453
C          -10.45044058434498        1.11882241884927        1.89327287487968
C           -9.89012053647128        1.59566275441015        3.06677901183188
C           -8.50762281071797        1.56402130925692        3.23461161096086
N           -7.65358828588119        1.09800494981003        2.33846854961539
C           -8.19022502679083        0.63950653526769        1.21971562310878
C           -5.43135434331329        0.42940243507448       -1.10059512576175
C           -4.05451489993350        0.34774689603504       -1.17751768315840
C           -1.06896238071943        0.98785527155405       -0.19695326254153
C           -1.66630057248716        2.27206331891427       -0.09684005220098
C           -0.91219655317933        3.40423450935637       -0.12796603694943
C            0.48835226197987        3.32358529513287       -0.26397943997773
C            1.10166761718849        2.11175639582642       -0.34400706314230
C            0.35441839616491        0.90529742592996       -0.29829411211973
C            3.23894110322183       -0.17982855903322        0.65934868695244
C            4.61631220497195       -0.25096548446978        0.57739624189407
H            7.74003634391938        0.68611262385289        1.71914549251730
H            8.59856950384788       -0.24223328944048        3.83730034473459
H            9.04150128176040       -2.65694354572906        4.03882119285594
H            8.63235875729866       -4.15498056443746        2.12174683377092
H            7.76700115838657       -3.21092804884993       -0.00972832983203
H            9.25004684229369        0.43433815996309       -2.16320082816345
H           10.17074754043107        2.72811691015181       -2.42941038984781
H            8.97540877572199        4.64300528691094       -1.43348650922467
H            6.88158789351927        4.27987349713391       -0.18749986158843
H            5.97740525509144        2.00130545142986        0.07581239366251
H            4.93035295002004       -1.08895612368629       -2.67565587486176
H            2.44888385654301       -0.96717527942625       -2.53168540510569
H            1.89280106213650       -2.86892873758693       -0.42748294545938
H            0.53433664095821       -4.91028845366762       -0.40992111576453
H           -1.92720151260363       -4.76774189214870       -0.32593884823663
H           -3.03866571319580       -2.58477108582863       -0.22159737312083
H           -3.39550788403883       -0.79288977104603        1.92930290476706
H           -5.85650614593677       -0.64559871228190        2.07538972256404
H           -7.24527782172171       -1.15950196287924       -2.40554510364832
H           -9.30281434493439       -1.61364393211575       -3.73028724319872
H          -11.51623184527211       -0.95984420930220       -2.82732804232316
H          -11.51557591394370        1.12755327381282        1.72054072423293
H          -10.51309104257416        1.99262763823544        3.85273976176367
H           -8.05393822595040        1.93389331475419        4.14441400273404
H           -5.99880379712175        0.80489517446730       -1.93891131925415
H           -3.54748128964530        0.63772264451539       -2.08644806973126
H           -2.73909576454480        2.33445243269819        0.00955829448677
H           -1.38085105879152        4.37423096176206       -0.05050069529609
H            1.06939761989538        4.23340863897334       -0.30097704884956
H            2.17499351211237        2.04879857801276       -0.44798293307013
H            2.76191828186542        0.06692092900124        1.59740629541225
H            5.22216581656737       -0.07286539077833        1.45484619428960

          :  Hamiltonian                  GFN2-xTB          :
         :: gradient norm              0.000045043685 Eh/a0 ::
         :: HOMO-LUMO gap              2.143517134972 eV    ::
         :: SCC energy              -137.001800593170 Eh    ::
         :: -> dispersion             -0.123730335145 Eh    ::
         :: repulsion energy           2.469280900901 Eh    ::

    * Orbital Energies and Occupations

         #    Occupation            Energy/Eh            Energy/eV
      -------------------------------------------------------------
         1        2.0000           -0.6912079             -18.8087
       ...           ...                  ...                  ...
       113        2.0000           -0.4153608             -11.3025
       114        2.0000           -0.4129043             -11.2357
       115        2.0000           -0.4117613             -11.2046
       116        2.0000           -0.4089680             -11.1286
       117        2.0000           -0.4071062             -11.0779
       118        2.0000           -0.4035388             -10.9808
       119        2.0000           -0.3988578             -10.8535
       120        2.0000           -0.3983465             -10.8396
       121        2.0000           -0.3970703             -10.8048
       122        2.0000           -0.3794192             -10.3245
       123        2.0000           -0.3748423             -10.2000
       124        2.0000           -0.3697566             -10.0616
       125        2.0000           -0.3633028              -9.8860 (HOMO)
       126                         -0.2845300              -7.7425 (LUMO)
       127                         -0.2704308              -7.3588
       128                         -0.2510042              -6.8302
       129                         -0.2501740              -6.8076
       130                         -0.2467808              -6.7152
       131                         -0.2415320              -6.5724
       132                         -0.2370678              -6.4509
       133                         -0.2362451              -6.4286
       134                         -0.2346876              -6.3862
       135                         -0.2341901              -6.3726
       136                         -0.2337226              -6.3599
       ...                                ...                  ...
       249                          1.1910230              32.4094
      -------------------------------------------------------------
                  HL-Gap            0.0787728 Eh            2.1435 eV

     #   Z          covCN         q      C6AA      α(0)
     1   8 O        0.808    -0.355    20.824     6.117
     2  15 P        4.081     0.061   157.529    22.546
     3   6 C        2.921     0.013    27.719     8.634
     4   6 C        2.970    -0.026    28.657     8.781
     5   6 C        2.920    -0.028    28.701     8.785
     6   6 C        2.920    -0.025    28.630     8.775
     7   6 C        2.919    -0.027    28.665     8.780
     8   6 C        3.032    -0.019    28.459     8.750
     9   6 C        2.921     0.014    27.709     8.632
    10   6 C        3.034    -0.019    28.451     8.749
    11   6 C        2.919    -0.026    28.663     8.779
    12   6 C        2.920    -0.025    28.632     8.775
    13   6 C        2.920    -0.028    28.704     8.786
    14   6 C        2.968    -0.027    28.663     8.782
    15   6 C        2.921     0.010    27.796     8.646
    16   6 C        3.029    -0.021    28.493     8.756
    17   6 C        2.923    -0.031    28.767     8.796
    18   6 C        2.978     0.021    27.535     8.607
    19   6 C        2.978    -0.007    28.183     8.708
    20   6 C        2.984     0.007    27.856     8.658
    21   6 C        2.917    -0.034    28.839     8.806
    22   6 C        2.914    -0.029    28.720     8.788
    23   6 C        2.914    -0.029    28.728     8.789
    24   6 C        2.917    -0.034    28.858     8.809
    25   6 C        2.984     0.007    27.864     8.659
    26   6 C        2.977    -0.006    28.156     8.704
    27   6 C        2.977     0.014    27.692     8.632
    28   6 C        2.925    -0.029    28.734     8.791
    29   6 C        2.921    -0.038    28.952     8.824
    30   6 C        2.914     0.066    26.529     8.446
    31   7 N        2.797    -0.046    22.128     6.987
    32   6 C        3.083     0.037    27.072     8.530
    33   6 C        2.915    -0.033    28.814     8.802
    34   6 C        2.921    -0.044    29.088     8.844
    35   6 C        2.924     0.051    26.852     8.498
    36   7 N        1.832    -0.228    26.817     7.674
    37   6 C        3.073     0.069    26.385     8.422
    38   6 C        3.063    -0.033    28.752     8.793
    39   6 C        2.918    -0.010    28.275     8.720
    40   6 C        2.918    -0.051    29.262     8.871
    41   6 C        2.932     0.060    26.659     8.468
    42   7 N        1.832    -0.254    27.460     7.765
    43   6 C        3.101     0.136    24.918     8.180
    44   6 C        2.920    -0.044    29.094     8.845
    45   6 C        2.925    -0.032    28.797     8.800
    46   6 C        2.984     0.007    27.860     8.658
    47   6 C        2.917    -0.034    28.846     8.807
    48   6 C        2.914    -0.029    28.732     8.790
    49   6 C        2.914    -0.029    28.728     8.789
    50   6 C        2.917    -0.034    28.845     8.807
    51   6 C        2.984     0.007    27.862     8.658
    52   6 C        2.924    -0.032    28.800     8.801
    53   6 C        2.970    -0.028    28.690     8.786
    54   1 H        0.925     0.037     2.491     2.468
    55   1 H        0.926     0.035     2.512     2.479
    56   1 H        0.926     0.037     2.485     2.465
    57   1 H        0.926     0.039     2.458     2.452
    58   1 H        0.926     0.060     2.197     2.318
    59   1 H        0.926     0.060     2.199     2.319
    60   1 H        0.926     0.039     2.458     2.452
    61   1 H        0.926     0.037     2.486     2.466
    62   1 H        0.926     0.035     2.515     2.480
    63   1 H        0.926     0.037     2.491     2.468
    64   1 H        0.926     0.062     2.180     2.309
    65   1 H        0.926     0.038     2.470     2.458
    66   1 H        0.926     0.031     2.567     2.505
    67   1 H        0.926     0.031     2.566     2.505
    68   1 H        0.926     0.030     2.580     2.512
    69   1 H        0.926     0.031     2.577     2.510
    70   1 H        0.926     0.040     2.450     2.448
    71   1 H        0.926     0.056     2.248     2.344
    72   1 H        0.926     0.035     2.517     2.481
    73   1 H        0.926     0.036     2.499     2.472
    74   1 H        0.925     0.038     2.472     2.459
    75   1 H        0.926     0.049     2.328     2.386
    76   1 H        0.926     0.037     2.489     2.467
    77   1 H        0.925     0.040     2.452     2.449
    78   1 H        0.926     0.039     2.460     2.453
    79   1 H        0.926     0.037     2.487     2.466
    80   1 H        0.926     0.033     2.543     2.494
    81   1 H        0.926     0.031     2.575     2.510
    82   1 H        0.926     0.030     2.590     2.516
    83   1 H        0.926     0.029     2.606     2.524
    84   1 H        0.926     0.035     2.519     2.482
    85   1 H        0.926     0.038     2.474     2.460

molecular dipole:
                 x           y           z       tot (Debye)
 q only:        0.174       0.583       0.906
   full:        0.123       0.689       0.940       2.979

 projected vibrational frequencies (cm⁻¹)
eigval :       -0.00    -0.00    -0.00     0.00     0.00     0.00
eigval :        4.94     8.34     9.66    11.34    18.91    21.55
eigval :       27.31    36.20    40.01    43.63    47.13    57.51
eigval :       60.38    67.64    73.97    82.36    99.86   106.86
eigval :      109.18   138.90   139.63   147.42   150.63   158.35
eigval :      178.05   183.13   198.36   210.34   219.74   223.34
eigval :      228.79   252.28   266.88   282.63   282.92   284.02
eigval :      318.66   334.79   342.07   362.05   363.02   365.01
eigval :      375.71   377.89   386.48   392.23   400.32   404.96
eigval :      414.19   419.97   427.36   438.96   442.91   445.56
eigval :      445.97   453.90   458.47   477.01   502.98   518.86
eigval :      522.02   533.25   542.19   553.46   578.23   584.91
eigval :      585.85   586.49   587.09   592.31   601.81   611.74
eigval :      612.09   625.50   641.66   643.56   658.16   658.78
eigval :      675.19   682.68   692.22   692.93   698.85   706.52
eigval :      715.79   725.17   733.73   740.09   741.20   743.81
eigval :      755.83   774.26   775.92   780.56   792.07   801.75
eigval :      805.25   816.72   870.87   874.33   875.91   877.91
eigval :      879.20   881.75   898.04   900.50   902.81   904.07
eigval :      905.46   907.06   911.85   916.46   917.17   917.72
eigval :      918.88   919.79   920.41   924.51   927.00   927.50
eigval :      928.05   928.70   930.78   932.15   933.36   934.05
eigval :      934.99   956.75   972.42   975.48  1012.40  1026.56
eigval :     1032.72  1078.37  1078.84  1080.62  1081.38  1082.06
eigval :     1090.92  1113.54  1115.32  1121.94  1124.57  1126.45
eigval :     1127.70  1130.46  1134.45  1135.30  1145.59  1146.33
eigval :     1170.56  1180.67  1180.75  1181.04  1184.47  1188.65
eigval :     1191.65  1192.21  1194.68  1211.88  1214.75  1220.54
eigval :     1228.33  1237.65  1258.30  1259.31  1263.13  1264.24
eigval :     1268.00  1269.98  1274.17  1283.98  1290.80  1310.77
eigval :     1314.03  1321.46  1321.83  1323.82  1331.70  1337.57
eigval :     1339.94  1350.10  1372.55  1378.57  1384.52  1387.09
eigval :     1402.55  1414.40  1420.58  1424.38  1425.13  1429.65
eigval :     1444.75  1453.78  1454.78  1466.67  1468.51  1481.43
eigval :     1488.43  1500.31  1527.22  1532.24  1543.33  1553.96
eigval :     1559.61  1561.67  1568.57  1583.89  1584.01  1584.47
eigval :     1587.09  1587.19  1588.29  1597.03  1599.85  1608.55
eigval :     1622.99  3062.76  3065.09  3066.02  3067.23  3067.92
eigval :     3074.40  3074.45  3074.81  3075.21  3075.58  3075.74
eigval :     3077.43  3077.82  3079.86  3080.34  3080.62  3080.95
eigval :     3084.14  3084.34  3085.10  3086.00  3089.12  3089.72
eigval :     3090.80  3091.83  3092.36  3093.49  3094.53  3095.42
eigval :     3097.08  3102.23  3116.74

   temp. (K)  partition function   enthalpy   heat capacity  entropy
                                   cal/mol     cal/K/mol   cal/K/mol   J/K/mol
 298.15  VIB  0.499E+22            25248.805    155.330    160.506
         ROT  0.147E+09              888.752      2.981     40.360
         INT  0.736E+30            26137.557    158.311    200.865
         TR   0.178E+29             1481.254      4.968     45.488
         TOT                       27618.8109   163.2787   246.3536  1030.7433

       T/K    H(0)-H(T)+PV         H(T)/Eh          T*S/Eh         G(T)/Eh
   ------------------------------------------------------------------------
    298.15    0.440134E-01    0.687825E+00    0.117051E+00    0.570775E+00
   ------------------------------------------------------------------------

         :::::::::::::::::::::::::::::::::::::::::::::::::::::
         ::                  THERMODYNAMIC                  ::
         :::::::::::::::::::::::::::::::::::::::::::::::::::::
         :: total free energy        -133.961745118276 Eh   ::
         ::.................................................::
         :: total energy             -134.532519692262 Eh   ::
         :: zero point energy           0.643811726973 Eh   ::
         :: G(RRHO) w/o ZPVE           -0.073037152987 Eh   ::
         :: G(RRHO) contrib.            0.570774573986 Eh   ::
         :::::::::::::::::::::::::::::::::::::::::::::::::::::

           -------------------------------------------------
          | TOTAL ENERGY             -134.532519692262 Eh   |
          | TOTAL ENTHALPY           -133.844694588552 Eh   |
          | TOTAL FREE ENERGY        -133.961745118276 Eh   |
          | GRADIENT NORM               0.000045052791 Eh/α |
          | HOMO-LUMO GAP               2.143517130920 eV   |
           -------------------------------------------------

 * finished run on 2025/08/25 at 07:25:07.683
