   * xtb version 6.7.1 (edcfbbe) compiled by 'albert@albert-system' on 2024-07-22

   ID    Z sym.   atoms
    1    8 O      1
    2   15 P      2
    3    6 C      3-30, 32-35, 37-41, 43-53
    4    7 N      31, 36, 42
    5    1 H      54-85

          program call               : xtb data2507/gas/p-PO15NCzDPA/p-PO15NCzDPA_gas_S0_finalOpt.xtbopt.xyz --gfn 2 --spinpol --tblite --uhf 2 --ohess vtight --parallel 40 --molden --ceasefiles --namespace data2507/gas/p-PO15NCzDPA/p-PO15NCzDPA_gas_T1_preOpt
 * total energy  :  -134.4602875 Eh     change        0.8404365E-07 Eh
 * total energy  :  -134.4666757 Eh     change       -0.6388224E-02 Eh
 * total energy  :  -134.4681333 Eh     change       -0.1457617E-02 Eh
 * total energy  :  -134.4682624 Eh     change       -0.1291043E-03 Eh
 * total energy  :  -134.4684030 Eh     change       -0.1406103E-03 Eh
 * total energy  :  -134.4684832 Eh     change       -0.8014540E-04 Eh
 * total energy  :  -134.4685823 Eh     change       -0.9907950E-04 Eh
 * total energy  :  -134.4686895 Eh     change       -0.1072141E-03 Eh
 * total energy  :  -134.4687610 Eh     change       -0.7155219E-04 Eh
 * total energy  :  -134.4688064 Eh     change       -0.4542049E-04 Eh
 * total energy  :  -134.4695568 Eh     change       -0.1196681E-05 Eh
 * total energy  :  -134.4695583 Eh     change       -0.1478426E-05 Eh
 * total energy  :  -134.4695598 Eh     change       -0.1510417E-05 Eh
 * total energy  :  -134.4695613 Eh     change       -0.1485348E-05 Eh
 * total energy  :  -134.4695626 Eh     change       -0.1346121E-05 Eh
 * total energy  :  -134.4695638 Eh     change       -0.1143789E-05 Eh
 * total energy  :  -134.4695656 Eh     change       -0.1821397E-05 Eh
 * total energy  :  -134.4695657 Eh     change       -0.1002567E-06 Eh
 * total energy  :  -134.4695657 Eh     change       -0.5459526E-09 Eh
   *** GEOMETRY OPTIMIZATION CONVERGED AFTER 95 ITERATIONS ***

 final structure:
================
85
 xtb: 6.7.1 (edcfbbe)
O            7.62333232678448       -1.19253301487205       -1.87168405330855
P            7.17745996909646       -0.45298114921508       -0.68532574645315
C            7.78717600690405       -1.16242877169476        0.87997624364407
C            7.99091689574565       -0.41545071223935        2.03210205537918
C            8.44027253765007       -1.03965912325198        3.18224109654666
C            8.68610597147213       -2.40345429959106        3.18419499697543
C            8.48962359623230       -3.14799607943665        2.03230078848994
C            8.04074066198510       -2.52693216569036        0.88107830417192
C            7.73581003910218        1.28364297480393       -0.66535397851243
C            7.04020514665534        2.31099090723810       -0.04300559634110
C            7.55314860823654        3.59595045655611       -0.06218051940917
C            8.75560456735818        3.85679744964009       -0.69942088916455
C            9.44651321802717        2.83311357755205       -1.32754573611804
C            8.93592028927971        1.54798612123022       -1.31077369359456
C            5.36842386941883       -0.39510525982388       -0.50796149957280
C            4.61932306840138       -0.58696791187073       -1.66242069525978
C            3.24172821063604       -0.54713799385274       -1.61546386507207
C            2.57935294282262       -0.29811381830300       -0.40914293451558
C            1.12010321024463       -0.24227988812926       -0.35030147932564
C            0.34723023547185       -1.36838346952753       -0.77353895142334
C            0.95002739807879       -2.55746550634776       -1.18938739854769
C            0.19481645043598       -3.62573189225497       -1.67084864032952
C           -1.17503326516643       -3.51383575237386       -1.75103009104690
C           -1.80467945081361       -2.35656859926517       -1.29437002259601
C           -1.07698855044819       -1.29513322822377       -0.75305221099569
C           -1.72178263347015       -0.13637501657640       -0.21423025198840
C           -3.17760113536466       -0.08443707032361       -0.13896393753830
C           -3.89834595377479       -1.08059310556653        0.52788275984110
C           -5.27289545838375       -1.02747957999057        0.61512724602874
C           -5.97294641362844        0.01409403907194        0.00961813736106
N           -7.37133803301541        0.07073724601811        0.08639410705496
C           -8.24884938274771       -0.98966912975412       -0.01121558058870
C           -8.04587243180901       -2.32519744096592       -0.32613684690811
C           -9.17243855133868       -3.12931875149533       -0.36869134556586
C          -10.43111857116292       -2.58461212744232       -0.11430587993401
N          -10.64659066820641       -1.31033402588316        0.14792304827819
C           -9.57888926234674       -0.52812683288880        0.19186995444288
C           -9.48709949174729        0.88454481758386        0.41367823595310
C          -10.38507214991130        1.90903511280188        0.67216894772533
C           -9.86134120545090        3.18166207289237        0.82882961404861
C           -8.48611780870087        3.37930576396950        0.72786543052468
N           -7.60674809390422        2.42215524365071        0.48260125351109
C           -8.10836752152341        1.20797419643496        0.32785109899419
C           -5.26974536280692        1.01489278666406       -0.65655749678525
C           -3.89432418384577        0.96804428786254       -0.71943634525489
C           -0.94530755307992        0.97135376598845        0.25370071172485
C           -1.53671222407808        2.08207258859713        0.85871616202552
C           -0.78123769056445        3.18864228389924        1.24493773195172
C            0.57852783976540        3.19981946704522        1.02955350195241
C            1.20191029610136        2.07913601606152        0.48308785573408
C            0.47559107660006        0.93809152655595        0.13571054127131
C            3.34480733197468       -0.10928003348325        0.74666949896618
C            4.72193479224409       -0.16685672531566        0.70176823840937
H            7.81221019955112        0.65088968799496        2.02440102714062
H            8.60263992905924       -0.46045821329440        4.07987615719618
H            9.03769323594164       -2.88500685595315        4.08494800137075
H            8.68814728252936       -4.20977621383098        2.03322917759834
H            7.89097688663447       -3.08157041933543       -0.03431214521853
H            6.09700055154446        2.10846309096211        0.44467026243947
H            7.01251683984955        4.39772389011668        0.42006760317794
H            9.15129930662313        4.86185828309363       -0.71059247982636
H           10.38058223472041        3.03856805490185       -1.82954809500122
H            9.44896312185180        0.73406027251859       -1.80294157340569
H            5.14062778511096       -0.77379897011172       -2.59045655047172
H            2.66207438106332       -0.67991590303297       -2.51765604511064
H            2.02322738059962       -2.65716897039539       -1.13566322439352
H            0.69333074001940       -4.52850202372560       -1.99010901106063
H           -1.76998856155947       -4.31947657188269       -2.15458114448566
H           -2.87862457271633       -2.28095606798857       -1.36905554299385
H           -3.36191891024520       -1.87887161496986        1.01984474856768
H           -5.80620861642925       -1.77746099596825        1.17979242913477
H           -7.06576865512252       -2.72173302042395       -0.54607901952352
H           -9.08125260889827       -4.17773723594026       -0.60653488005672
H          -11.31406782116219       -3.20872637886069       -0.13831715228800
H          -11.44303769506192        1.71008697879145        0.74629958465177
H          -10.50699702743501        4.02202023304741        1.02952160857736
H           -8.06040867755757        4.36635231851300        0.84955379017950
H           -5.81208508976015        1.82594684046074       -1.11441981400149
H           -3.35755211359422        1.73523295520717       -1.25763588866665
H           -2.60052982304531        2.08757411691132        1.03903501215173
H           -1.27341785570981        4.03503623642354        1.69984664630699
H            1.17048754592629        4.06392519103822        1.29177922307171
H            2.26886961752818        2.09878541749340        0.32141088446950
H            2.84094657606619        0.05340238230131        1.68902423900804
H            5.29844866118595       -0.05037225334099        1.60899281209298

 projected vibrational frequencies (cm⁻¹)
eigval :       -0.00     0.00     0.00     0.00     0.00     0.00
eigval :        6.89     8.79    10.77    18.19    20.00    22.49
eigval :       27.09    35.48    39.94    45.62    56.48    60.91
eigval :       65.02    70.64    82.07    84.94   100.12   107.17
eigval :      132.12   136.09   141.08   152.97   154.30   158.47
eigval :      175.29   194.96   209.19   210.97   221.15   229.05
eigval :      231.76   255.83   266.88   282.53   282.91   287.55
eigval :      316.69   332.52   346.03   362.09   363.52   366.77
eigval :      368.44   372.13   381.33   383.38   397.85   402.94
eigval :      404.03   415.73   417.83   422.80   428.19   441.81
eigval :      444.28   454.85   470.48   476.72   500.97   518.55
eigval :      520.83   531.54   543.81   552.92   566.03   575.67
eigval :      580.17   585.66   585.84   587.10   601.29   602.92
eigval :      606.37   615.88   633.37   640.98   658.15   658.79
eigval :      670.13   675.27   679.70   691.80   694.55   706.49
eigval :      714.41   716.54   722.44   733.59   740.50   742.98
eigval :      747.28   753.06   760.40   779.87   791.74   801.35
eigval :      807.81   818.24   844.32   847.27   868.92   877.43
eigval :      878.96   881.40   889.44   891.65   894.35   900.68
eigval :      902.00   902.42   905.21   906.00   906.40   906.85
eigval :      914.85   916.57   917.17   923.61   924.18   926.24
eigval :      927.18   929.15   932.55   933.81   935.01   936.31
eigval :      945.60   954.48   972.38   975.44  1007.97  1022.45
eigval :     1032.75  1078.37  1078.82  1082.08  1091.44  1101.20
eigval :     1104.38  1113.55  1113.69  1115.38  1121.28  1124.43
eigval :     1124.80  1127.31  1127.70  1132.75  1137.29  1146.13
eigval :     1169.77  1180.45  1180.54  1181.25  1181.57  1182.57
eigval :     1189.10  1191.31  1193.44  1196.57  1198.59  1214.17
eigval :     1232.17  1233.21  1253.84  1256.00  1261.34  1264.24
eigval :     1268.38  1269.78  1274.15  1283.70  1289.75  1295.93
eigval :     1297.13  1311.32  1315.52  1321.42  1321.84  1329.61
eigval :     1332.06  1339.92  1342.75  1364.87  1373.90  1376.50
eigval :     1376.87  1389.62  1405.59  1408.00  1412.08  1424.22
eigval :     1425.08  1427.61  1453.97  1454.61  1457.39  1465.76
eigval :     1474.24  1481.01  1484.52  1485.05  1517.76  1531.46
eigval :     1539.36  1540.64  1554.85  1558.73  1563.01  1569.98
eigval :     1576.59  1582.92  1583.76  1584.01  1587.00  1587.75
eigval :     1597.90  3063.17  3065.05  3065.50  3065.63  3068.07
eigval :     3073.91  3074.42  3074.52  3076.85  3077.05  3077.60
eigval :     3078.51  3078.80  3078.99  3080.45  3083.65  3083.90
eigval :     3084.02  3086.10  3087.22  3087.51  3091.26  3091.44
eigval :     3092.15  3092.84  3095.55  3096.09  3097.45  3100.38
eigval :     3100.77  3102.55  3116.77

   temp. (K)  partition function   enthalpy   heat capacity  entropy
                                   cal/mol     cal/K/mol   cal/K/mol   J/K/mol
 298.15  VIB  0.975E+21            25247.734    156.645    158.996
         ROT  0.148E+09              888.752      2.981     40.370
         INT  0.144E+30            26136.486    159.626    199.365
         TR   0.178E+29             1481.254      4.968     45.488
         TOT                       27617.7400   164.5938   244.8533  1024.4663

       T/K    H(0)-H(T)+PV         H(T)/Eh          T*S/Eh         G(T)/Eh
   ------------------------------------------------------------------------
    298.15    0.440117E-01    0.685500E+00    0.116338E+00    0.569162E+00
   ------------------------------------------------------------------------

         :::::::::::::::::::::::::::::::::::::::::::::::::::::
         ::                  THERMODYNAMIC                  ::
         :::::::::::::::::::::::::::::::::::::::::::::::::::::
         :: total free energy        -133.900403356162 Eh   ::
         ::.................................................::
         :: total energy             -134.469565700134 Eh   ::
         :: zero point energy           0.641488388184 Eh   ::
         :: G(RRHO) w/o ZPVE           -0.072326044212 Eh   ::
         :: G(RRHO) contrib.            0.569162343972 Eh   ::
         :::::::::::::::::::::::::::::::::::::::::::::::::::::

           -------------------------------------------------
          | TOTAL ENERGY             -134.469565700134 Eh   |
          | TOTAL ENTHALPY           -133.784065641822 Eh   |
          | TOTAL FREE ENERGY        -133.900403356162 Eh   |
          | GRADIENT NORM               0.000097201836 Eh/α |
           -------------------------------------------------

 * finished run on 2025/08/25 at 07:33:07.332
