   * xtb version 6.7.1 (edcfbbe) compiled by 'albert@albert-system' on 2024-07-22

   ID    Z sym.   atoms
    1    8 O      1
    2   15 P      2
    3    6 C      3-30, 32-35, 37-41, 43-53
    4    7 N      31, 36, 42
    5    1 H      54-85

          program call               : xtb data2507/gas/p-PO15NCzDPA/p-PO15NCzDPA_gas_T1_crest.xyz --gfn 2 --spinpol --tblite --uhf 2 --ohess vtight --parallel 40 --molden --ceasefiles --namespace data2507/gas/p-PO15NCzDPA/p-PO15NCzDPA_gas_T1_finalOpt
 * total energy  :  -134.4694891 Eh     change       -0.8733224E-08 Eh
 * total energy  :  -134.4695295 Eh     change       -0.4036293E-04 Eh
 * total energy  :  -134.4695440 Eh     change       -0.1454827E-04 Eh
 * total energy  :  -134.4695518 Eh     change       -0.7775345E-05 Eh
 * total energy  :  -134.4695588 Eh     change       -0.7046123E-05 Eh
 * total energy  :  -134.4695649 Eh     change       -0.6032231E-05 Eh
 * total energy  :  -134.4695701 Eh     change       -0.5252548E-05 Eh
 * total energy  :  -134.4695755 Eh     change       -0.5325745E-05 Eh
 * total energy  :  -134.4695810 Eh     change       -0.5584202E-05 Eh
 * total energy  :  -134.4695849 Eh     change       -0.3835174E-05 Eh
 * total energy  :  -134.4695928 Eh     change       -0.1204641E-05 Eh
 * total energy  :  -134.4695938 Eh     change       -0.9284885E-06 Eh
 * total energy  :  -134.4695952 Eh     change       -0.1389273E-05 Eh
 * total energy  :  -134.4695955 Eh     change       -0.3115179E-06 Eh
 * total energy  :  -134.4695960 Eh     change       -0.5422766E-06 Eh
 * total energy  :  -134.4695961 Eh     change       -0.1242596E-06 Eh
 * total energy  :  -134.4695964 Eh     change       -0.2672406E-06 Eh
 * total energy  :  -134.4695966 Eh     change       -0.1752242E-06 Eh
 * total energy  :  -134.4695967 Eh     change       -0.8437323E-07 Eh
   *** GEOMETRY OPTIMIZATION CONVERGED AFTER 27 ITERATIONS ***

 final structure:
================
85
 xtb: 6.7.1 (edcfbbe)
O            7.62497382826549       -1.45332798303692       -1.69180899444441
P            7.17978571108751       -0.55287528962131       -0.62212087046308
C            7.79910107020652       -1.02603161009279        1.02622457467757
C            7.98687747624973       -0.12107631279474        2.06207619488888
C            8.44601876134309       -0.56914790183048        3.28791181500316
C            8.71801624866367       -1.91427015798811        3.48069645300587
C            8.53790789960585       -2.81648419917625        2.44469319945698
C            8.07898567395933       -2.37170335163076        1.21820225072225
C            7.72700575139001        1.17146969084246       -0.85564881187204
C            7.02848438932117        2.27167656223946       -0.37774600918789
C            7.52904699547968        3.54462660416670       -0.58623848327335
C            8.72205629703859        3.72094215753024       -1.26872994337631
C            9.41586670459797        2.62346390978198       -1.75244152298253
C            8.91753622881793        1.34994700777330       -1.54642941078757
C            5.37078600870029       -0.47271883000338       -0.45092488676639
C            4.62240390644832       -0.78512363041474       -1.57942191467968
C            3.24514091434351       -0.73314958016401       -1.54034070436997
C            2.58133353485902       -0.35349892728832       -0.36894398686179
C            1.12286700759040       -0.28559678373092       -0.31973360269289
C            0.34497921330594       -1.44207307693005       -0.64064157515272
C            0.94159515760622       -2.66830873206186       -0.94172857660846
C            0.18196892200177       -3.77046938453230       -1.33094947267782
C           -1.18645873277315       -3.65713562296330       -1.43163928149710
C           -1.81072056943970       -2.46004236473261       -1.08351548495884
C           -1.07882073466743       -1.35927769733541       -0.63407965028816
C           -1.71925057619959       -0.15457265972660       -0.20148008380369
C           -3.17480910304293       -0.09086282549663       -0.13226593193308
C           -3.89899843959052       -1.02349240963907        0.61763281336504
C           -5.27334191323602       -0.95862315294004        0.69908117465887
C           -5.96962541281463        0.02933855851288        0.00576995986520
N           -7.36793899078479        0.09588109752373        0.07590275933339
C           -8.24750528983613       -0.96714377085376        0.06428319596452
C           -8.04634749549659       -2.32449502462328       -0.13839671058531
C           -9.17446121793656       -3.12727102214059       -0.11738739718774
C          -10.43263186322265       -2.56093995355472        0.08756897735419
N          -10.64615252609015       -1.26896362302487        0.24324075374394
C           -9.57695674566943       -0.48775031930865        0.22532923543670
C           -9.48243733629315        0.93824473676473        0.33016559975358
C          -10.37843921946754        1.98249973798906        0.50177894299377
C           -9.85199542996525        3.26256905573404        0.55425113602685
C           -8.47615369281101        3.44832248084525        0.43987669061387
N           -7.59853910571039        2.47234521526671        0.27597453524670
C           -8.10277305378408        1.25065583250207        0.22090761261516
C           -5.26308607503656        0.96692450598697       -0.74352708198460
C           -3.88780761793465        0.91009312047770       -0.80168352445470
C           -0.93848686697043        0.98701869072793        0.16699788696537
C           -1.52591647001383        2.14988850287843        0.66936692262452
C           -0.76679275811684        3.28449722884785        0.95295073399893
C            0.59260842877771        3.27197903164872        0.73506881439372
C            1.21196860050504        2.10406722059989        0.29289858799574
C            0.48231368582878        0.93769580644380        0.05340384937220
C            3.34638793060856       -0.04476072983222        0.76132417421573
C            4.72340855803167       -0.11087744157745        0.72514748708402
H            7.78800027456398        0.93002755456159        1.90509271748284
H            8.59557302868442        0.13313222409612        4.09539688357610
H            9.07724526543828       -2.25795168104200        4.43970733567993
H            8.75698718709726       -3.86359531286117        2.59417321052069
H            7.94126972917732       -3.05190928503197        0.38976829797835
H            6.09243290654410        2.13295535688558        0.14500695319075
H            6.98613365357225        4.40292840371703       -0.21713343352036
H            9.10805283224439        4.71713563665650       -1.42827535059395
H           10.34250035310065        2.76240388575981       -2.28980734016804
H            9.43267659981662        0.47797586348398       -1.92353915340387
H            5.14404172188239       -1.07431567975062       -2.48067138312060
H            2.66677591820481       -0.95736536682193       -2.42510075355442
H            2.01341972520960       -2.77085818154748       -0.86981569222076
H            0.67615241668688       -4.70151661040396       -1.56406918971155
H           -1.78431581471325       -4.49146587916717       -1.76678335642546
H           -2.88367206891926       -2.38438026279764       -1.17136673370815
H           -3.36527763929777       -1.77818184902591        1.17675277608753
H           -5.80953445109982       -1.65554248270343        1.32563112818605
H           -7.06638761675312       -2.73951118547824       -0.32190724878506
H           -9.08485350770083       -4.19194382882445       -0.26738147994428
H          -11.31681796589908       -3.18325190892287        0.11259143119204
H          -11.43700827194606        1.79272228513544        0.59001114070255
H          -10.49605340077713        4.11795745120858        0.68405164138359
H           -8.04844851964909        4.44114665843930        0.48069694525965
H           -5.80275303305336        1.73734670096762       -1.26968856004877
H           -3.34836500219621        1.62591079072645       -1.40415733278699
H           -2.58951683339213        2.17494899777266        0.84924088341021
H           -1.25573687126627        4.17014644170691        1.32992425412714
H            1.18740357825289        4.15474100487821        0.91614097457502
H            2.27856602379557        2.10636794129514        0.12796859133247
H            2.84224170532438        0.21905757865962        1.68034130776694
H            5.29906698133862        0.10355333128377        1.61487569545468

 projected vibrational frequencies (cm⁻¹)
eigval :       -0.00    -0.00    -0.00     0.00     0.00     0.00
eigval :        6.62     8.49    10.59    18.26    20.21    22.58
eigval :       27.09    35.90    40.28    45.70    57.08    60.81
eigval :       64.28    70.39    82.36    85.08   100.11   107.13
eigval :      133.08   136.34   141.41   152.58   154.34   158.41
eigval :      175.62   195.36   209.22   210.94   221.03   229.09
eigval :      232.18   255.71   267.07   282.43   282.86   287.62
eigval :      316.82   332.77   346.20   362.24   363.57   366.81
eigval :      368.38   372.33   381.33   383.56   397.82   403.36
eigval :      404.04   415.77   417.93   423.11   428.20   441.74
eigval :      443.50   455.21   470.62   476.93   500.87   518.41
eigval :      520.74   531.71   543.71   552.90   566.14   575.82
eigval :      580.16   585.62   585.83   587.02   601.28   602.86
eigval :      606.37   615.88   633.32   641.07   658.16   658.78
eigval :      670.34   675.42   679.73   691.81   694.73   706.45
eigval :      714.57   716.68   722.48   733.54   740.38   742.95
eigval :      747.32   753.07   760.44   779.96   791.60   801.21
eigval :      807.62   818.23   844.52   847.69   868.81   877.41
eigval :      878.79   881.35   889.54   891.92   894.35   900.59
eigval :      901.98   902.37   905.17   905.90   906.33   906.71
eigval :      914.70   916.41   917.16   923.73   924.35   926.30
eigval :      927.07   929.23   932.64   933.66   934.91   936.17
eigval :      945.77   954.59   972.44   975.48  1007.95  1022.59
eigval :     1032.73  1078.31  1078.75  1082.05  1091.38  1101.39
eigval :     1104.48  1113.34  1113.67  1115.31  1121.37  1124.40
eigval :     1124.88  1127.20  1127.71  1133.01  1137.12  1145.90
eigval :     1169.61  1180.18  1180.28  1180.98  1181.38  1182.28
eigval :     1189.10  1190.93  1193.18  1196.39  1198.49  1214.12
eigval :     1232.06  1233.28  1253.62  1255.96  1261.17  1264.35
eigval :     1268.21  1269.43  1273.90  1283.76  1289.93  1295.85
eigval :     1297.01  1311.38  1315.64  1321.53  1321.84  1329.46
eigval :     1331.99  1339.86  1342.63  1364.53  1373.52  1376.52
eigval :     1376.88  1389.90  1405.67  1408.06  1412.23  1424.22
eigval :     1425.14  1427.39  1454.10  1454.57  1457.17  1465.70
eigval :     1473.93  1481.17  1484.38  1485.26  1517.94  1531.35
eigval :     1539.44  1539.99  1554.84  1558.52  1562.88  1569.61
eigval :     1576.60  1583.01  1583.82  1583.95  1586.91  1587.73
eigval :     1597.88  3063.28  3065.01  3065.39  3066.28  3066.85
eigval :     3073.83  3074.07  3074.22  3076.63  3076.99  3077.26
eigval :     3078.43  3078.71  3078.90  3080.25  3083.50  3083.59
eigval :     3083.77  3085.88  3087.21  3087.49  3091.07  3091.29
eigval :     3092.01  3092.61  3095.53  3095.99  3097.28  3100.23
eigval :     3100.64  3102.39  3116.31

   temp. (K)  partition function   enthalpy   heat capacity  entropy
                                   cal/mol     cal/K/mol   cal/K/mol   J/K/mol
 298.15  VIB  0.102E+22            25243.916    156.658    159.038
         ROT  0.148E+09              888.752      2.981     40.369
         INT  0.151E+30            26132.669    159.639    199.408
         TR   0.178E+29             1481.254      4.968     45.488
         TOT                       27613.9226   164.6073   244.8960  1024.6447

       T/K    H(0)-H(T)+PV         H(T)/Eh          T*S/Eh         G(T)/Eh
   ------------------------------------------------------------------------
    298.15    0.440056E-01    0.685480E+00    0.116358E+00    0.569122E+00
   ------------------------------------------------------------------------

         :::::::::::::::::::::::::::::::::::::::::::::::::::::
         ::                  THERMODYNAMIC                  ::
         :::::::::::::::::::::::::::::::::::::::::::::::::::::
         :: total free energy        -133.900474560269 Eh   ::
         ::.................................................::
         :: total energy             -134.469596655457 Eh   ::
         :: zero point energy           0.641474482986 Eh   ::
         :: G(RRHO) w/o ZPVE           -0.072352387799 Eh   ::
         :: G(RRHO) contrib.            0.569122095188 Eh   ::
         :::::::::::::::::::::::::::::::::::::::::::::::::::::

           -------------------------------------------------
          | TOTAL ENERGY             -134.469596655457 Eh   |
          | TOTAL ENTHALPY           -133.784116585781 Eh   |
          | TOTAL FREE ENERGY        -133.900474560269 Eh   |
          | GRADIENT NORM               0.000068348388 Eh/α |
           -------------------------------------------------

 * finished run on 2025/08/25 at 07:40:18.855
