   * xtb version 6.7.1 (edcfbbe) compiled by 'albert@albert-system' on 2024-07-22

   ID    Z sym.   atoms
    1    7 N      1, 6, 19, 35, 50, 60, 65
    2    6 C      2-5, 7-18, 20-34, 36-49, 51-59, 61-64
    3    1 H      66-98

          program call               : xtb data2507/toluene/6,7-DCNQx-DICz/6,7-DCNQx-DICz_toluene_S0_crest.xyz --gfn 2 --gbsa toluene --ohess vtight --parallel 40 --molden --ceasefiles --namespace data2507/toluene/6,7-DCNQx-DICz/6,7-DCNQx-DICz_toluene_S0_finalOpt
      * Solvation model:               GBSA
        Solvent                        toluene
        Solvent mass                       9.2140E+01 g/mol
          :  Hamiltonian                  GFN2-xTB          :
 * total energy  :  -161.5949517 Eh     change       -0.4501061E-08 Eh
 * total energy  :  -161.5950057 Eh     change       -0.5405410E-04 Eh
 * total energy  :  -161.5949799 Eh     change        0.2577041E-04 Eh
 * total energy  :  -161.5950486 Eh     change       -0.6868085E-04 Eh
 * total energy  :  -161.5950775 Eh     change       -0.2887736E-04 Eh
 * total energy  :  -161.5949872 Eh     change        0.9029173E-04 Eh
 * total energy  :  -161.5950927 Eh     change       -0.1054897E-03 Eh
 * total energy  :  -161.5951209 Eh     change       -0.2822549E-04 Eh
 * total energy  :  -161.5951316 Eh     change       -0.1068336E-04 Eh
 * total energy  :  -161.5951428 Eh     change       -0.1124322E-04 Eh
 * total energy  :  -161.5951884 Eh     change        0.9302787E-06 Eh
 * total energy  :  -161.5951894 Eh     change       -0.1033187E-05 Eh
 * total energy  :  -161.5951894 Eh     change        0.4851378E-07 Eh
 * total energy  :  -161.5951893 Eh     change        0.3055703E-08 Eh
 * total energy  :  -161.5951895 Eh     change       -0.1322333E-06 Eh
 * total energy  :  -161.5951895 Eh     change       -0.1236884E-08 Eh
 * total energy  :  -161.5951895 Eh     change       -0.1767356E-07 Eh
 * total energy  :  -161.5951896 Eh     change       -0.1089400E-06 Eh
 * total energy  :  -161.5951897 Eh     change       -0.9251650E-07 Eh
   *** GEOMETRY OPTIMIZATION CONVERGED AFTER 57 ITERATIONS ***

 final structure:
================
98
 xtb: 6.7.1 (edcfbbe)
N           11.42954568398567        2.40528861155605        0.65278154772198
C           10.32665590049114        2.09156145110423        0.66772122211800
C            8.97078491912542        1.69090836567408        0.67889882685819
C            8.61292656878636        0.44523733390703        0.21100349663588
C            7.26316859739694        0.05534942503410        0.23679128165714
N            6.91550547888549       -1.19713664457297       -0.11815761396242
C            5.64903838339888       -1.53293413468740       -0.10801312701646
C            5.33775245165512       -2.94598047647830       -0.33398402835983
C            4.33402761842849       -3.58929006857496        0.39065903530847
C            4.07577112255220       -4.92964288678511        0.17474948814557
C            4.80727422527138       -5.64049679608913       -0.76412553482473
C            5.81820491401879       -5.01148720527234       -1.47377058543933
C            6.09069060387939       -3.67452242331335       -1.25439448124994
C            4.63344883184825       -0.54178353070618        0.15748189403901
C            3.21361353079979       -0.78144034906745       -0.08457499691504
C            2.77967598327319       -1.50859072000269       -1.19477841969020
C            1.43354640809847       -1.70465876163432       -1.41818363449337
C            0.49034791510419       -1.18700178965515       -0.52925049814053
N           -0.87127628692918       -1.42501515488322       -0.71800446713775
C           -1.42347671302824       -2.69378988002646       -0.79486830204528
C           -0.79311227689975       -3.91198081609175       -0.99451391470112
C           -1.58177925867087       -5.04266848376898       -1.09480674546160
C           -2.96793728680185       -4.95497190612846       -1.01740262238831
C           -3.59563765502242       -3.75007364114399       -0.77008700340823
C           -2.82211166035131       -2.60511150543050       -0.60318519994028
C           -3.10967250020921       -1.22053812538900       -0.33234828509366
C           -4.23627987155194       -0.49794924300987        0.09190346054576
C           -4.21645767397233        0.91624481624596        0.16153126925309
C           -5.48262159521552        1.31796212250418        0.71350610804216
C           -6.02774748286531        2.52119187927187        1.15514674073307
C           -7.29713527793420        2.52732234319127        1.69697495020426
C           -8.02984661624225        1.35190994651200        1.83877636836876
C           -7.49479811004545        0.13626269108469        1.46161968615797
C           -6.22594329811779        0.12952526074283        0.90155624142735
N           -5.46326279496005       -0.95592415782433        0.51574078645244
C           -5.79765461656635       -2.26957621496803        0.89845646690500
C           -6.95194342796554       -2.86529060524623        0.40121258180561
C           -7.30029624293089       -4.13964914529250        0.81339206661804
C           -6.50339582500861       -4.82214278077646        1.71798928441470
C           -5.35581597412505       -4.22655208759273        2.21587838628708
C           -5.00273201779835       -2.95145157245821        1.81435459790102
C           -3.06352660154054        1.58722214726085       -0.27668310045001
C           -1.86873976733028        0.88315925692664       -0.56478508377718
C           -0.90239760456800        1.86751382584158       -0.97680056745055
C            0.38974656715893        1.82637672826922       -1.49554689114855
C            1.01503019321780        3.00535768421184       -1.84802610142388
C            0.36835912348655        4.23203384768558       -1.72790392306246
C           -0.93067031079009        4.30156475502287       -1.26568208335032
C           -1.55394858581786        3.12049212993642       -0.89079881946892
N           -2.85416649973085        2.93481891487851       -0.46417165015172
C           -3.83627744051171        3.93282101468728       -0.60830700414831
C           -4.89808012137218        3.73890395279790       -1.48647109679498
C           -5.84093909209473        4.73567918049821       -1.65623020061199
C           -5.72546741949522        5.93083290475249       -0.96474864242023
C           -4.66494085122267        6.12675503402345       -0.09522444821060
C           -3.71993755263653        5.13229537587255        0.08679346666401
C           -1.89412886880813       -0.51909620101644       -0.49891896545797
C            0.92080574826129       -0.44300700829188        0.57133402351094
C            2.26523402221162       -0.23045088185893        0.77971339369762
N            4.96716259800536        0.64240606573860        0.61354735542600
C            6.27123055567838        0.96272365647733        0.70624619516568
C            6.65321148967975        2.22281693747830        1.19981537228444
C            7.98210007974794        2.58485130298948        1.18614036208649
C            8.38055961306180        3.85422939877761        1.66623833544749
N            8.69629439580961        4.88432498080350        2.05866695775066
H            9.35414480037598       -0.24528484032847       -0.16140811635706
H            3.77428302660236       -3.04508202452082        1.13690465982034
H            3.30048723449682       -5.42136810219454        0.74328797832752
H            4.59514812982676       -6.68513797601577       -0.93574390121625
H            6.39770097524368       -5.56494389690041       -2.19746547739917
H            6.87679773551385       -3.17275525421971       -1.79791406143890
H            3.49837547341005       -1.89102451239834       -1.90377927939474
H            1.10301780268790       -2.22882850135779       -2.30146349753593
H            0.28034699163639       -3.98355808733069       -1.07311843902782
H           -1.11502127721269       -6.00284770747183       -1.25787206011212
H           -3.56496608906778       -5.84565010263597       -1.14739154429080
H           -4.67038834833355       -3.70595409803452       -0.72983877070545
H           -5.46896438702052        3.43932835629656        1.10178281076989
H           -7.72421930125024        3.46176509404070        2.03095863741180
H           -9.01876333654483        1.38796730087621        2.27191586913068
H           -8.04040556254611       -0.78220639910745        1.61635331667666
H           -7.55992842795865       -2.33244722896159       -0.31529354538707
H           -8.19459546550721       -4.60193733161996        0.42200059189661
H           -6.77735530316552       -5.81729773795789        2.03482041040541
H           -4.73460261534075       -4.75517651837782        2.92340469523687
H           -4.11260753824588       -2.47824280121994        2.20126282928490
H            0.90283796208092        0.89325281707442       -1.64756967135311
H            2.02160504007581        2.97252652164170       -2.23957129770283
H            0.88022260371280        5.13729572722012       -2.01986300919262
H           -1.45105779101621        5.24582655993637       -1.21714695569497
H           -4.97765724854544        2.80646220808220       -2.02523062737034
H           -6.66541706768884        4.58066512304734       -2.33611898929270
H           -6.46155170141898        6.70868866815507       -1.10213471589856
H           -4.57440388241405        7.05549096333000        0.44881544598648
H           -2.90133761085295        5.27113987210683        0.77774130748817
H            0.19068127855185       -0.03211505541162        1.25146028774797
H            2.60481327115404        0.34514572549090        1.62662539091667
H            5.89342327719884        2.89726121337768        1.56409440132043

          :  Hamiltonian                  GFN2-xTB          :
         :: gradient norm              0.000122962960 Eh/a0 ::
         :: HOMO-LUMO gap              0.708697298388 eV    ::
         :: SCC energy              -164.652886910918 Eh    ::
         :: -> dispersion             -0.158776993617 Eh    ::
         :: -> Gsolv                  -0.069275118380 Eh    ::
         :: repulsion energy           3.057697206263 Eh    ::

    * Orbital Energies and Occupations

         #    Occupation            Energy/Eh            Energy/eV
      -------------------------------------------------------------
         1        2.0000           -0.7048211             -19.1792
       ...           ...                  ...                  ...
       138        2.0000           -0.4165643             -11.3353
       139        2.0000           -0.4132363             -11.2447
       140        2.0000           -0.4125151             -11.2251
       141        2.0000           -0.4071713             -11.0797
       142        2.0000           -0.4064770             -11.0608
       143        2.0000           -0.4052285             -11.0268
       144        2.0000           -0.3950754             -10.7505
       145        2.0000           -0.3919888             -10.6666
       146        2.0000           -0.3910994             -10.6424
       147        2.0000           -0.3777722             -10.2797
       148        2.0000           -0.3729423             -10.1483
       149        2.0000           -0.3541405              -9.6367
       150        2.0000           -0.3529626              -9.6046 (HOMO)
       151        0.0000           -0.3269185              -8.8959 (LUMO)
       152                         -0.3105047              -8.4493
       153                         -0.2708335              -7.3698
       154                         -0.2615815              -7.1180
       155                         -0.2467904              -6.7155
       156                         -0.2457082              -6.6861
       157                         -0.2448443              -6.6626
       158                         -0.2371145              -6.4522
       159                         -0.2340938              -6.3700
       160                         -0.2340482              -6.3688
       161                         -0.2327393              -6.3332
       ...                                ...                  ...
       293                          1.1608483              31.5883
      -------------------------------------------------------------
                  HL-Gap            0.0260442 Eh            0.7087 eV

     #   Z          covCN         q      C6AA      α(0)
     1   7 N        0.911    -0.240    26.261     7.412
     2   6 C        1.911     0.120    28.140     8.567
     3   6 C        2.975     0.023    27.495     8.601
     4   6 C        2.926    -0.028    28.707     8.787
     5   6 C        2.961     0.083    26.150     8.388
     6   7 N        1.852    -0.238    27.081     7.713
     7   6 C        2.948     0.095    25.891     8.346
     8   6 C        2.982     0.004    27.936     8.670
     9   6 C        2.922    -0.028    28.706     8.786
    10   6 C        2.918    -0.026    28.641     8.776
    11   6 C        2.920    -0.022    28.562     8.764
    12   6 C        2.918    -0.025    28.620     8.773
    13   6 C        2.924    -0.024    28.600     8.770
    14   6 C        2.949     0.095    25.899     8.347
    15   6 C        2.981     0.000    28.012     8.682
    16   6 C        2.921    -0.027    28.680     8.782
    17   6 C        2.920    -0.041    29.014     8.833
    18   6 C        2.915     0.076    26.307     8.411
    19   7 N        2.801    -0.039    21.990     6.965
    20   6 C        3.074     0.043    26.964     8.514
    21   6 C        2.911    -0.053    29.316     8.878
    22   6 C        2.923    -0.037    28.915     8.818
    23   6 C        2.919    -0.041    29.031     8.836
    24   6 C        2.914    -0.040    28.994     8.830
    25   6 C        3.062    -0.013    28.280     8.721
    26   6 C        3.051    -0.046    29.085     8.845
    27   6 C        3.064     0.043    26.975     8.517
    28   6 C        3.055    -0.047    29.107     8.848
    29   6 C        3.059    -0.016    28.346     8.731
    30   6 C        2.914    -0.042    29.034     8.836
    31   6 C        2.919    -0.043    29.069     8.841
    32   6 C        2.923    -0.037    28.924     8.820
    33   6 C        2.910    -0.053    29.311     8.878
    34   6 C        3.086     0.045    26.900     8.502
    35   7 N        2.802    -0.047    22.145     6.989
    36   6 C        2.917     0.068    26.468     8.436
    37   6 C        2.922    -0.041    29.013     8.833
    38   6 C        2.920    -0.028    28.698     8.785
    39   6 C        2.919    -0.031    28.774     8.796
    40   6 C        2.920    -0.026    28.654     8.778
    41   6 C        2.922    -0.036    28.908     8.817
    42   6 C        3.063     0.043    26.977     8.517
    43   6 C        3.054    -0.047    29.124     8.850
    44   6 C        3.058    -0.016    28.363     8.734
    45   6 C        2.915    -0.042    29.054     8.839
    46   6 C        2.919    -0.043    29.062     8.840
    47   6 C        2.923    -0.037    28.920     8.819
    48   6 C        2.911    -0.052    29.304     8.876
    49   6 C        3.085     0.045    26.897     8.502
    50   7 N        2.802    -0.046    22.120     6.985
    51   6 C        2.917     0.069    26.466     8.436
    52   6 C        2.922    -0.037    28.915     8.818
    53   6 C        2.920    -0.026    28.653     8.778
    54   6 C        2.919    -0.031    28.780     8.797
    55   6 C        2.920    -0.028    28.701     8.785
    56   6 C        2.921    -0.041    29.023     8.835
    57   6 C        3.061     0.039    27.058     8.530
    58   6 C        2.920    -0.036    28.888     8.814
    59   6 C        2.924    -0.022    28.546     8.762
    60   7 N        1.852    -0.239    27.106     7.716
    61   6 C        2.960     0.084    26.132     8.385
    62   6 C        2.925    -0.028    28.708     8.787
    63   6 C        2.974     0.023    27.482     8.599
    64   6 C        1.911     0.121    28.136     8.566
    65   7 N        0.911    -0.239    26.245     7.409
    66   1 H        0.926     0.072     2.063     2.246
    67   1 H        0.926     0.034     2.527     2.486
    68   1 H        0.926     0.046     2.365     2.405
    69   1 H        0.926     0.049     2.336     2.390
    70   1 H        0.926     0.048     2.343     2.394
    71   1 H        0.926     0.049     2.332     2.388
    72   1 H        0.926     0.042     2.429     2.437
    73   1 H        0.926     0.055     2.252     2.347
    74   1 H        0.926     0.032     2.555     2.500
    75   1 H        0.926     0.031     2.578     2.511
    76   1 H        0.926     0.027     2.629     2.535
    77   1 H        0.926     0.029     2.598     2.521
    78   1 H        0.926     0.028     2.620     2.531
    79   1 H        0.926     0.024     2.667     2.554
    80   1 H        0.926     0.027     2.625     2.534
    81   1 H        0.926     0.028     2.610     2.526
    82   1 H        0.926     0.042     2.417     2.431
    83   1 H        0.926     0.041     2.437     2.441
    84   1 H        0.926     0.040     2.445     2.445
    85   1 H        0.926     0.040     2.446     2.446
    86   1 H        0.926     0.038     2.479     2.462
    87   1 H        0.926     0.025     2.660     2.550
    88   1 H        0.926     0.021     2.711     2.575
    89   1 H        0.926     0.027     2.631     2.537
    90   1 H        0.926     0.030     2.593     2.518
    91   1 H        0.926     0.039     2.469     2.457
    92   1 H        0.926     0.040     2.446     2.446
    93   1 H        0.926     0.040     2.449     2.447
    94   1 H        0.926     0.040     2.443     2.444
    95   1 H        0.926     0.042     2.418     2.432
    96   1 H        0.926     0.053     2.289     2.366
    97   1 H        0.926     0.055     2.254     2.348
    98   1 H        0.926     0.072     2.063     2.246

molecular dipole:
                 x           y           z       tot (Debye)
 q only:       -3.584      -2.793      -0.600
   full:       -3.989      -3.169      -0.702      13.070

 projected vibrational frequencies (cm⁻¹)
eigval :       -0.00    -0.00     0.00     0.00     0.00     0.00
eigval :        5.10    11.23    14.66    24.33    25.28    28.06
eigval :       31.26    37.63    46.79    49.83    52.01    59.04
eigval :       60.25    69.31    71.28    75.75    83.50    87.12
eigval :       98.22    99.28   101.47   112.33   118.29   125.25
eigval :      139.06   149.65   156.54   164.71   172.10   186.11
eigval :      193.97   201.86   217.91   227.83   229.35   234.44
eigval :      235.35   241.24   251.17   273.34   277.99   292.14
eigval :      294.44   308.79   312.06   339.44   351.97   357.57
eigval :      371.00   375.97   378.56   379.00   382.72   386.20
eigval :      390.14   390.61   400.78   408.66   411.03   421.28
eigval :      429.74   438.68   443.29   449.61   452.36   465.64
eigval :      472.97   477.53   485.98   502.74   521.43   537.97
eigval :      539.87   542.95   545.18   550.04   555.74   558.75
eigval :      574.13   581.66   583.44   585.03   590.58   592.31
eigval :      594.57   604.47   608.10   612.46   624.00   628.79
eigval :      639.00   646.60   650.92   654.16   665.65   668.16
eigval :      670.34   675.79   680.83   694.12   698.30   699.09
eigval :      701.99   708.84   728.08   729.40   739.26   747.83
eigval :      751.46   758.88   765.20   767.71   770.32   772.28
eigval :      772.53   774.95   819.57   844.97   845.74   847.58
eigval :      859.42   863.49   865.40   865.95   866.77   871.12
eigval :      872.86   875.92   877.72   878.70   898.55   899.57
eigval :      902.46   902.98   904.62   905.75   911.93   912.59
eigval :      915.68   918.18   921.44   921.90   926.83   928.02
eigval :      928.27   930.85   931.42   933.56   933.76   934.22
eigval :      952.57   985.70   987.38   995.64  1012.24  1024.55
eigval :     1077.18  1077.32  1078.48  1078.52  1079.55  1083.87
eigval :     1090.46  1091.07  1091.79  1115.43  1115.87  1116.80
eigval :     1120.76  1134.09  1142.59  1145.70  1148.23  1168.45
eigval :     1177.10  1177.35  1177.91  1179.07  1180.10  1182.29
eigval :     1183.74  1187.55  1189.06  1189.61  1193.74  1208.66
eigval :     1213.77  1214.66  1245.36  1248.76  1250.31  1257.85
eigval :     1263.01  1266.76  1271.52  1272.86  1274.21  1277.36
eigval :     1289.03  1294.85  1297.05  1313.03  1313.26  1316.99
eigval :     1319.28  1325.37  1327.71  1332.04  1340.17  1359.22
eigval :     1363.86  1365.02  1381.58  1386.49  1390.55  1391.95
eigval :     1395.94  1407.40  1420.56  1427.37  1427.98  1431.77
eigval :     1433.13  1434.99  1437.12  1438.18  1449.47  1468.79
eigval :     1472.75  1474.10  1477.85  1478.81  1481.69  1489.14
eigval :     1495.46  1509.46  1548.86  1563.81  1566.62  1567.05
eigval :     1575.13  1580.39  1580.85  1583.13  1583.49  1588.02
eigval :     1589.12  1590.98  1592.17  1592.59  1599.07  1601.65
eigval :     1602.69  2365.61  2367.32  3070.43  3071.46  3073.62
eigval :     3076.46  3076.58  3078.87  3079.43  3079.71  3079.98
eigval :     3080.32  3081.55  3083.80  3086.55  3086.75  3087.74
eigval :     3089.29  3090.57  3090.82  3090.95  3092.59  3094.42
eigval :     3096.17  3097.78  3097.90  3099.64  3099.95  3101.06
eigval :     3101.58  3103.51  3106.55  3131.24  3137.18  3142.35

   temp. (K)  partition function   enthalpy   heat capacity  entropy
                                   cal/mol     cal/K/mol   cal/K/mol   J/K/mol
 298.15  VIB  0.257E+24            29839.090    187.144    186.849
         ROT  0.202E+09              888.752      2.981     40.985
         INT  0.520E+32            30727.842    190.125    227.834
         TR   0.230E+29             1481.254      4.968     45.998
         TOT                       32209.0958   195.0930   273.8317  1145.7118

       T/K    H(0)-H(T)+PV         H(T)/Eh          T*S/Eh         G(T)/Eh
   ------------------------------------------------------------------------
    298.15    0.513285E-01    0.778391E+00    0.130106E+00    0.648284E+00
   ------------------------------------------------------------------------

         :::::::::::::::::::::::::::::::::::::::::::::::::::::
         ::                  THERMODYNAMIC                  ::
         :::::::::::::::::::::::::::::::::::::::::::::::::::::
         :: total free energy        -160.946905269723 Eh   ::
         ::.................................................::
         :: total energy             -161.595189705723 Eh   ::
         :: zero point energy           0.727062247112 Eh   ::
         :: G(RRHO) w/o ZPVE           -0.078777811113 Eh   ::
         :: G(RRHO) contrib.            0.648284435999 Eh   ::
         :::::::::::::::::::::::::::::::::::::::::::::::::::::

           -------------------------------------------------
          | TOTAL ENERGY             -161.595189705723 Eh   |
          | TOTAL ENTHALPY           -160.816798997290 Eh   |
          | TOTAL FREE ENERGY        -160.946905269723 Eh   |
          | GRADIENT NORM               0.000122409192 Eh/α |
          | HOMO-LUMO GAP               0.708697900993 eV   |
           -------------------------------------------------

 * finished run on 2025/09/04 at 19:27:32.314
