   * xtb version 6.7.1 (edcfbbe) compiled by 'albert@albert-system' on 2024-07-22

   ID    Z sym.   atoms
    1    7 N      1, 6, 19, 35, 50, 60, 65
    2    6 C      2-5, 7-18, 20-34, 36-49, 51-59, 61-64
    3    1 H      66-98

          program call               : xtb data2507/toluene/6,7-DCNQx-DICz/6,7-DCNQx-DICz.xyz --gfn 2 --gbsa toluene --ohess vtight --parallel 40 --molden --ceasefiles --namespace data2507/toluene/6,7-DCNQx-DICz/6,7-DCNQx-DICz_toluene_S0_preOpt
      * Solvation model:               GBSA
        Solvent                        toluene
        Solvent mass                       9.2140E+01 g/mol
          :  Hamiltonian                  GFN2-xTB          :
 * total energy  :  -161.5489209 Eh     change       -0.4441972E-08 Eh
 * total energy  :  -161.5777835 Eh     change       -0.2886260E-01 Eh
 * total energy  :  -161.5853493 Eh     change       -0.7565748E-02 Eh
 * total energy  :  -161.5874889 Eh     change       -0.2139623E-02 Eh
 * total energy  :  -161.5887527 Eh     change       -0.1263787E-02 Eh
 * total energy  :  -161.5895949 Eh     change       -0.8422265E-03 Eh
 * total energy  :  -161.5901608 Eh     change       -0.5659135E-03 Eh
 * total energy  :  -161.5902142 Eh     change       -0.5333329E-04 Eh
 * total energy  :  -161.5911258 Eh     change       -0.9116714E-03 Eh
 * total energy  :  -161.5914859 Eh     change       -0.3600544E-03 Eh
 * total energy  :  -161.5943366 Eh     change       -0.2713473E-06 Eh
 * total energy  :  -161.5943369 Eh     change       -0.2710325E-06 Eh
 * total energy  :  -161.5943371 Eh     change       -0.2762503E-06 Eh
 * total energy  :  -161.5943374 Eh     change       -0.2862547E-06 Eh
 * total energy  :  -161.5943377 Eh     change       -0.2805891E-06 Eh
 * total energy  :  -161.5943380 Eh     change       -0.2761919E-06 Eh
 * total energy  :  -161.5943382 Eh     change       -0.2679193E-06 Eh
 * total energy  :  -161.5943385 Eh     change       -0.2628190E-06 Eh
 * total energy  :  -161.5943385 Eh     change       -0.2618293E-08 Eh
   *** GEOMETRY OPTIMIZATION CONVERGED AFTER 122 ITERATIONS ***

 final structure:
================
98
 xtb: 6.7.1 (edcfbbe)
N           12.08932906253200        2.25371313609727       -0.85849603587655
C           11.03398437245352        1.81443550812442       -0.94912509322801
C            9.73136467290328        1.27300217110885       -1.04619239776733
C            9.05865816148955        0.87807169076106        0.08950841569706
C            7.76908789004016        0.33082843034366       -0.02280077139519
N            7.15167808949251       -0.17407258688232        1.06230357297521
C            5.94121791431828       -0.66095302595678        0.93948561241879
C            5.39342884585529       -1.36918242194669        2.09729155506113
C            4.61564528993923       -2.51703827629649        1.94172004845181
C            4.13690903537089       -3.18458934292706        3.05294572947021
C            4.42446877525468       -2.71827085560965        4.32641687464963
C            5.21155440458017       -1.58875708579961        4.48813089912097
C            5.70153368727525       -0.92129126041499        3.38193143082485
C            5.22862296518963       -0.52939681850175       -0.30967362263119
C            3.79263401507205       -0.77025844453861       -0.43249575438917
C            3.29171140406776       -1.35132094524179       -1.59842897147259
C            1.93919643665552       -1.57718279910599       -1.74389926738033
C            1.05594764191185       -1.19392439244937       -0.73519384539586
N           -0.31430743492907       -1.43914199524539       -0.86670852363997
C           -0.83829030146379       -2.71660817302485       -0.96317314235041
C           -0.16839776952399       -3.90895765754237       -1.19004175680256
C           -0.90116056855983       -5.07967164150779       -1.17283139223310
C           -2.26490346285362       -5.05899175235331       -0.89898530051642
C           -2.92880988511644       -3.87505064995923       -0.64576890833021
C           -2.22737992085748       -2.67359139062771       -0.70024352366041
C           -2.55109467324262       -1.29211432846589       -0.44761721699781
C           -3.70654052987669       -0.59392953154807       -0.05691725969640
C           -3.63065531709273        0.75235835890050        0.37687154252669
C           -4.90991673451141        1.06810764763690        0.95285119077140
C           -5.42029823533551        2.13649204482900        1.68563693016046
C           -6.74137949522136        2.10690297871764        2.08430239498762
C           -7.56831300293441        1.03363456153116        1.76406522596295
C           -7.07333105698867       -0.06632006345036        1.09120069137985
C           -5.73530760734796       -0.05829210188947        0.72619033163549
N           -4.99644258231253       -1.05149774878591        0.11240595658969
C           -5.58979734028282       -2.15720007825841       -0.52218226648083
C           -5.43314105710725       -2.33108742008401       -1.89455209982135
C           -6.04734925345287       -3.39496523997970       -2.52882898246375
C           -6.82923393175907       -4.28142137178248       -1.80564370086592
C           -6.98784506452821       -4.10768215535707       -0.44032647072757
C           -6.37003511517321       -3.05095318295266        0.20533939571347
C           -2.45430297685064        1.47019400038561        0.11027754846123
C           -1.29952525321867        0.82320072483460       -0.39109053785195
C           -0.32565593538112        1.85218362617726       -0.63933636214414
C            0.92373254880475        1.90116243389070       -1.25357980481904
C            1.57262436403882        3.11419240230118       -1.36698623165457
C            0.98909425425711        4.29317739203613       -0.91106042476514
C           -0.27392864251707        4.28574143553569       -0.35320679971749
C           -0.92082053299106        3.06582895941283       -0.22213041190603
N           -2.20070540067716        2.81789058036926        0.23391141773997
C           -3.14289625219469        3.85376074705874        0.38813856569192
C           -4.23180178033695        3.93772253159855       -0.47345728067544
C           -5.13142348960311        4.97971017583388       -0.34490949105417
C           -4.94545823209469        5.94558296254821        0.63080510431777
C           -3.85635434630786        5.86690969740624        1.48334129521965
C           -2.95391873999856        4.82429800356338        1.36622275446616
C           -1.33921312779428       -0.57100244166392       -0.54962485105946
C            1.55003749406080       -0.58814661899093        0.42054070960835
C            2.90395369580441       -0.38228541829188        0.57194237085197
N            5.86286629034614       -0.15484173901115       -1.39492296049798
C            7.14736418709555        0.23673709606950       -1.30053731932992
C            7.85457544410218        0.62152200315769       -2.45306339272534
C            9.12802901741149        1.13238197670359       -2.33089128914060
C            9.84988412740968        1.53057044156151       -3.48002933667876
N           10.42952714932490        1.84800821716183       -4.41710987315848
H            9.51274881277012        0.96267031967064        1.06499027298165
H            4.40742808169407       -2.89792856812588        0.95301298570914
H            3.53889178788798       -4.07430932132220        2.92400416916887
H            4.04219215101797       -3.23955945764204        5.19117154680214
H            5.44625391486552       -1.22911392648153        5.47880712040264
H            6.31662700581279       -0.04127680997613        3.49264357532198
H            3.98054087363858       -1.62706816292490       -2.38203973911663
H            1.55465018742681       -2.01901919523710       -2.65073682224063
H            0.89754732216010       -3.92834570713398       -1.35695515247792
H           -0.40573919160058       -6.02199119253522       -1.35490532063317
H           -2.81388185560398       -5.98876643718866       -0.86704828291404
H           -3.97394970676312       -3.89959288651051       -0.39463750549013
H           -4.79712606187194        2.96941958666255        1.96329110030553
H           -7.14153389452150        2.93356715593401        2.65305373957240
H           -8.60572494577325        1.05106102110068        2.06456658975427
H           -7.71073933507621       -0.90641587834427        0.86174632384348
H           -4.82432672920562       -1.63411561880363       -2.45115029503682
H           -5.92016375351509       -3.52818892848954       -3.59286548701127
H           -7.31198784582457       -5.10827730862529       -2.30458100259144
H           -7.59000563667582       -4.80145073537442        0.12781797483101
H           -6.46909226894316       -2.92613815952771        1.27343855803196
H            1.38005151178490        1.01783508040719       -1.66550768902807
H            2.54607444953290        3.15041670901402       -1.83495718479338
H            1.51899395576071        5.22818853150557       -1.01958507507134
H           -0.75081730576196        5.20467225358952       -0.04784585083256
H           -4.36611626151993        3.18414600150041       -1.23500926062641
H           -5.97797206655746        5.03975052671522       -1.01255380588095
H           -5.64844816771336        6.75938517091205        0.72691691567395
H           -3.71013041073248        6.61716603746529        2.24653156738506
H           -2.11024083491244        4.74784231446906        2.03661041652377
H            0.86317700744858       -0.28064504832794        1.19369261605243
H            3.27424161381669        0.09897255388525        1.46428382274080
H            7.37985141033935        0.52877810059210       -3.41791371479683

          :  Hamiltonian                  GFN2-xTB          :
         :: gradient norm              0.000031583651 Eh/a0 ::
         :: HOMO-LUMO gap              0.705242793857 eV    ::
         :: SCC energy              -164.652033707944 Eh    ::
         :: -> dispersion             -0.157853786010 Eh    ::
         :: -> Gsolv                  -0.069287580668 Eh    ::
         :: repulsion energy           3.057695200816 Eh    ::

    * Orbital Energies and Occupations

         #    Occupation            Energy/Eh            Energy/eV
      -------------------------------------------------------------
         1        2.0000           -0.7051206             -19.1873
       ...           ...                  ...                  ...
       138        2.0000           -0.4169343             -11.3454
       139        2.0000           -0.4134709             -11.2511
       140        2.0000           -0.4125875             -11.2271
       141        2.0000           -0.4074028             -11.0860
       142        2.0000           -0.4069470             -11.0736
       143        2.0000           -0.4049554             -11.0194
       144        2.0000           -0.3953456             -10.7579
       145        2.0000           -0.3920493             -10.6682
       146        2.0000           -0.3915105             -10.6535
       147        2.0000           -0.3785068             -10.2997
       148        2.0000           -0.3729486             -10.1484
       149        2.0000           -0.3540706              -9.6348
       150        2.0000           -0.3530555              -9.6071 (HOMO)
       151        0.0000           -0.3271383              -8.9019 (LUMO)
       152                         -0.3106904              -8.4543
       153                         -0.2710866              -7.3766
       154                         -0.2616781              -7.1206
       155                         -0.2470315              -6.7221
       156                         -0.2460153              -6.6944
       157                         -0.2451042              -6.6696
       158                         -0.2369550              -6.4479
       159                         -0.2342859              -6.3752
       160                         -0.2341622              -6.3719
       161                         -0.2327573              -6.3336
       ...                                ...                  ...
       293                          1.1607690              31.5861
      -------------------------------------------------------------
                  HL-Gap            0.0259172 Eh            0.7052 eV

     #   Z          covCN         q      C6AA      α(0)
     1   7 N        0.911    -0.239    26.254     7.411
     2   6 C        1.911     0.120    28.139     8.567
     3   6 C        2.975     0.023    27.491     8.600
     4   6 C        2.925    -0.028    28.703     8.786
     5   6 C        2.960     0.083    26.148     8.387
     6   7 N        1.852    -0.237    27.051     7.709
     7   6 C        2.948     0.095    25.892     8.346
     8   6 C        2.981     0.003    27.941     8.671
     9   6 C        2.922    -0.028    28.704     8.786
    10   6 C        2.918    -0.025    28.638     8.776
    11   6 C        2.920    -0.022    28.554     8.763
    12   6 C        2.918    -0.025    28.618     8.772
    13   6 C        2.925    -0.024    28.598     8.770
    14   6 C        2.948     0.095    25.889     8.345
    15   6 C        2.981     0.002    27.985     8.678
    16   6 C        2.924    -0.024    28.596     8.769
    17   6 C        2.920    -0.039    28.971     8.827
    18   6 C        2.916     0.076    26.307     8.411
    19   7 N        2.801    -0.039    22.000     6.966
    20   6 C        3.078     0.043    26.956     8.512
    21   6 C        2.911    -0.053    29.313     8.878
    22   6 C        2.923    -0.037    28.914     8.818
    23   6 C        2.919    -0.042    29.036     8.836
    24   6 C        2.915    -0.042    29.041     8.837
    25   6 C        3.059    -0.013    28.290     8.722
    26   6 C        3.050    -0.046    29.087     8.845
    27   6 C        3.063     0.043    26.983     8.518
    28   6 C        3.055    -0.046    29.094     8.846
    29   6 C        3.061    -0.016    28.345     8.731
    30   6 C        2.914    -0.041    29.014     8.833
    31   6 C        2.919    -0.043    29.071     8.842
    32   6 C        2.923    -0.037    28.927     8.820
    33   6 C        2.910    -0.053    29.317     8.878
    34   6 C        3.081     0.045    26.905     8.503
    35   7 N        2.802    -0.046    22.130     6.987
    36   6 C        2.915     0.069    26.462     8.435
    37   6 C        2.922    -0.038    28.938     8.822
    38   6 C        2.919    -0.026    28.659     8.779
    39   6 C        2.919    -0.032    28.787     8.798
    40   6 C        2.920    -0.028    28.699     8.785
    41   6 C        2.921    -0.041    29.029     8.835
    42   6 C        3.063     0.043    26.970     8.516
    43   6 C        3.056    -0.049    29.157     8.855
    44   6 C        3.059    -0.017    28.371     8.735
    45   6 C        2.914    -0.043    29.066     8.841
    46   6 C        2.919    -0.044    29.087     8.844
    47   6 C        2.923    -0.038    28.935     8.821
    48   6 C        2.910    -0.053    29.308     8.877
    49   6 C        3.086     0.045    26.898     8.502
    50   7 N        2.802    -0.047    22.148     6.990
    51   6 C        2.917     0.069    26.466     8.436
    52   6 C        2.922    -0.036    28.897     8.815
    53   6 C        2.920    -0.026    28.650     8.777
    54   6 C        2.919    -0.031    28.770     8.796
    55   6 C        2.920    -0.028    28.699     8.785
    56   6 C        2.922    -0.041    29.015     8.833
    57   6 C        3.062     0.040    27.051     8.529
    58   6 C        2.920    -0.035    28.869     8.811
    59   6 C        2.921    -0.025    28.625     8.774
    60   7 N        1.852    -0.238    27.075     7.712
    61   6 C        2.960     0.083    26.142     8.386
    62   6 C        2.925    -0.028    28.707     8.787
    63   6 C        2.974     0.023    27.484     8.599
    64   6 C        1.911     0.121    28.137     8.567
    65   7 N        0.911    -0.239    26.246     7.409
    66   1 H        0.926     0.072     2.062     2.246
    67   1 H        0.926     0.035     2.522     2.483
    68   1 H        0.926     0.047     2.364     2.404
    69   1 H        0.926     0.049     2.335     2.389
    70   1 H        0.926     0.048     2.339     2.392
    71   1 H        0.926     0.050     2.317     2.380
    72   1 H        0.926     0.056     2.243     2.342
    73   1 H        0.926     0.057     2.240     2.340
    74   1 H        0.926     0.030     2.586     2.515
    75   1 H        0.926     0.029     2.596     2.520
    76   1 H        0.926     0.027     2.635     2.538
    77   1 H        0.926     0.031     2.574     2.509
    78   1 H        0.926     0.027     2.633     2.538
    79   1 H        0.926     0.024     2.667     2.554
    80   1 H        0.926     0.028     2.621     2.532
    81   1 H        0.926     0.030     2.592     2.517
    82   1 H        0.926     0.038     2.469     2.457
    83   1 H        0.926     0.040     2.446     2.446
    84   1 H        0.926     0.040     2.453     2.449
    85   1 H        0.926     0.040     2.444     2.445
    86   1 H        0.926     0.043     2.411     2.428
    87   1 H        0.926     0.025     2.656     2.548
    88   1 H        0.926     0.021     2.723     2.580
    89   1 H        0.926     0.026     2.641     2.542
    90   1 H        0.926     0.029     2.604     2.524
    91   1 H        0.926     0.038     2.479     2.462
    92   1 H        0.926     0.040     2.445     2.445
    93   1 H        0.926     0.040     2.443     2.444
    94   1 H        0.926     0.041     2.437     2.441
    95   1 H        0.926     0.042     2.421     2.433
    96   1 H        0.926     0.051     2.302     2.372
    97   1 H        0.926     0.042     2.428     2.437
    98   1 H        0.926     0.072     2.062     2.246

molecular dipole:
                 x           y           z       tot (Debye)
 q only:       -4.017      -1.500       1.651
   full:       -4.515      -1.685       1.873      13.142

 projected vibrational frequencies (cm⁻¹)
eigval :       -0.00    -0.00     0.00     0.00     0.00     0.00
eigval :        7.82    10.82    12.66    23.12    24.65    25.38
eigval :       30.97    40.14    46.79    51.01    53.02    55.29
eigval :       64.28    66.99    71.14    77.92    82.60    92.16
eigval :       96.92    99.97   106.91   111.59   116.79   126.75
eigval :      137.74   145.39   156.47   164.48   173.37   184.76
eigval :      198.37   206.70   211.18   222.93   225.40   234.03
eigval :      237.73   245.84   254.90   273.34   276.58   290.41
eigval :      299.45   302.19   315.35   338.12   350.43   359.72
eigval :      373.44   377.21   378.70   380.25   381.14   382.02
eigval :      388.50   390.60   401.17   408.70   412.69   423.06
eigval :      427.06   440.29   444.84   446.63   451.86   464.69
eigval :      469.41   479.87   486.47   503.28   521.45   537.11
eigval :      539.28   542.21   545.08   548.96   555.33   560.43
eigval :      574.36   580.43   581.62   585.81   590.35   592.99
eigval :      593.53   605.72   608.44   612.51   624.58   627.91
eigval :      636.28   649.74   651.09   654.78   666.97   668.30
eigval :      669.92   674.67   681.40   693.85   697.78   698.86
eigval :      703.01   709.61   728.31   729.20   739.15   747.58
eigval :      751.96   758.99   764.30   767.39   771.18   773.46
eigval :      774.40   779.38   821.06   844.69   846.39   849.23
eigval :      859.66   862.91   867.65   867.90   869.61   871.87
eigval :      874.75   875.48   876.20   879.32   898.33   899.80
eigval :      902.53   904.97   906.00   909.84   912.14   912.79
eigval :      918.47   920.33   922.21   925.21   926.41   927.97
eigval :      928.38   930.10   931.20   932.00   932.78   934.52
eigval :      952.58   985.34   987.79   995.35  1012.35  1024.57
eigval :     1076.98  1077.48  1077.77  1078.28  1079.33  1083.73
eigval :     1090.14  1090.99  1092.07  1114.52  1115.22  1116.25
eigval :     1120.79  1132.46  1143.07  1146.73  1147.77  1168.64
eigval :     1176.37  1177.10  1179.03  1179.16  1179.65  1182.96
eigval :     1183.09  1187.33  1188.62  1188.93  1193.49  1208.55
eigval :     1214.07  1214.48  1245.36  1249.50  1250.58  1257.19
eigval :     1262.27  1267.00  1271.23  1272.41  1272.96  1277.46
eigval :     1291.25  1294.67  1296.85  1312.49  1313.36  1317.05
eigval :     1319.89  1325.41  1328.71  1332.80  1338.84  1359.70
eigval :     1364.21  1365.56  1381.28  1386.84  1390.56  1391.63
eigval :     1396.41  1406.30  1420.49  1427.62  1428.41  1431.91
eigval :     1432.86  1434.93  1437.12  1438.14  1449.94  1468.56
eigval :     1473.26  1474.31  1477.30  1478.88  1481.07  1489.26
eigval :     1497.24  1508.38  1551.37  1563.56  1566.73  1566.89
eigval :     1574.91  1579.58  1581.08  1583.40  1584.67  1587.42
eigval :     1589.64  1591.22  1591.37  1592.41  1599.95  1601.07
eigval :     1602.61  2365.94  2367.27  3068.78  3072.69  3073.75
eigval :     3076.75  3077.15  3078.87  3079.34  3079.46  3079.95
eigval :     3081.93  3082.54  3082.63  3086.63  3087.60  3088.82
eigval :     3090.59  3090.72  3091.07  3091.31  3091.77  3093.19
eigval :     3093.97  3095.54  3097.97  3098.12  3100.55  3100.70
eigval :     3101.60  3102.88  3104.36  3127.66  3135.35  3153.40

   temp. (K)  partition function   enthalpy   heat capacity  entropy
                                   cal/mol     cal/K/mol   cal/K/mol   J/K/mol
 298.15  VIB  0.211E+24            29831.446    187.148    186.581
         ROT  0.196E+09              888.752      2.981     40.929
         INT  0.414E+32            30720.199    190.129    227.510
         TR   0.230E+29             1481.254      4.968     45.998
         TOT                       32201.4525   195.0969   273.5081  1144.3578

       T/K    H(0)-H(T)+PV         H(T)/Eh          T*S/Eh         G(T)/Eh
   ------------------------------------------------------------------------
    298.15    0.513163E-01    0.778453E+00    0.129953E+00    0.648500E+00
   ------------------------------------------------------------------------

         :::::::::::::::::::::::::::::::::::::::::::::::::::::
         ::                  THERMODYNAMIC                  ::
         :::::::::::::::::::::::::::::::::::::::::::::::::::::
         :: total free energy        -160.945838415371 Eh   ::
         ::.................................................::
         :: total energy             -161.594338511694 Eh   ::
         :: zero point energy           0.727136327764 Eh   ::
         :: G(RRHO) w/o ZPVE           -0.078636231441 Eh   ::
         :: G(RRHO) contrib.            0.648500096322 Eh   ::
         :::::::::::::::::::::::::::::::::::::::::::::::::::::

           -------------------------------------------------
          | TOTAL ENERGY             -161.594338511694 Eh   |
          | TOTAL ENTHALPY           -160.815885903010 Eh   |
          | TOTAL FREE ENERGY        -160.945838415371 Eh   |
          | GRADIENT NORM               0.000031591635 Eh/α |
          | HOMO-LUMO GAP               0.705243127184 eV   |
           -------------------------------------------------

 * finished run on 2025/09/04 at 19:19:15.101
