   * xtb version 6.7.1 (edcfbbe) compiled by 'albert@albert-system' on 2024-07-22

   ID    Z sym.   atoms
    1    7 N      1, 6, 19, 35, 50, 60, 65
    2    6 C      2-5, 7-18, 20-34, 36-49, 51-59, 61-64
    3    1 H      66-98

          program call               : xtb data2507/toluene/6,7-DCNQx-DICz/6,7-DCNQx-DICz_toluene_T1_crest.xyz --gfn 2 --uhf 2 --gbsa toluene --ohess vtight --parallel 40 --molden --ceasefiles --namespace data2507/toluene/6,7-DCNQx-DICz/6,7-DCNQx-DICz_toluene_T1_finalOpt
      * Solvation model:               GBSA
        Solvent                        toluene
        Solvent mass                       9.2140E+01 g/mol
          :  Hamiltonian                  GFN2-xTB          :
 * total energy  :  -161.5491623 Eh     change       -0.1366732E-06 Eh
 * total energy  :  -161.5493045 Eh     change       -0.1422375E-03 Eh
 * total energy  :  -161.5493372 Eh     change       -0.3272389E-04 Eh
 * total energy  :  -161.5494424 Eh     change       -0.1051865E-03 Eh
 * total energy  :  -161.5494580 Eh     change       -0.1557434E-04 Eh
 * total energy  :  -161.5494765 Eh     change       -0.1848035E-04 Eh
 * total energy  :  -161.5495029 Eh     change       -0.2642041E-04 Eh
 * total energy  :  -161.5495303 Eh     change       -0.2737028E-04 Eh
 * total energy  :  -161.5495476 Eh     change       -0.1735418E-04 Eh
 * total energy  :  -161.5495614 Eh     change       -0.1379614E-04 Eh
 * total energy  :  -161.5496807 Eh     change       -0.3222860E-06 Eh
 * total energy  :  -161.5496810 Eh     change       -0.3056473E-06 Eh
 * total energy  :  -161.5496813 Eh     change       -0.3053474E-06 Eh
 * total energy  :  -161.5496816 Eh     change       -0.2975936E-06 Eh
 * total energy  :  -161.5496819 Eh     change       -0.3180342E-06 Eh
 * total energy  :  -161.5496822 Eh     change       -0.3205025E-06 Eh
 * total energy  :  -161.5496825 Eh     change       -0.3483335E-06 Eh
 * total energy  :  -161.5496825 Eh     change        0.1263064E-07 Eh
 * total energy  :  -161.5496826 Eh     change       -0.5025439E-07 Eh
   *** GEOMETRY OPTIMIZATION CONVERGED AFTER 69 ITERATIONS ***

 final structure:
================
98
 xtb: 6.7.1 (edcfbbe)
N           11.48442504280076        2.22842384597187        0.11910179740078
C           10.37004009333359        1.95557581773227        0.03704220511721
C            9.01213906359181        1.60531265203358       -0.05793723325025
C            8.62303493703319        0.27093312551156        0.06847296571892
C            7.27680552468674       -0.08782009572914       -0.02761676138000
N            6.88118240379607       -1.35729152899315        0.04747008616663
C            5.59312501859678       -1.68844355007222       -0.03706506726644
C            5.27582475368205       -3.11833137944605       -0.06493293122991
C            5.98014455991097       -3.99118416746154        0.76421714744943
C            5.71565113739130       -5.34739416500198        0.73555036731466
C            4.75793566899354       -5.85249920608511       -0.12923283906274
C            4.07246183507810       -4.99390311299329       -0.97470885356264
C            4.32690409719726       -3.63599246476068       -0.94642266030941
C            4.61858462486646       -0.67756054724319       -0.13609493425149
C            3.18202730386254       -0.93451627862576       -0.06586218357443
C            2.31507114077519       -0.22354793422483       -0.89794463536090
C            0.95231344334504       -0.41854125056526       -0.82374899717370
C            0.42782048917669       -1.31555596415197        0.10360348319071
N           -0.95954701551847       -1.53518384144571        0.16432688907669
C           -1.52720085525384       -2.74771307966980       -0.17849727720646
C           -0.89435289756126       -3.95831606052976       -0.41642146260421
C           -1.67156764244238       -5.02289309875808       -0.83076467802138
C           -3.03948198310788       -4.86813052989287       -1.04084471291513
C           -3.66943333337414       -3.65946447362680       -0.81991690091753
C           -2.92257998063923       -2.58186121949389       -0.34818602527009
C           -3.19971221156129       -1.20073422708062       -0.06208102090469
C           -4.35366315856631       -0.40230017278270       -0.02358921112540
C           -4.26788812933296        1.01581001240067        0.05036750863378
C           -5.62052846245759        1.50464993106024        0.04732843380295
C           -6.21993284112645        2.75397630287424        0.19516152865219
C           -7.59755257767661        2.84448445301182        0.20140070832052
C           -8.40031530598989        1.71162696707611        0.09426676275644
C           -7.83722799261519        0.45478478654626       -0.01047897137600
C           -6.45362083454978        0.36277726788707       -0.04050950215999
N           -5.67175790813352       -0.77397011711128       -0.08405710801452
C           -6.20481530303862       -2.06068973324222        0.12967812167231
C           -7.13731552512221       -2.58529782822019       -0.75944797085727
C           -7.68896977402133       -3.83156054880842       -0.51837498518296
C           -7.31594450295905       -4.55441227366925        0.60327290632149
C           -6.38761069360665       -4.02967474323847        1.48825818464982
C           -5.83369512743270       -2.78358679987341        1.25912448302729
C           -2.99929534930114        1.59768571906490        0.20876541500540
C           -1.85522293972626        0.79168818662079        0.46346959832206
C           -0.80431900027403        1.69003368885082        0.85373352256800
C            0.47347764301404        1.53702906056046        1.38769083792255
C            1.23568349326793        2.66210471786542        1.63196295359693
C            0.75151633308337        3.93846094788638        1.35500179596089
C           -0.53635090066350        4.12370843321811        0.88949529446852
C           -1.31932500784899        2.99795604463835        0.68187238748932
N           -2.64109058733251        2.92125409154709        0.28864405151119
C           -3.34696367701374        4.02356879365575       -0.22965888347951
C           -3.81685088967015        3.98289377819757       -1.53928217599497
C           -4.47749895302174        5.07734243482774       -2.06610343369336
C           -4.66359553800295        6.21578139368004       -1.29810360670068
C           -4.19143752360064        6.25750038529195        0.00395377446851
C           -3.53390241862430        5.16544659655287        0.54323149807597
C           -1.94917956796559       -0.58667388157457        0.21802588277071
C            1.28447430071545       -2.02235884785285        0.94454509540221
C            2.64790438731256       -1.83164673707465        0.86138815599080
N            4.99940740271502        0.59683167116775       -0.26976832516502
C            6.28348221502969        0.93825682258382       -0.24116105809922
C            6.69481150820700        2.26841636432002       -0.37758533456959
C            8.04427808252871        2.60531018421112       -0.28739181612304
C            8.44441188601738        3.94766055837713       -0.41543973362439
N            8.75544250010756        5.04959670073069       -0.52162048470169
H            9.36114407444839       -0.49886174596370        0.23188526308187
H            6.72870647403937       -3.58882901669272        1.43062399178156
H            6.26229512294976       -6.01257245896732        1.38785886711311
H            4.55312731726385       -6.91248643427496       -0.15132338359853
H            3.34053614629206       -5.38541653793181       -1.66594390855295
H            3.80410647478265       -2.97322839807903       -1.62045066848130
H            2.72816677852233        0.47728071167124       -1.60683799610736
H            0.28778279336219        0.12485994838190       -1.47800107859039
H            0.17304791709385       -4.06103325916127       -0.29856899887658
H           -1.20755128121323       -5.97977711233480       -1.01689943044775
H           -3.61839463405229       -5.70671615433839       -1.39777023529671
H           -4.71836252870040       -3.55990250229280       -1.03568865324137
H           -5.63133246355063        3.64465797919663        0.31958300973134
H           -8.06144004811831        3.81383757561051        0.30659550728295
H           -9.47482820124713        1.81458655589811        0.11293473916850
H           -8.45545511343379       -0.42837527911566       -0.05105207352254
H           -7.40928806569838       -2.02482951827813       -1.64161872283397
H           -8.40857557545668       -4.23997183331630       -1.21225295756260
H           -7.74805682528473       -5.52643526439759        0.78692298339297
H           -6.09735800165261       -4.59012780800039        2.36411983633884
H           -5.11408240339804       -2.36533341941417        1.94660871753096
H            0.86424609670827        0.56491751488772        1.63406495109958
H            2.22956160580104        2.54884852725437        2.03892774094770
H            1.38375007462507        4.79649677794876        1.52791056781277
H           -0.91831540883766        5.11430801119182        0.69832826296352
H           -3.66277137184871        3.09368202985645       -2.13195076714276
H           -4.84305289859292        5.04269615374975       -3.08127636803677
H           -5.17667466783612        7.06992848578322       -1.71331461985224
H           -4.34016780054017        7.14138882884256        0.60613478259048
H           -3.18588191147153        5.18273997239967        1.56520603140880
H            0.87489484581771       -2.69778820591070        1.68055130492127
H            3.30497239744290       -2.36290681386173        1.53303414024503
H            5.95102116330953        3.03237757534898       -0.54243602215989

          :  Hamiltonian                  GFN2-xTB          :
         :: gradient norm              0.000071742020 Eh/a0 ::
         :: HOMO-LUMO gap              0.533567507463 eV    ::
         :: SCC energy              -164.601672137731 Eh    ::
         :: -> dispersion             -0.158573124289 Eh    ::
         :: -> Gsolv                  -0.079774294943 Eh    ::
         :: repulsion energy           3.051989552020 Eh    ::

    * Orbital Energies and Occupations

         #    Occupation            Energy/Eh            Energy/eV
      -------------------------------------------------------------
         1        2.0000           -0.6927000             -18.8493
       ...           ...                  ...                  ...
       139        2.0000           -0.4152067             -11.2983
       140        2.0000           -0.4141079             -11.2685
       141        2.0000           -0.4132420             -11.2449
       142        2.0000           -0.4066603             -11.0658
       143        2.0000           -0.4062296             -11.0541
       144        2.0000           -0.4035757             -10.9819
       145        2.0000           -0.4032962             -10.9742
       146        2.0000           -0.3985418             -10.8449
       147        2.0000           -0.3838320             -10.4446
       148        1.8292           -0.3659620              -9.9583
       149        1.7822           -0.3656753              -9.9505
       150        1.3886           -0.3640303              -9.9058
       151        1.0000           -0.3099226              -8.4334 (HOMO)
       152        0.0000           -0.2903143              -7.8999 (LUMO)
       153                         -0.2611245              -7.1056
       154                         -0.2596647              -7.0658
       155                         -0.2537921              -6.9060
       156                         -0.2430659              -6.6142
       157                         -0.2416073              -6.5745
       158                         -0.2402677              -6.5380
       159                         -0.2393221              -6.5123
       160                         -0.2382636              -6.4835
       161                         -0.2381654              -6.4808
       162                         -0.2361495              -6.4260
       ...                                ...                  ...
       293                          1.1753112              31.9818
      -------------------------------------------------------------
                  HL-Gap            0.0196083 Eh            0.5336 eV

     #   Z          covCN         q      C6AA      α(0)
     1   7 N        0.911    -0.286    27.371     7.567
     2   6 C        1.912     0.115    28.264     8.586
     3   6 C        2.974     0.007    27.868     8.659
     4   6 C        2.924    -0.060    29.495     8.906
     5   6 C        2.939     0.091    25.977     8.359
     6   7 N        1.853    -0.247    27.298     7.744
     7   6 C        2.934     0.078    26.262     8.405
     8   6 C        2.979     0.006    27.876     8.661
     9   6 C        2.925    -0.028    28.690     8.784
    10   6 C        2.918    -0.027    28.688     8.783
    11   6 C        2.919    -0.028    28.712     8.787
    12   6 C        2.919    -0.028    28.702     8.785
    13   6 C        2.922    -0.033    28.822     8.804
    14   6 C        2.935     0.073    26.361     8.420
    15   6 C        2.978     0.008    27.824     8.653
    16   6 C        2.925    -0.025    28.625     8.774
    17   6 C        2.919    -0.035    28.869     8.811
    18   6 C        2.917     0.064    26.576     8.454
    19   7 N        2.802    -0.023    21.687     6.917
    20   6 C        3.086     0.045    26.897     8.502
    21   6 C        2.910    -0.047    29.162     8.855
    22   6 C        2.923    -0.030    28.757     8.794
    23   6 C        2.919    -0.037    28.915     8.818
    24   6 C        2.914    -0.036    28.903     8.816
    25   6 C        3.057    -0.010    28.219     8.712
    26   6 C        3.055    -0.038    28.902     8.817
    27   6 C        3.063     0.046    26.909     8.506
    28   6 C        3.053    -0.038    28.888     8.815
    29   6 C        3.057    -0.011    28.232     8.714
    30   6 C        2.914    -0.037    28.928     8.820
    31   6 C        2.919    -0.037    28.917     8.818
    32   6 C        2.923    -0.031    28.765     8.795
    33   6 C        2.910    -0.047    29.168     8.856
    34   6 C        3.086     0.046    26.871     8.497
    35   7 N        2.802    -0.024    21.713     6.921
    36   6 C        2.917     0.064    26.559     8.451
    37   6 C        2.921    -0.039    28.980     8.828
    38   6 C        2.920    -0.026    28.652     8.778
    39   6 C        2.919    -0.028    28.706     8.786
    40   6 C        2.920    -0.024    28.609     8.771
    41   6 C        2.921    -0.036    28.889     8.814
    42   6 C        3.061     0.046    26.910     8.507
    43   6 C        3.055    -0.039    28.907     8.817
    44   6 C        3.059    -0.011    28.241     8.715
    45   6 C        2.913    -0.034    28.858     8.809
    46   6 C        2.919    -0.035    28.882     8.813
    47   6 C        2.923    -0.030    28.752     8.793
    48   6 C        2.910    -0.047    29.167     8.856
    49   6 C        3.084     0.046    26.870     8.498
    50   7 N        2.802    -0.024    21.713     6.921
    51   6 C        2.916     0.065    26.555     8.450
    52   6 C        2.922    -0.036    28.901     8.816
    53   6 C        2.920    -0.024    28.612     8.772
    54   6 C        2.919    -0.028    28.707     8.786
    55   6 C        2.920    -0.026    28.646     8.777
    56   6 C        2.921    -0.039    28.981     8.828
    57   6 C        3.061     0.045    26.928     8.510
    58   6 C        2.920    -0.039    28.968     8.826
    59   6 C        2.922    -0.030    28.757     8.794
    60   7 N        1.852    -0.248    27.318     7.747
    61   6 C        2.940     0.092    25.964     8.357
    62   6 C        2.925    -0.060    29.504     8.908
    63   6 C        2.974     0.008    27.834     8.654
    64   6 C        1.912     0.116    28.245     8.583
    65   7 N        0.911    -0.283    27.303     7.557
    66   1 H        0.926     0.043     2.405     2.425
    67   1 H        0.926     0.038     2.469     2.457
    68   1 H        0.926     0.041     2.432     2.439
    69   1 H        0.926     0.043     2.413     2.429
    70   1 H        0.926     0.041     2.430     2.438
    71   1 H        0.926     0.030     2.589     2.516
    72   1 H        0.926     0.048     2.342     2.393
    73   1 H        0.926     0.049     2.327     2.386
    74   1 H        0.926     0.038     2.476     2.461
    75   1 H        0.926     0.039     2.467     2.456
    76   1 H        0.926     0.037     2.492     2.468
    77   1 H        0.926     0.040     2.446     2.446
    78   1 H        0.926     0.039     2.460     2.452
    79   1 H        0.926     0.035     2.511     2.478
    80   1 H        0.926     0.038     2.474     2.460
    81   1 H        0.926     0.040     2.449     2.447
    82   1 H        0.926     0.048     2.346     2.395
    83   1 H        0.926     0.045     2.379     2.412
    84   1 H        0.926     0.044     2.394     2.420
    85   1 H        0.926     0.045     2.387     2.416
    86   1 H        0.926     0.043     2.414     2.430
    87   1 H        0.926     0.034     2.529     2.487
    88   1 H        0.926     0.030     2.581     2.512
    89   1 H        0.926     0.036     2.496     2.471
    90   1 H        0.926     0.042     2.428     2.437
    91   1 H        0.926     0.043     2.403     2.424
    92   1 H        0.926     0.046     2.376     2.410
    93   1 H        0.926     0.044     2.391     2.418
    94   1 H        0.926     0.045     2.381     2.413
    95   1 H        0.926     0.048     2.349     2.397
    96   1 H        0.926     0.054     2.270     2.356
    97   1 H        0.926     0.040     2.451     2.448
    98   1 H        0.926     0.045     2.381     2.413

molecular dipole:
                 x           y           z       tot (Debye)
 q only:      -11.105      -2.895       0.067
   full:      -11.316      -3.261       0.075      29.933

 projected vibrational frequencies (cm⁻¹)
eigval :       -0.00    -0.00    -0.00     0.00     0.00     0.00
eigval :        5.82    10.79    13.62    25.14    29.27    30.79
eigval :       33.53    38.90    43.60    48.96    53.53    55.94
eigval :       63.17    67.90    70.82    78.90    81.42    90.38
eigval :       98.30    99.57   101.74   108.59   118.33   121.97
eigval :      135.03   145.97   155.57   162.64   167.20   183.16
eigval :      193.18   198.21   216.07   221.63   227.03   228.76
eigval :      238.62   239.15   252.68   266.36   272.53   281.80
eigval :      292.66   297.88   306.48   334.20   351.00   352.68
eigval :      372.42   376.25   378.52   379.41   380.84   384.45
eigval :      388.14   389.73   398.87   406.20   407.67   418.21
eigval :      422.92   433.16   439.34   445.41   449.40   458.49
eigval :      472.84   476.84   487.71   511.32   520.52   530.79
eigval :      532.99   539.89   541.43   543.14   553.89   555.15
eigval :      573.07   579.14   580.52   582.75   587.56   590.90
eigval :      593.10   601.50   603.46   606.98   624.89   625.50
eigval :      630.11   638.33   641.15   649.13   650.20   666.64
eigval :      668.75   670.53   675.61   682.69   692.86   698.25
eigval :      698.83   703.02   704.64   717.05   727.81   731.97
eigval :      745.01   754.25   758.57   762.80   766.93   769.98
eigval :      771.51   776.56   790.32   795.09   816.23   839.19
eigval :      841.59   858.94   864.83   865.21   868.55   869.47
eigval :      872.62   875.20   878.16   878.99   900.21   901.09
eigval :      901.88   903.22   904.74   907.80   908.92   910.24
eigval :      913.94   919.18   921.24   923.70   925.11   926.94
eigval :      927.83   929.67   930.08   932.04   934.96   936.45
eigval :      944.42   984.58   986.23   993.63  1008.62  1020.70
eigval :     1064.19  1071.68  1076.19  1077.30  1080.23  1080.34
eigval :     1081.61  1084.31  1103.65  1107.49  1110.04  1114.56
eigval :     1115.82  1118.16  1119.39  1132.17  1138.39  1159.21
eigval :     1161.21  1168.96  1175.34  1178.97  1179.31  1180.62
eigval :     1182.50  1184.07  1184.73  1185.25  1191.51  1192.67
eigval :     1195.13  1205.65  1216.14  1216.55  1220.41  1235.93
eigval :     1248.56  1258.84  1260.99  1264.76  1267.86  1272.70
eigval :     1274.55  1277.75  1285.29  1295.31  1308.93  1309.85
eigval :     1311.39  1312.18  1312.70  1315.09  1318.88  1324.36
eigval :     1328.80  1329.72  1349.70  1352.95  1371.41  1372.25
eigval :     1382.70  1391.60  1396.82  1406.77  1408.22  1410.35
eigval :     1417.27  1427.16  1431.45  1432.86  1440.25  1462.23
eigval :     1463.11  1464.69  1469.80  1472.23  1474.45  1477.10
eigval :     1477.77  1482.11  1488.68  1511.02  1515.24  1548.67
eigval :     1572.19  1574.79  1575.50  1576.08  1578.60  1579.61
eigval :     1580.49  1585.40  1586.10  1587.25  1587.76  1589.88
eigval :     1591.24  2324.55  2340.31  3073.44  3075.90  3080.28
eigval :     3080.46  3081.42  3081.49  3081.71  3082.85  3083.91
eigval :     3084.36  3087.78  3088.54  3088.95  3089.65  3089.67
eigval :     3090.70  3091.40  3091.61  3094.61  3095.00  3095.52
eigval :     3097.82  3098.10  3098.89  3099.70  3099.94  3101.12
eigval :     3101.36  3101.47  3102.81  3132.76  3145.54  3157.77

   temp. (K)  partition function   enthalpy   heat capacity  entropy
                                   cal/mol     cal/K/mol   cal/K/mol   J/K/mol
 298.15  VIB  0.263E+24            30060.169    188.726    188.086
         ROT  0.200E+09              888.752      2.981     40.961
         INT  0.524E+32            30948.921    191.707    229.047
         TR   0.230E+29             1481.254      4.968     45.998
         TOT                       32430.1748   196.6747   275.0446  1150.7867

       T/K    H(0)-H(T)+PV         H(T)/Eh          T*S/Eh         G(T)/Eh
   ------------------------------------------------------------------------
    298.15    0.516808E-01    0.774692E+00    0.130683E+00    0.644009E+00
   ------------------------------------------------------------------------

         :::::::::::::::::::::::::::::::::::::::::::::::::::::
         ::                  THERMODYNAMIC                  ::
         :::::::::::::::::::::::::::::::::::::::::::::::::::::
         :: total free energy        -160.905673439749 Eh   ::
         ::.................................................::
         :: total energy             -161.549682582531 Eh   ::
         :: zero point energy           0.723010940269 Eh   ::
         :: G(RRHO) w/o ZPVE           -0.079001797486 Eh   ::
         :: G(RRHO) contrib.            0.644009142782 Eh   ::
         :::::::::::::::::::::::::::::::::::::::::::::::::::::

           -------------------------------------------------
          | TOTAL ENERGY             -161.549682582531 Eh   |
          | TOTAL ENTHALPY           -160.774990869024 Eh   |
          | TOTAL FREE ENERGY        -160.905673439749 Eh   |
          | GRADIENT NORM               0.000072006582 Eh/α |
          | HOMO-LUMO GAP               0.533568763599 eV   |
           -------------------------------------------------

 * finished run on 2025/09/04 at 19:37:20.637
