   * xtb version 6.7.1 (edcfbbe) compiled by 'albert@albert-system' on 2024-07-22

   ID    Z sym.   atoms
    1    7 N      1, 6, 19, 35, 50, 60, 65
    2    6 C      2-5, 7-18, 20-34, 36-49, 51-59, 61-64
    3    1 H      66-98

          program call               : xtb data2507/toluene/6,7-DCNQx-DICz/6,7-DCNQx-DICz_toluene_S0_finalOpt.xtbopt.xyz --gfn 2 --uhf 2 --gbsa toluene --ohess vtight --parallel 40 --molden --ceasefiles --namespace data2507/toluene/6,7-DCNQx-DICz/6,7-DCNQx-DICz_toluene_T1_preOpt
      * Solvation model:               GBSA
        Solvent                        toluene
        Solvent mass                       9.2140E+01 g/mol
          :  Hamiltonian                  GFN2-xTB          :
 * total energy  :  -161.5457272 Eh     change       -0.2544033E-07 Eh
 * total energy  :  -161.5484388 Eh     change       -0.2711601E-02 Eh
 * total energy  :  -161.5489632 Eh     change       -0.5243158E-03 Eh
 * total energy  :  -161.5487893 Eh     change        0.1739006E-03 Eh
 * total energy  :  -161.5493288 Eh     change       -0.5395539E-03 Eh
 * total energy  :  -161.5490823 Eh     change        0.2465238E-03 Eh
 * total energy  :  -161.5494047 Eh     change       -0.3224097E-03 Eh
 * total energy  :  -161.5494277 Eh     change       -0.2304109E-04 Eh
 * total energy  :  -161.5494958 Eh     change       -0.6805283E-04 Eh
 * total energy  :  -161.5495210 Eh     change       -0.2516267E-04 Eh
 * total energy  :  -161.5496437 Eh     change       -0.6777188E-06 Eh
 * total energy  :  -161.5496444 Eh     change       -0.7145325E-06 Eh
 * total energy  :  -161.5496452 Eh     change       -0.7785049E-06 Eh
 * total energy  :  -161.5496460 Eh     change       -0.8115031E-06 Eh
 * total energy  :  -161.5496468 Eh     change       -0.8112918E-06 Eh
 * total energy  :  -161.5496476 Eh     change       -0.7962905E-06 Eh
 * total energy  :  -161.5496484 Eh     change       -0.7506829E-06 Eh
 * total energy  :  -161.5496491 Eh     change       -0.7468197E-06 Eh
 * total energy  :  -161.5496491 Eh     change       -0.3543590E-08 Eh
   *** GEOMETRY OPTIMIZATION CONVERGED AFTER 44 ITERATIONS ***

 final structure:
================
98
 xtb: 6.7.1 (edcfbbe)
N           11.47120571014041        2.36294356526727        0.86595730316691
C           10.35867576096208        2.07316390552437        0.82899631789396
C            9.00373144207291        1.70360011334740        0.77658220829165
C            8.64242564198520        0.42526797564463        0.34879353854465
C            7.29888911080840        0.04810459395840        0.29728345101809
N            6.92708234743614       -1.18018434676101       -0.05839222015666
C            5.64179135036714       -1.52578218143312       -0.11891016842600
C            5.34426204602333       -2.93282520818604       -0.39672443989879
C            4.34516109260895       -3.61685401173976        0.29588036541015
C            4.10595063534265       -4.95206346453944        0.03278034239388
C            4.85807110149193       -5.62398811976729       -0.91838133395527
C            5.86715490290441       -4.95674182532047       -1.59420474201302
C            6.11516708160640       -3.62253824943688       -1.33245031841668
C            4.64793964799370       -0.55773057154767        0.12237464255486
C            3.22412939383436       -0.80315997652419       -0.08948510364448
C            2.76566792821474       -1.49903475394801       -1.21040045296665
C            1.41540413662641       -1.69544629443103       -1.40974058017028
C            0.49331699488126       -1.19897565790523       -0.48923263399840
N           -0.87974952103376       -1.43449392954710       -0.65469734830769
C           -1.42817906933229       -2.70159543761809       -0.72173484560252
C           -0.79055363302326       -3.91978796867564       -0.90216911709261
C           -1.57617863385670       -5.05220555957366       -1.00355490048911
C           -2.96517774885825       -4.96730019863444       -0.94631063187559
C           -3.60148568014444       -3.76278397940535       -0.72232292731569
C           -2.83196782385397       -2.61346650172037       -0.55568408748927
C           -3.12169470572068       -1.22873130525369       -0.30578843834386
C           -4.25054589433375       -0.50288608441005        0.10575544826135
C           -4.23185883301693        0.91756565834217        0.16040593290479
C           -5.49836549618249        1.32231935777381        0.70612238340279
C           -6.04820944763365        2.52936234527100        1.13293431260099
C           -7.31913207969697        2.53520470605222        1.67248934969332
C           -8.04840499261248        1.35850402497168        1.82626362627469
C           -7.50882872090745        0.13955979281825        1.46414486845099
C           -6.23855299122047        0.13258873941980        0.90731245108997
N           -5.47127435027745       -0.95383410127350        0.53644973323209
C           -5.82069005701835       -2.26972906572562        0.90464441442931
C           -6.96337860476915       -2.85785941207290        0.37356504653506
C           -7.32636079827335       -4.13267552472115        0.77210504411932
C           -6.55688644603010       -4.81922072380295        1.69739290093907
C           -5.42204406725139       -4.22873331627042        2.22987937988495
C           -5.05259404383982       -2.95416005852626        1.84078594108156
C           -3.07669622960065        1.58403597871307       -0.27783285253962
C           -1.87304126342863        0.87403747038462       -0.54671109180671
C           -0.90472446374484        1.85554061594169       -0.95675551706338
C            0.39719804450777        1.81230314193123       -1.45164872647696
C            1.02287860131132        2.99085727454960       -1.80706292321907
C            0.36920852522556        4.21652645173793       -1.71310877786258
C           -0.93843540832721        4.28766895657782       -1.27304849335097
C           -1.56182680196087        3.10814139792278       -0.89471940604912
N           -2.86745211444571        2.92257644839955       -0.48444847877369
C           -3.84590476238680        3.92686562403330       -0.62522459429300
C           -4.90196316718277        3.74185041982365       -1.51195698244837
C           -5.83936933388466        4.74427299604839       -1.68027061873839
C           -5.72393093933181        5.93289993608536       -0.97727532152722
C           -4.66839108050263        6.11862327703496       -0.09915353496546
C           -3.72716619116154        5.11983507935797        0.08029965814394
C           -1.89611129384743       -0.52712162627585       -0.46704197892814
C            0.94263560031532       -0.48888086149048        0.62320534458955
C            2.29249506498071       -0.28446166046803        0.81249379579641
N            5.00147433363755        0.66149048905157        0.54099389986667
C            6.27985098263679        1.00337901069774        0.66414350180849
C            6.66324296521697        2.27448189399078        1.10503509879368
C            8.01034282305895        2.62725462705440        1.16324716788286
C            8.38518745443808        3.90975114558855        1.60263050691717
N            8.67708378235981        4.96139424126790        1.96475563307868
H            9.40003906141395       -0.28915833274466        0.06640328402440
H            3.77007606580850       -3.10351612766885        1.05255446287955
H            3.33305022078723       -5.47305060508704        0.57863838043032
H            4.66544225693377       -6.66636608824820       -1.12413116529435
H            6.46624395496685       -5.47792132413294       -2.32647199782699
H            6.90239616452315       -3.09542266161836       -1.85082522886113
H            3.47305469900039       -1.86615545924856       -1.93838470405433
H            1.06802026098620       -2.20257275902350       -2.29687424534572
H            0.28394087350209       -3.98453197043256       -0.96744110258590
H           -1.10574632735453       -6.01264120463470       -1.15117816660275
H           -3.55620378726758       -5.86144070388098       -1.07586856016221
H           -4.67644916061682       -3.72126695294090       -0.70144952959062
H           -5.49343742725977        3.44862596377473        1.07012724108654
H           -7.75038332459279        3.47113403300035        1.99495250719483
H           -9.03796953706751        1.39645405241364        2.25637788680816
H           -8.05102165389579       -0.77906893905497        1.62624559776373
H           -7.55010286891812       -2.32061349701461       -0.35692476977144
H           -8.21081425317403       -4.59105598593124        0.35542629692895
H           -6.84293329620574       -5.81379126270374        2.00464862825317
H           -4.82374722044595       -4.76027645186764        2.95435468488731
H           -4.17342497154959       -2.48425092892915        2.25525427278362
H            0.91893136660937        0.88091675970930       -1.57801493012849
H            2.03691014574660        2.95746335641347       -2.17728643842746
H            0.88352238587736        5.11957013280668       -2.00578491808167
H           -1.46179445878349        5.23048270733114       -1.24151551306105
H           -4.97998436414099        2.81531481854627       -2.06058436309459
H           -6.65891555032618        4.59893611203597       -2.36774036154910
H           -6.45575601468856        6.71470002777053       -1.11337667267370
H           -4.57774582586047        7.04258396659302        0.45233345701491
H           -2.91183623643770        5.25042118856833        0.77639271609549
H            0.22759728388813       -0.09581242175137        1.32994007046184
H            2.64623306866224        0.26910534503406        1.66855255344882
H            5.90041272190668        2.98341838864071        1.38695902290994

          :  Hamiltonian                  GFN2-xTB          :
         :: gradient norm              0.000092510938 Eh/a0 ::
         :: HOMO-LUMO gap              0.531839471479 eV    ::
         :: SCC energy              -164.601770138379 Eh    ::
         :: -> dispersion             -0.158314364209 Eh    ::
         :: -> Gsolv                  -0.079974190992 Eh    ::
         :: repulsion energy           3.052121009798 Eh    ::

    * Orbital Energies and Occupations

         #    Occupation            Energy/Eh            Energy/eV
      -------------------------------------------------------------
         1        2.0000           -0.6929980             -18.8574
       ...           ...                  ...                  ...
       139        2.0000           -0.4156250             -11.3097
       140        2.0000           -0.4145958             -11.2817
       141        2.0000           -0.4132434             -11.2449
       142        2.0000           -0.4066061             -11.0643
       143        2.0000           -0.4063095             -11.0562
       144        2.0000           -0.4036616             -10.9842
       145        2.0000           -0.4030827             -10.9684
       146        2.0000           -0.3986220             -10.8471
       147        2.0000           -0.3838441             -10.4449
       148        1.8633           -0.3662479              -9.9661
       149        1.7672           -0.3656301              -9.9493
       150        1.3696           -0.3639899              -9.9047
       151        1.0000           -0.3099250              -8.4335 (HOMO)
       152        0.0000           -0.2903805              -7.9017 (LUMO)
       153                         -0.2627402              -7.1495
       154                         -0.2582360              -7.0270
       155                         -0.2535708              -6.9000
       156                         -0.2427982              -6.6069
       157                         -0.2413909              -6.5686
       158                         -0.2401904              -6.5359
       159                         -0.2396231              -6.5205
       160                         -0.2385354              -6.4909
       161                         -0.2380034              -6.4764
       162                         -0.2363425              -6.4312
       ...                                ...                  ...
       293                          1.1754370              31.9853
      -------------------------------------------------------------
                  HL-Gap            0.0195445 Eh            0.5318 eV

     #   Z          covCN         q      C6AA      α(0)
     1   7 N        0.911    -0.286    27.371     7.567
     2   6 C        1.912     0.115    28.264     8.586
     3   6 C        2.974     0.007    27.868     8.659
     4   6 C        2.924    -0.060    29.495     8.906
     5   6 C        2.939     0.091    25.978     8.359
     6   7 N        1.853    -0.247    27.291     7.743
     7   6 C        2.934     0.078    26.262     8.405
     8   6 C        2.979     0.006    27.877     8.661
     9   6 C        2.922    -0.033    28.825     8.804
    10   6 C        2.918    -0.028    28.705     8.786
    11   6 C        2.919    -0.029    28.714     8.787
    12   6 C        2.918    -0.028    28.689     8.783
    13   6 C        2.925    -0.028    28.691     8.784
    14   6 C        2.935     0.073    26.361     8.420
    15   6 C        2.978     0.008    27.838     8.655
    16   6 C        2.922    -0.030    28.754     8.793
    17   6 C        2.919    -0.040    28.990     8.829
    18   6 C        2.915     0.064    26.563     8.452
    19   7 N        2.802    -0.022    21.666     6.913
    20   6 C        3.081     0.045    26.897     8.502
    21   6 C        2.910    -0.047    29.171     8.856
    22   6 C        2.923    -0.030    28.756     8.794
    23   6 C        2.919    -0.036    28.908     8.817
    24   6 C        2.913    -0.035    28.881     8.812
    25   6 C        3.060    -0.010    28.206     8.709
    26   6 C        3.053    -0.038    28.885     8.814
    27   6 C        3.062     0.046    26.902     8.505
    28   6 C        3.055    -0.039    28.925     8.820
    29   6 C        3.057    -0.011    28.235     8.714
    30   6 C        2.914    -0.037    28.909     8.817
    31   6 C        2.919    -0.037    28.917     8.818
    32   6 C        2.923    -0.031    28.770     8.796
    33   6 C        2.910    -0.047    29.164     8.855
    34   6 C        3.088     0.046    26.872     8.497
    35   7 N        2.803    -0.025    21.731     6.924
    36   6 C        2.917     0.064    26.563     8.452
    37   6 C        2.921    -0.039    28.969     8.826
    38   6 C        2.920    -0.026    28.649     8.777
    39   6 C        2.919    -0.028    28.699     8.785
    40   6 C        2.920    -0.024    28.609     8.771
    41   6 C        2.921    -0.035    28.877     8.812
    42   6 C        3.062     0.046    26.901     8.505
    43   6 C        3.053    -0.038    28.885     8.814
    44   6 C        3.056    -0.012    28.247     8.716
    45   6 C        2.914    -0.036    28.903     8.816
    46   6 C        2.919    -0.036    28.899     8.815
    47   6 C        2.923    -0.030    28.755     8.794
    48   6 C        2.910    -0.047    29.165     8.855
    49   6 C        3.086     0.046    26.869     8.497
    50   7 N        2.802    -0.025    21.720     6.922
    51   6 C        2.917     0.064    26.557     8.451
    52   6 C        2.921    -0.036    28.887     8.814
    53   6 C        2.920    -0.024    28.610     8.771
    54   6 C        2.919    -0.028    28.705     8.786
    55   6 C        2.920    -0.026    28.649     8.777
    56   6 C        2.921    -0.039    28.976     8.827
    57   6 C        3.062     0.044    26.948     8.513
    58   6 C        2.920    -0.036    28.901     8.816
    59   6 C        2.924    -0.025    28.631     8.775
    60   7 N        1.852    -0.248    27.320     7.747
    61   6 C        2.940     0.092    25.965     8.357
    62   6 C        2.925    -0.060    29.503     8.907
    63   6 C        2.974     0.008    27.833     8.654
    64   6 C        1.912     0.116    28.244     8.583
    65   7 N        0.911    -0.283    27.302     7.557
    66   1 H        0.926     0.043     2.404     2.425
    67   1 H        0.926     0.030     2.587     2.515
    68   1 H        0.926     0.042     2.428     2.437
    69   1 H        0.926     0.043     2.413     2.429
    70   1 H        0.926     0.041     2.433     2.439
    71   1 H        0.926     0.039     2.469     2.457
    72   1 H        0.926     0.039     2.459     2.452
    73   1 H        0.926     0.055     2.263     2.353
    74   1 H        0.926     0.040     2.450     2.447
    75   1 H        0.926     0.039     2.458     2.452
    76   1 H        0.926     0.037     2.487     2.466
    77   1 H        0.926     0.040     2.452     2.449
    78   1 H        0.926     0.038     2.476     2.461
    79   1 H        0.926     0.035     2.513     2.479
    80   1 H        0.926     0.038     2.477     2.461
    81   1 H        0.926     0.039     2.461     2.453
    82   1 H        0.926     0.048     2.346     2.395
    83   1 H        0.926     0.046     2.373     2.409
    84   1 H        0.926     0.044     2.390     2.418
    85   1 H        0.926     0.045     2.389     2.417
    86   1 H        0.926     0.042     2.427     2.436
    87   1 H        0.926     0.036     2.508     2.477
    88   1 H        0.926     0.031     2.579     2.511
    89   1 H        0.926     0.037     2.492     2.468
    90   1 H        0.926     0.041     2.438     2.441
    91   1 H        0.926     0.043     2.403     2.424
    92   1 H        0.926     0.046     2.375     2.410
    93   1 H        0.926     0.045     2.389     2.417
    94   1 H        0.926     0.045     2.384     2.414
    95   1 H        0.926     0.047     2.361     2.403
    96   1 H        0.926     0.050     2.314     2.379
    97   1 H        0.926     0.049     2.337     2.391
    98   1 H        0.926     0.045     2.381     2.413

molecular dipole:
                 x           y           z       tot (Debye)
 q only:      -11.096      -3.071      -1.172
   full:      -11.308      -3.438      -1.267      30.214

 projected vibrational frequencies (cm⁻¹)
eigval :       -0.00    -0.00    -0.00    -0.00     0.00     0.00
eigval :        6.33    11.06    12.59    21.89    25.03    27.26
eigval :       31.02    37.83    45.15    49.75    51.46    56.33
eigval :       59.33    66.00    71.01    73.45    83.50    88.04
eigval :       98.15    99.60   101.71   112.98   116.98   122.63
eigval :      136.09   146.61   155.16   165.71   169.92   183.49
eigval :      191.43   197.27   215.76   222.78   226.25   228.46
eigval :      232.74   239.11   249.16   268.86   273.53   287.98
eigval :      291.23   297.94   304.60   336.55   351.37   355.91
eigval :      372.79   372.91   375.86   378.51   382.25   384.65
eigval :      389.13   389.59   401.05   406.82   409.05   417.61
eigval :      422.64   432.91   439.35   446.15   450.43   462.75
eigval :      469.52   476.48   487.53   510.85   520.38   528.81
eigval :      533.99   536.70   541.86   544.38   553.85   555.49
eigval :      572.99   579.40   580.71   583.39   587.78   590.07
eigval :      593.60   601.10   602.80   607.61   623.84   625.68
eigval :      629.49   638.08   640.53   648.63   650.55   665.92
eigval :      668.84   670.63   676.37   683.64   694.14   694.38
eigval :      699.73   704.07   705.74   716.98   728.61   732.20
eigval :      744.34   754.55   757.76   763.66   767.91   770.24
eigval :      774.23   775.46   793.83   797.88   816.69   840.39
eigval :      841.14   858.66   863.77   865.58   867.28   869.28
eigval :      872.36   873.64   878.36   878.70   898.97   900.15
eigval :      901.47   905.03   905.99   907.40   908.63   909.84
eigval :      915.61   921.46   921.99   923.87   925.44   925.72
eigval :      927.38   928.40   932.26   932.95   933.44   936.04
eigval :      944.15   984.92   986.01   993.63  1008.68  1020.39
eigval :     1066.62  1071.97  1076.40  1077.62  1079.98  1080.50
eigval :     1082.23  1084.65  1104.02  1108.58  1111.75  1113.51
eigval :     1116.22  1118.03  1121.17  1132.83  1139.32  1159.18
eigval :     1162.39  1169.02  1177.13  1178.98  1179.15  1180.30
eigval :     1182.37  1184.37  1184.98  1186.39  1192.54  1193.89
eigval :     1195.29  1205.91  1216.04  1217.40  1220.22  1236.33
eigval :     1248.62  1259.02  1262.28  1265.61  1267.94  1272.98
eigval :     1274.99  1277.17  1285.75  1295.15  1308.06  1309.84
eigval :     1311.28  1312.38  1313.62  1314.77  1318.98  1324.02
eigval :     1328.73  1330.13  1349.83  1352.96  1370.95  1372.64
eigval :     1382.98  1392.03  1396.49  1407.00  1408.40  1409.90
eigval :     1417.52  1426.76  1432.54  1432.68  1440.06  1462.63
eigval :     1463.44  1464.51  1469.58  1473.39  1474.86  1477.30
eigval :     1478.03  1480.93  1488.62  1512.44  1515.36  1546.11
eigval :     1571.85  1575.24  1575.91  1576.05  1578.50  1579.62
eigval :     1580.38  1585.58  1586.40  1587.04  1587.79  1590.56
eigval :     1591.66  2324.58  2340.33  3073.88  3075.89  3079.76
eigval :     3080.36  3081.01  3081.10  3081.88  3082.89  3083.02
eigval :     3084.00  3088.50  3088.81  3088.89  3089.33  3089.78
eigval :     3090.36  3091.42  3091.69  3093.23  3094.35  3094.77
eigval :     3098.04  3098.62  3099.04  3099.55  3100.16  3100.84
eigval :     3101.08  3102.78  3106.10  3137.01  3145.20  3153.90

   temp. (K)  partition function   enthalpy   heat capacity  entropy
                                   cal/mol     cal/K/mol   cal/K/mol   J/K/mol
 298.15  VIB  0.447E+24            30081.604    188.430    188.361
         ROT  0.203E+09              888.752      2.981     40.995
         INT  0.907E+32            30970.357    191.411    229.356
         TR   0.230E+29             1481.254      4.968     45.998
         TOT                       32451.6106   196.3792   275.3534  1152.0785

       T/K    H(0)-H(T)+PV         H(T)/Eh          T*S/Eh         G(T)/Eh
   ------------------------------------------------------------------------
    298.15    0.517149E-01    0.774763E+00    0.130829E+00    0.643934E+00
   ------------------------------------------------------------------------

         :::::::::::::::::::::::::::::::::::::::::::::::::::::
         ::                  THERMODYNAMIC                  ::
         :::::::::::::::::::::::::::::::::::::::::::::::::::::
         :: total free energy        -160.905715027785 Eh   ::
         ::.................................................::
         :: total energy             -161.549649123201 Eh   ::
         :: zero point energy           0.723048431501 Eh   ::
         :: G(RRHO) w/o ZPVE           -0.079114336086 Eh   ::
         :: G(RRHO) contrib.            0.643934095416 Eh   ::
         :::::::::::::::::::::::::::::::::::::::::::::::::::::

           -------------------------------------------------
          | TOTAL ENERGY             -161.549649123201 Eh   |
          | TOTAL ENTHALPY           -160.774885758380 Eh   |
          | TOTAL FREE ENERGY        -160.905715027785 Eh   |
          | GRADIENT NORM               0.000096088500 Eh/α |
          | HOMO-LUMO GAP               0.531831625861 eV   |
           -------------------------------------------------

 * finished run on 2025/09/04 at 19:27:47.270
