   * xtb version 6.7.1 (edcfbbe) compiled by 'albert@albert-system' on 2024-07-22

   ID    Z sym.   atoms
    1    6 C      1-12, 14-16, 18-29, 31
    2    7 N      13, 17, 30, 32
    3    1 H      33-50

          program call               : xtb data2507/toluene/Cbz-PYR/Cbz-PYR.xyz --gfn 2 --gbsa toluene --ohess vtight --parallel 40 --molden --ceasefiles --namespace data2507/toluene/Cbz-PYR/Cbz-PYR_toluene_S0_preOpt
      * Solvation model:               GBSA
        Solvent                        toluene
        Solvent mass                       9.2140E+01 g/mol
          :  Hamiltonian                  GFN2-xTB          :
 * total energy  :   -80.9206873 Eh     change       -0.1931326E-08 Eh
 * total energy  :   -80.9346680 Eh     change       -0.1398065E-01 Eh
 * total energy  :   -80.9378466 Eh     change       -0.3178578E-02 Eh
 * total energy  :   -80.9382006 Eh     change       -0.3540518E-03 Eh
 * total energy  :   -80.9384112 Eh     change       -0.2105495E-03 Eh
 * total energy  :   -80.9384685 Eh     change       -0.5737314E-04 Eh
 * total energy  :   -80.9385149 Eh     change       -0.4638742E-04 Eh
 * total energy  :   -80.9385528 Eh     change       -0.3787071E-04 Eh
 * total energy  :   -80.9385720 Eh     change       -0.1916449E-04 Eh
 * total energy  :   -80.9385890 Eh     change       -0.1705278E-04 Eh
 * total energy  :   -80.9386901 Eh     change       -0.1505003E-04 Eh
 * total energy  :   -80.9386983 Eh     change       -0.8143540E-05 Eh
 * total energy  :   -80.9387041 Eh     change       -0.5802125E-05 Eh
 * total energy  :   -80.9387081 Eh     change       -0.4008107E-05 Eh
 * total energy  :   -80.9387100 Eh     change       -0.1898672E-05 Eh
 * total energy  :   -80.9387108 Eh     change       -0.7656775E-06 Eh
 * total energy  :   -80.9387109 Eh     change       -0.1437985E-06 Eh
 * total energy  :   -80.9387110 Eh     change       -0.1156266E-06 Eh
 * total energy  :   -80.9387111 Eh     change       -0.6102866E-07 Eh
   *** GEOMETRY OPTIMIZATION CONVERGED AFTER 24 ITERATIONS ***

 final structure:
================
50
 xtb: 6.7.1 (edcfbbe)
C            3.66362362664620       -3.02699709798944        2.03695881126844
C            2.33666526880454       -2.66357694397314        2.24070234011397
C            1.81269309544273       -1.50114602639690        1.70111286965175
C            2.64586820541608       -0.70423180939655        0.92972792446679
C            4.00717881794380       -1.04281058175317        0.76466149589985
C            4.51317040026672       -2.21331575184189        1.31231722814864
C            4.61759805243468        0.03274267151211        0.02844900109197
C            5.91011302575742        0.25094411088679       -0.42929863023597
C            6.17844408225377        1.41937325325789       -1.11583165215592
C            5.17538828101404        2.35577157762186       -1.34933904019201
C            3.88027795646255        2.15597919119457       -0.90425752400406
C            3.60895663508297        0.98890236862102       -0.20932289940784
N            2.40123915229214        0.51966794979969        0.30927833996880
C            1.17959844037583        1.13709210342795        0.14807021028190
C            0.00000040222490        0.40764500608924        0.00001489816446
C           -1.17959884439558        1.13708867819260       -0.14804230715963
N           -2.40123750492128        0.51965883013994       -0.30925072443503
C           -2.64586504909309       -0.70422143484550       -0.92973750159130
C           -1.81268519028268       -1.50111575439807       -1.70113744051885
C           -2.33665824880478       -2.66352457292439       -2.24077292176464
C           -3.66362175584450       -3.02694270503385       -2.03705813986397
C           -4.51317124233806       -2.21328216755565       -1.31239651227619
C           -4.00717846647195       -1.04279981834560       -0.76469313391753
C           -4.61759936260693        0.03273177309910       -0.02845070534932
C           -5.91011653209704        0.25092372293577        0.42929533275254
C           -6.17844731918664        1.41933194854241        1.11586371650779
C           -5.17538884170406        2.35571837557976        1.34940907890830
C           -3.88027555219326        2.15593378685812        0.90433216190487
C           -3.60895510828037        0.98887865217292        0.20936105539536
N           -1.17315686151954        2.47587602343541       -0.11720711006444
C           -0.00001080829334        3.05798614767148        0.00007238251393
N            1.17314391811075        2.47588012579206        0.11728510192824
H            4.03478516492514       -3.94380396755435        2.46961304522500
H            1.69851226118701       -3.29544553087432        2.84036059166786
H            0.79147526963877       -1.22462612518236        1.91271130096332
H            5.55269133392971       -2.47142961691562        1.18145434293042
H            6.68433639086399       -0.47932412707190       -0.25017758444095
H            7.17746422058034        1.61170582035898       -1.47782605532964
H            5.41119201906454        3.26106826276967       -1.88888970799879
H            3.10860471964884        2.88749963296944       -1.07931133351956
H            0.00000184491410       -0.66671525838641        0.00001495113998
H           -0.79146225651094       -1.22459634610677       -1.91271183521214
H           -1.69850143196498       -3.29537791784008       -2.84044314257222
H           -4.03478429407588       -3.94373178463600       -2.46974889595778
H           -5.55269507189115       -2.47139455427497       -1.18155409631007
H           -6.68434158591512       -0.47933595147157        0.25014650945340
H           -7.17746909455150        1.61165683139858        1.47785782035671
H           -5.41119323864860        3.26099856354628        1.88898729313428
H           -3.10860080710491        2.88744701765936        1.07941182254563
H           -0.00000411658253        4.14124341923664       -0.00001473210574

          :  Hamiltonian                  GFN2-xTB          :
         :: gradient norm              0.000036361980 Eh/a0 ::
         :: HOMO-LUMO gap              2.740867994111 eV    ::
         :: SCC energy               -82.406405110198 Eh    ::
         :: -> dispersion             -0.067512555912 Eh    ::
         :: -> Gsolv                  -0.033975307340 Eh    ::
         :: repulsion energy           1.467694038621 Eh    ::

    * Orbital Energies and Occupations

         #    Occupation            Energy/Eh            Energy/eV
      -------------------------------------------------------------
         1        2.0000           -0.7001709             -19.0526
       ...           ...                  ...                  ...
        63        2.0000           -0.4317231             -11.7478
        64        2.0000           -0.4299853             -11.7005
        65        2.0000           -0.4286461             -11.6641
        66        2.0000           -0.4261320             -11.5956
        67        2.0000           -0.4259633             -11.5911
        68        2.0000           -0.4153332             -11.3018
        69        2.0000           -0.4147960             -11.2872
        70        2.0000           -0.4125372             -11.2257
        71        2.0000           -0.3884587             -10.5705
        72        2.0000           -0.3884202             -10.5695
        73        2.0000           -0.3856829             -10.4950
        74        2.0000           -0.3825493             -10.4097
        75        2.0000           -0.3765819             -10.2473 (HOMO)
        76                         -0.2758569              -7.5064 (LUMO)
        77                         -0.2657008              -7.2301
        78                         -0.2531750              -6.8892
        79                         -0.2515772              -6.8458
        80                         -0.2314326              -6.2976
        81                         -0.2313435              -6.2952
        82                         -0.2083636              -5.6699
        83                         -0.1975725              -5.3762
        84                         -0.1954344              -5.3180
        85                         -0.1954193              -5.3176
        86                         -0.1361877              -3.7059
       ...                                ...                  ...
       146                          0.7341929              19.9784
      -------------------------------------------------------------
                  HL-Gap            0.1007250 Eh            2.7409 eV

     #   Z          covCN         q      C6AA      α(0)
     1   6 C        2.920    -0.037    28.927     8.820
     2   6 C        2.923    -0.033    28.817     8.803
     3   6 C        2.911    -0.051    29.260     8.870
     4   6 C        3.054     0.046    26.918     8.509
     5   6 C        3.064    -0.012    28.243     8.715
     6   6 C        2.913    -0.032    28.802     8.800
     7   6 C        3.063    -0.014    28.305     8.724
     8   6 C        2.913    -0.033    28.831     8.805
     9   6 C        2.920    -0.038    28.934     8.821
    10   6 C        2.925    -0.032    28.798     8.800
    11   6 C        2.910    -0.047    29.164     8.855
    12   6 C        3.060     0.054    26.737     8.479
    13   7 N        2.801    -0.051    22.222     7.001
    14   6 C        2.918     0.174    24.269     8.078
    15   6 C        2.912    -0.095    30.395     9.040
    16   6 C        2.918     0.174    24.269     8.078
    17   7 N        2.801    -0.051    22.222     7.001
    18   6 C        3.054     0.046    26.918     8.509
    19   6 C        2.911    -0.051    29.260     8.870
    20   6 C        2.923    -0.033    28.817     8.803
    21   6 C        2.920    -0.037    28.927     8.820
    22   6 C        2.913    -0.032    28.802     8.800
    23   6 C        3.064    -0.012    28.243     8.715
    24   6 C        3.063    -0.014    28.305     8.724
    25   6 C        2.913    -0.033    28.831     8.805
    26   6 C        2.920    -0.038    28.934     8.821
    27   6 C        2.925    -0.032    28.798     8.800
    28   6 C        2.910    -0.047    29.164     8.855
    29   6 C        3.060     0.054    26.737     8.479
    30   7 N        1.842    -0.291    28.401     7.898
    31   6 C        2.912     0.159    24.561     8.127
    32   7 N        1.842    -0.291    28.401     7.898
    33   1 H        0.926     0.040     2.444     2.445
    34   1 H        0.926     0.040     2.454     2.450
    35   1 H        0.926     0.029     2.606     2.524
    36   1 H        0.926     0.043     2.407     2.426
    37   1 H        0.926     0.042     2.429     2.437
    38   1 H        0.926     0.039     2.458     2.452
    39   1 H        0.926     0.040     2.453     2.449
    40   1 H        0.926     0.047     2.357     2.401
    41   1 H        0.926     0.051     2.312     2.378
    42   1 H        0.926     0.029     2.606     2.524
    43   1 H        0.926     0.040     2.454     2.450
    44   1 H        0.926     0.040     2.444     2.445
    45   1 H        0.926     0.043     2.407     2.426
    46   1 H        0.926     0.042     2.429     2.437
    47   1 H        0.926     0.039     2.458     2.452
    48   1 H        0.926     0.040     2.453     2.449
    49   1 H        0.926     0.047     2.357     2.401
    50   1 H        0.925     0.042     2.422     2.433

molecular dipole:
                 x           y           z       tot (Debye)
 q only:       -0.000      -0.895      -0.000
   full:        0.000      -1.050      -0.000       2.668

 projected vibrational frequencies (cm⁻¹)
eigval :       -0.00    -0.00    -0.00    -0.00     0.00     0.00
eigval :       19.69    24.32    31.03    59.70    75.41    83.46
eigval :      100.13   111.41   136.46   141.24   153.84   196.77
eigval :      202.30   227.31   236.46   275.44   276.50   291.14
eigval :      309.16   343.93   345.24   389.81   392.84   406.89
eigval :      424.46   424.94   429.58   439.38   443.32   515.42
eigval :      516.20   526.82   537.70   541.03   541.03   570.23
eigval :      584.48   590.81   604.13   633.14   633.72   651.05
eigval :      675.12   676.30   711.11   712.24   720.88   727.00
eigval :      750.09   756.35   770.00   770.71   771.33   780.59
eigval :      782.35   842.11   873.58   874.49   875.78   882.70
eigval :      892.82   897.39   904.26   904.46   905.78   905.98
eigval :      914.38   922.43   922.47   923.52   926.29   933.60
eigval :     1009.76  1011.40  1023.68  1027.97  1069.84  1070.16
eigval :     1074.11  1077.51  1113.28  1119.48  1149.67  1151.25
eigval :     1161.30  1174.53  1176.81  1177.74  1179.53  1199.28
eigval :     1223.10  1227.62  1234.99  1238.50  1244.05  1275.51
eigval :     1280.44  1286.81  1294.03  1296.49  1320.14  1327.80
eigval :     1351.18  1353.99  1354.72  1357.06  1407.52  1412.55
eigval :     1421.19  1422.12  1430.01  1457.84  1468.66  1469.17
eigval :     1482.02  1482.33  1509.17  1555.26  1577.01  1577.29
eigval :     1587.90  1588.23  1596.65  1596.89  1609.01  1609.02
eigval :     3047.61  3078.42  3078.43  3079.30  3079.35  3085.23
eigval :     3085.30  3086.06  3086.07  3092.90  3092.98  3095.35
eigval :     3095.36  3099.63  3099.81  3115.21  3115.22  3143.32

   temp. (K)  partition function   enthalpy   heat capacity  entropy
                                   cal/mol     cal/K/mol   cal/K/mol   J/K/mol
 298.15  VIB  0.617E+09            12953.743     88.095     77.472
         ROT  0.111E+08              888.752      2.981     35.220
         INT  0.686E+16            13842.495     91.076    112.692
         TR   0.805E+28             1481.254      4.968     43.907
         TOT                       15323.7493    96.0442   156.5995   655.2121

       T/K    H(0)-H(T)+PV         H(T)/Eh          T*S/Eh         G(T)/Eh
   ------------------------------------------------------------------------
    298.15    0.244199E-01    0.402352E+00    0.744055E-01    0.327947E+00
   ------------------------------------------------------------------------

         :::::::::::::::::::::::::::::::::::::::::::::::::::::
         ::                  THERMODYNAMIC                  ::
         :::::::::::::::::::::::::::::::::::::::::::::::::::::
         :: total free energy         -80.610764082663 Eh   ::
         ::.................................................::
         :: total energy              -80.938711069462 Eh   ::
         :: zero point energy           0.377932490133 Eh   ::
         :: G(RRHO) w/o ZPVE           -0.049985503334 Eh   ::
         :: G(RRHO) contrib.            0.327946986799 Eh   ::
         :::::::::::::::::::::::::::::::::::::::::::::::::::::

           -------------------------------------------------
          | TOTAL ENERGY              -80.938711069462 Eh   |
          | TOTAL ENTHALPY            -80.536358630416 Eh   |
          | TOTAL FREE ENERGY         -80.610764082663 Eh   |
          | GRADIENT NORM               0.000036364549 Eh/α |
          | HOMO-LUMO GAP               2.740867908269 eV   |
           -------------------------------------------------

 * finished run on 2025/08/25 at 13:36:47.667
