   * xtb version 6.7.1 (edcfbbe) compiled by 'albert@albert-system' on 2024-07-22

   ID    Z sym.   atoms
    1    6 C      1-12, 14-16, 18-29, 31
    2    7 N      13, 17, 30, 32
    3    1 H      33-50

          program call               : xtb data2507/toluene/Cbz-PYR/Cbz-PYR_toluene_T1_crest.xyz --gfn 2 --uhf 2 --gbsa toluene --ohess vtight --parallel 40 --molden --ceasefiles --namespace data2507/toluene/Cbz-PYR/Cbz-PYR_toluene_T1_finalOpt
      * Solvation model:               GBSA
        Solvent                        toluene
        Solvent mass                       9.2140E+01 g/mol
          :  Hamiltonian                  GFN2-xTB          :
 * total energy  :   -80.8358257 Eh     change       -0.6506568E-08 Eh
 * total energy  :   -80.8358713 Eh     change       -0.4554508E-04 Eh
 * total energy  :   -80.8358917 Eh     change       -0.2044753E-04 Eh
 * total energy  :   -80.8358965 Eh     change       -0.4835115E-05 Eh
 * total energy  :   -80.8359002 Eh     change       -0.3650263E-05 Eh
 * total energy  :   -80.8359036 Eh     change       -0.3416333E-05 Eh
 * total energy  :   -80.8359073 Eh     change       -0.3678084E-05 Eh
 * total energy  :   -80.8359114 Eh     change       -0.4109523E-05 Eh
 * total energy  :   -80.8359159 Eh     change       -0.4513413E-05 Eh
 * total energy  :   -80.8359206 Eh     change       -0.4721699E-05 Eh
 * total energy  :   -80.8359843 Eh     change       -0.9661005E-06 Eh
 * total energy  :   -80.8359852 Eh     change       -0.8987759E-06 Eh
 * total energy  :   -80.8359860 Eh     change       -0.8740069E-06 Eh
 * total energy  :   -80.8359869 Eh     change       -0.8783892E-06 Eh
 * total energy  :   -80.8359878 Eh     change       -0.9125044E-06 Eh
 * total energy  :   -80.8359888 Eh     change       -0.9581282E-06 Eh
 * total energy  :   -80.8359898 Eh     change       -0.1007210E-05 Eh
 * total energy  :   -80.8359908 Eh     change       -0.1045695E-05 Eh
 * total energy  :   -80.8359908 Eh     change       -0.6430000E-08 Eh
   *** GEOMETRY OPTIMIZATION CONVERGED AFTER 44 ITERATIONS ***

 final structure:
================
50
 xtb: 6.7.1 (edcfbbe)
C            6.09004638059211       -1.18748902964588       -1.44308221976204
C            5.06469173165582       -2.09978623209644       -1.69686676433811
C            3.79356518519268       -1.91024138850360       -1.18549861270133
C            3.57166749784986       -0.78873027029294       -0.39785783978995
C            4.60681251325828        0.14870740780364       -0.13859577240317
C            5.87358420538036       -0.06380716908321       -0.66399452290312
C            4.03609709621465        1.16756735041118        0.69294097111324
C            4.54685819517947        2.31973382708309        1.27519740654704
C            3.72268641187132        3.07590467231224        2.08871809599597
C            2.40951428132963        2.68073680314462        2.34535853656511
C            1.87548868648601        1.54174367787279        1.76896908309772
C            2.68134771599314        0.79853383688089        0.91624032402048
N            2.41165619671914       -0.37666522391512        0.23250186284542
C            1.18784640268519       -1.00762644116217        0.11964847152634
C            0.00046167930443       -0.29356759658207       -0.00151650368385
C           -1.18402296087244       -1.01278531110252       -0.12020316065922
N           -2.41055581550243       -0.38682880461804       -0.23218995473715
C           -3.56706064474445       -0.80066484713498        0.40339745094462
C           -3.78244260680999       -1.92019953720398        1.19562991490020
C           -5.05102547300800       -2.11195449420909        1.71246906266293
C           -6.08019261466322       -1.20378393349731        1.45936820930984
C           -5.87024253545076       -0.08216052860043        0.67553372617594
C           -4.60609965704490        0.13259480776448        0.14474533303199
C           -4.04149478891964        1.15069744197149       -0.69191920622885
C           -4.55778210937407        2.29951278345425       -1.27590658123177
C           -3.73852490720338        3.05599206808509       -2.09411014177651
C           -2.42485519570461        2.66438645308514       -2.35366743600902
C           -1.88537448990538        1.52876837906436       -1.77570858471276
C           -2.68628252078061        0.78541427415395       -0.91846319213474
N           -1.16519818460327       -2.39221846966059       -0.04758659012960
C            0.00592032382792       -2.97350875193163        0.00147412879301
N            1.17460780261752       -2.38730864469783        0.04976111963134
H            7.06808388115263       -1.36355578970832       -1.86567931153803
H            5.26520436314604       -2.96530877671831       -2.31001091325200
H            2.99592662617769       -2.60957887224132       -1.38032426832840
H            6.67309439983826        0.63344498417278       -0.46468222428068
H            5.57145508822605        2.61089007175010        1.10104548714498
H            4.10237646372670        3.97562820986937        2.54915894457084
H            1.79813654936401        3.27053515345402        3.01147019523444
H            0.86754580727796        1.23509329885223        2.00317270200297
H           -0.00177839959595        0.78393748956113       -0.00317961471862
H           -2.98185851209420       -2.61633666495153        1.38985825350311
H           -5.24644888684332       -2.97592055181091        2.32943654739815
H           -7.05606580789789       -1.38142623438657        1.88629053226453
H           -6.67266176011554        0.61193178751934        0.47689765099099
H           -5.58275099333590        2.58793188939021       -1.09939471046372
H           -4.12252482566263        3.95317524437600       -2.55592548375671
H           -1.81748535631935        3.25430649814841       -3.02332524122781
H           -0.87710305084405        1.22466705465711       -2.01185986911007
H            0.00816472292795       -4.05689031848308        0.00230152730545

          :  Hamiltonian                  GFN2-xTB          :
         :: gradient norm              0.000068482254 Eh/a0 ::
         :: HOMO-LUMO gap              0.371265255545 eV    ::
         :: SCC energy               -82.286060399980 Eh    ::
         :: -> dispersion             -0.067244126793 Eh    ::
         :: -> Gsolv                  -0.034282836601 Eh    ::
         :: repulsion energy           1.450069555599 Eh    ::

    * Orbital Energies and Occupations

         #    Occupation            Energy/Eh            Energy/eV
      -------------------------------------------------------------
         1        2.0000           -0.6884766             -18.7344
       ...           ...                  ...                  ...
        64        2.0000           -0.4289635             -11.6727
        65        2.0000           -0.4282615             -11.6536
        66        2.0000           -0.4261418             -11.5959
        67        2.0000           -0.4261282             -11.5955
        68        2.0000           -0.4153395             -11.3020
        69        2.0000           -0.4151020             -11.2955
        70        2.0000           -0.4079656             -11.1013
        71        2.0000           -0.3872478             -10.5375
        72        2.0000           -0.3872154             -10.5367
        73        1.9934           -0.3819952             -10.3946
        74        1.9697           -0.3805224             -10.3545
        75        1.0370           -0.3741337             -10.1807
        76        0.9992           -0.2700739              -7.3491 (HOMO)
        77        0.0008           -0.2564303              -6.9778 (LUMO)
        78        0.0000           -0.2512513              -6.8369
        79                         -0.2468683              -6.7176
        80                         -0.2325863              -6.3290
        81                         -0.2325440              -6.3278
        82                         -0.2064778              -5.6185
        83                         -0.1975325              -5.3751
        84                         -0.1952477              -5.3130
        85                         -0.1952054              -5.3118
        86                         -0.1309857              -3.5643
        87                         -0.1024810              -2.7887
       ...                                ...                  ...
       146                          0.7350350              20.0013
      -------------------------------------------------------------
                  HL-Gap            0.0136436 Eh            0.3713 eV

     #   Z          covCN         q      C6AA      α(0)
     1   6 C        2.919    -0.032    28.800     8.800
     2   6 C        2.922    -0.036    28.897     8.815
     3   6 C        2.908    -0.038    28.935     8.820
     4   6 C        3.070     0.050    26.817     8.491
     5   6 C        3.059    -0.016    28.340     8.730
     6   6 C        2.911    -0.031    28.768     8.795
     7   6 C        3.061    -0.015    28.331     8.729
     8   6 C        2.911    -0.031    28.763     8.794
     9   6 C        2.919    -0.034    28.851     8.808
    10   6 C        2.921    -0.037    28.924     8.819
    11   6 C        2.909    -0.043    29.066     8.840
    12   6 C        3.064     0.040    27.035     8.526
    13   7 N        2.796    -0.019    21.612     6.904
    14   6 C        2.891     0.118    25.403     8.263
    15   6 C        2.907    -0.069    29.712     8.938
    16   6 C        2.891     0.118    25.403     8.263
    17   7 N        2.796    -0.019    21.612     6.905
    18   6 C        3.071     0.050    26.816     8.491
    19   6 C        2.908    -0.038    28.935     8.820
    20   6 C        2.922    -0.036    28.897     8.815
    21   6 C        2.919    -0.032    28.800     8.800
    22   6 C        2.911    -0.031    28.768     8.795
    23   6 C        3.059    -0.016    28.340     8.730
    24   6 C        3.061    -0.015    28.331     8.729
    25   6 C        2.911    -0.031    28.763     8.794
    26   6 C        2.919    -0.034    28.851     8.808
    27   6 C        2.921    -0.037    28.923     8.819
    28   6 C        2.909    -0.043    29.065     8.840
    29   6 C        3.064     0.040    27.034     8.526
    30   7 N        1.836    -0.290    28.373     7.894
    31   6 C        2.859     0.161    24.526     8.117
    32   7 N        1.836    -0.290    28.372     7.894
    33   1 H        0.926     0.042     2.421     2.433
    34   1 H        0.926     0.040     2.448     2.447
    35   1 H        0.926     0.050     2.323     2.383
    36   1 H        0.926     0.043     2.404     2.425
    37   1 H        0.926     0.043     2.410     2.428
    38   1 H        0.926     0.041     2.439     2.442
    39   1 H        0.926     0.039     2.467     2.456
    40   1 H        0.926     0.032     2.563     2.503
    41   1 H        0.926     0.042     2.425     2.435
    42   1 H        0.926     0.050     2.323     2.384
    43   1 H        0.926     0.040     2.448     2.447
    44   1 H        0.926     0.042     2.421     2.433
    45   1 H        0.926     0.043     2.404     2.425
    46   1 H        0.926     0.043     2.410     2.428
    47   1 H        0.926     0.041     2.439     2.442
    48   1 H        0.926     0.039     2.467     2.456
    49   1 H        0.926     0.032     2.563     2.503
    50   1 H        0.925     0.035     2.522     2.484

molecular dipole:
                 x           y           z       tot (Debye)
 q only:       -0.002       1.051       0.000
   full:       -0.002       1.144      -0.000       2.908

 projected vibrational frequencies (cm⁻¹)
eigval :       -0.00    -0.00    -0.00     0.00     0.00     0.00
eigval :       19.63    22.29    29.94    63.14    72.63    78.28
eigval :       95.31   107.97   134.83   136.48   149.24   170.47
eigval :      198.90   217.10   234.53   269.29   271.07   292.15
eigval :      306.37   331.44   345.25   364.33   382.57   385.05
eigval :      406.41   412.86   413.22   432.15   432.65   471.89
eigval :      508.65   508.69   526.30   527.09   533.74   541.81
eigval :      574.17   578.98   587.90   600.58   602.66   621.23
eigval :      629.20   662.92   663.70   693.84   698.51   701.52
eigval :      735.62   751.49   757.65   759.99   761.05   767.29
eigval :      768.67   842.75   857.58   858.28   865.86   871.04
eigval :      882.37   891.13   891.28   896.06   896.57   898.57
eigval :      900.05   905.26   909.20   909.60   911.12   913.64
eigval :      964.77   965.00  1002.91  1004.10  1060.27  1061.22
eigval :     1063.46  1067.68  1092.55  1107.27  1108.57  1123.27
eigval :     1129.71  1159.87  1169.71  1170.36  1172.44  1172.76
eigval :     1193.22  1215.14  1215.97  1222.19  1239.75  1249.71
eigval :     1257.26  1265.04  1282.82  1291.57  1308.06  1316.54
eigval :     1317.17  1323.17  1338.15  1367.60  1367.62  1387.30
eigval :     1390.18  1392.90  1399.38  1416.28  1434.40  1448.58
eigval :     1453.13  1454.36  1476.69  1478.76  1532.37  1533.89
eigval :     1535.02  1556.69  1557.99  1558.89  1570.84  1571.44
eigval :     3037.17  3079.70  3079.72  3080.41  3080.61  3084.05
eigval :     3084.27  3087.27  3087.32  3091.37  3091.50  3094.38
eigval :     3094.74  3098.54  3099.36  3102.64  3102.76  3105.91

   temp. (K)  partition function   enthalpy   heat capacity  entropy
                                   cal/mol     cal/K/mol   cal/K/mol   J/K/mol
 298.15  VIB  0.124E+10            13352.785     90.418     80.012
         ROT  0.111E+08              888.752      2.981     35.226
         INT  0.138E+17            14241.538     93.399    115.238
         TR   0.805E+28             1481.254      4.968     43.907
         TOT                       15722.7915    98.3671   159.1449   665.8623

       T/K    H(0)-H(T)+PV         H(T)/Eh          T*S/Eh         G(T)/Eh
   ------------------------------------------------------------------------
    298.15    0.250559E-01    0.397556E+00    0.756149E-01    0.321941E+00
   ------------------------------------------------------------------------

         :::::::::::::::::::::::::::::::::::::::::::::::::::::
         ::                  THERMODYNAMIC                  ::
         :::::::::::::::::::::::::::::::::::::::::::::::::::::
         :: total free energy         -80.514049519303 Eh   ::
         ::.................................................::
         :: total energy              -80.835990848248 Eh   ::
         :: zero point energy           0.372500348855 Eh   ::
         :: G(RRHO) w/o ZPVE           -0.050559019910 Eh   ::
         :: G(RRHO) contrib.            0.321941328945 Eh   ::
         :::::::::::::::::::::::::::::::::::::::::::::::::::::

           -------------------------------------------------
          | TOTAL ENERGY              -80.835990848248 Eh   |
          | TOTAL ENTHALPY            -80.438434636250 Eh   |
          | TOTAL FREE ENERGY         -80.514049519303 Eh   |
          | GRADIENT NORM               0.000068594788 Eh/α |
          | HOMO-LUMO GAP               0.371260142957 eV   |
           -------------------------------------------------

 * finished run on 2025/08/25 at 13:39:38.623
