   * xtb version 6.7.1 (edcfbbe) compiled by 'albert@albert-system' on 2024-07-22

   ID    Z sym.   atoms
    1    6 C      1-12, 14-16, 18-29, 31
    2    7 N      13, 17, 30, 32
    3    1 H      33-50

          program call               : xtb data2507/toluene/Cbz-PYR/Cbz-PYR_toluene_S0_crest.xyz --gfn 2 --gbsa toluene --ohess vtight --parallel 40 --molden --ceasefiles --namespace data2507/toluene/Cbz-PYR/Cbz-PYR_toluene_S0_finalOpt
      * Solvation model:               GBSA
        Solvent                        toluene
        Solvent mass                       9.2140E+01 g/mol
          :  Hamiltonian                  GFN2-xTB          :
 * total energy  :   -80.9385143 Eh     change       -0.1342542E-08 Eh
 * total energy  :   -80.9385470 Eh     change       -0.3271762E-04 Eh
 * total energy  :   -80.9385572 Eh     change       -0.1015849E-04 Eh
 * total energy  :   -80.9385585 Eh     change       -0.1264434E-05 Eh
 * total energy  :   -80.9385590 Eh     change       -0.5789307E-06 Eh
 * total energy  :   -80.9385594 Eh     change       -0.3716294E-06 Eh
 * total energy  :   -80.9385598 Eh     change       -0.3338548E-06 Eh
 * total energy  :   -80.9385601 Eh     change       -0.3224615E-06 Eh
 * total energy  :   -80.9385604 Eh     change       -0.3613339E-06 Eh
 * total energy  :   -80.9385608 Eh     change       -0.3842414E-06 Eh
 * total energy  :   -80.9385612 Eh     change       -0.3456799E-06 Eh
 * total energy  :   -80.9385614 Eh     change       -0.2792152E-06 Eh
 * total energy  :   -80.9385617 Eh     change       -0.2434369E-06 Eh
 * total energy  :   -80.9385619 Eh     change       -0.2490784E-06 Eh
 * total energy  :   -80.9385622 Eh     change       -0.2616658E-06 Eh
 * total energy  :   -80.9385624 Eh     change       -0.2312435E-06 Eh
 * total energy  :   -80.9385626 Eh     change       -0.1354283E-06 Eh
 * total energy  :   -80.9385626 Eh     change       -0.5050573E-07 Eh
   *** GEOMETRY OPTIMIZATION CONVERGED AFTER 18 ITERATIONS ***

 final structure:
================
50
 xtb: 6.7.1 (edcfbbe)
C            3.97464541129807       -3.53428605492548       -0.13662324374118
C            2.68909965889407       -3.42769866099637        0.38376145887717
C            2.07961209089358       -2.19698773230230        0.55487628338834
C            2.77721231486362       -1.06045233806303        0.17690943031169
C            4.10220773663187       -1.16099902374083       -0.30106406517295
C            4.69705504343212       -2.40389122221939       -0.46746510740460
C            4.57994817883511        0.18396820608874       -0.48463073848900
C            5.78685240917108        0.70507145598103       -0.93123433280906
C            5.93212962659587        2.07761183720598       -0.98863777600484
C            4.89064364188861        2.92097377346093       -0.61241336866605
C            3.67972728678887        2.42168882453654       -0.16562988342415
C            3.53320411994598        1.04601726553021       -0.09752388663871
N            2.42441963909462        0.28338414290681        0.27276093237381
C            1.18706543941603        0.79586521484767        0.60161533528835
C            0.00061661412845        0.15610390002032        0.23951001259799
C           -1.19021343125768        0.78716776805391        0.60366004579856
N           -2.42512335226487        0.27033866589381        0.27414628339929
C           -3.54159308502755        1.03208790093392       -0.07697086728889
C           -3.70118509915788        2.40753783978614       -0.11343996969069
C           -4.91819039538977        2.90585058828384       -0.54467797894738
C           -5.95346030966675        2.06212905025680       -0.93657216745935
C           -5.79517485683939        0.69007392679668       -0.91146358953610
C           -4.58209092606000        0.17021807007141       -0.48055293623283
C           -4.09278906841861       -1.17455627025601       -0.32884146090110
C           -4.67885754355352       -2.41742399699628       -0.52347865302385
C           -3.94809394150944       -3.54991233916435       -0.21927597422773
C           -2.66323187658730       -3.44539941736719        0.30290197697312
C           -2.06248076658915       -2.21443228972496        0.50162006717918
C           -2.76795417905127       -1.07432174500972        0.14965425406062
N           -1.18215074385988        1.96081214890451        1.24823542167839
C           -0.00585436499898        2.48235689465006        1.51731449840755
N            1.17378610377593        1.97080089621484        1.24329056025807
H            4.41652862364400       -4.51135346361030       -0.26131707692909
H            2.15507556759222       -4.32175811235396        0.66927072827030
H            1.10041040569525       -2.13695703156553        1.00178276337604
H            5.70786847788793       -2.47913425273922       -0.83757932754319
H            6.59004386102148        0.04767837074141       -1.22703125219233
H            6.86343783611198        2.50498509800868       -1.32930444581671
H            5.02895258713196        3.99059704536434       -0.66774825850502
H            2.87970375166747        3.07882794814653        0.13358381459154
H            0.00455471344031       -0.73005418801732       -0.37028500128684
H           -2.90634936211799        3.06521165829296        0.19778035217029
H           -5.06615664568040        3.97519182189757       -0.57478789557751
H           -6.88994399110998        2.48870311936094       -1.26379875914342
H           -6.59321255623395        0.03209831463832       -1.21965371444512
H           -5.68937299024079       -2.49118277660910       -0.89467354181496
H           -4.38275033329825       -4.52711607399559       -0.36629517526411
H           -2.12232733066462       -4.34157985638745        0.56807289779417
H           -1.08350175195799       -2.15919394147284        0.94919055804964
H           -0.00893337301069        3.43794463944238        2.02763066453276

          :  Hamiltonian                  GFN2-xTB          :
         :: gradient norm              0.000032714330 Eh/a0 ::
         :: HOMO-LUMO gap              2.753993755038 eV    ::
         :: SCC energy               -82.406863314188 Eh    ::
         :: -> dispersion             -0.068388389693 Eh    ::
         :: -> Gsolv                  -0.033616634216 Eh    ::
         :: repulsion energy           1.468300695730 Eh    ::

    * Orbital Energies and Occupations

         #    Occupation            Energy/Eh            Energy/eV
      -------------------------------------------------------------
         1        2.0000           -0.7004433             -19.0600
       ...           ...                  ...                  ...
        63        2.0000           -0.4319848             -11.7549
        64        2.0000           -0.4308528             -11.7241
        65        2.0000           -0.4265980             -11.6083
        66        2.0000           -0.4264019             -11.6030
        67        2.0000           -0.4263491             -11.6016
        68        2.0000           -0.4154885             -11.3060
        69        2.0000           -0.4149041             -11.2901
        70        2.0000           -0.4133693             -11.2484
        71        2.0000           -0.3886033             -10.5744
        72        2.0000           -0.3885191             -10.5721
        73        2.0000           -0.3872380             -10.5373
        74        2.0000           -0.3804927             -10.3537
        75        2.0000           -0.3773006             -10.2669 (HOMO)
        76                         -0.2760932              -7.5129 (LUMO)
        77                         -0.2665050              -7.2520
        78                         -0.2534074              -6.8956
        79                         -0.2517617              -6.8508
        80                         -0.2315392              -6.3005
        81                         -0.2313599              -6.2956
        82                         -0.2090850              -5.6895
        83                         -0.1969881              -5.3603
        84                         -0.1955915              -5.3223
        85                         -0.1953714              -5.3163
        86                         -0.1371881              -3.7331
       ...                                ...                  ...
       146                          0.7349066              19.9978
      -------------------------------------------------------------
                  HL-Gap            0.1012074 Eh            2.7540 eV

     #   Z          covCN         q      C6AA      α(0)
     1   6 C        2.920    -0.038    28.933     8.821
     2   6 C        2.923    -0.033    28.817     8.803
     3   6 C        2.911    -0.050    29.240     8.867
     4   6 C        3.057     0.046    26.911     8.507
     5   6 C        3.064    -0.012    28.250     8.716
     6   6 C        2.913    -0.032    28.801     8.800
     7   6 C        3.063    -0.014    28.302     8.724
     8   6 C        2.913    -0.033    28.830     8.805
     9   6 C        2.920    -0.038    28.934     8.821
    10   6 C        2.924    -0.032    28.798     8.800
    11   6 C        2.910    -0.047    29.157     8.854
    12   6 C        3.061     0.054    26.736     8.479
    13   7 N        2.801    -0.051    22.221     7.001
    14   6 C        2.917     0.174    24.268     8.078
    15   6 C        2.911    -0.093    30.339     9.032
    16   6 C        2.916     0.174    24.271     8.079
    17   7 N        2.801    -0.050    22.214     7.000
    18   6 C        3.060     0.054    26.738     8.480
    19   6 C        2.910    -0.047    29.160     8.855
    20   6 C        2.924    -0.032    28.797     8.800
    21   6 C        2.920    -0.037    28.932     8.821
    22   6 C        2.913    -0.033    28.830     8.805
    23   6 C        3.063    -0.014    28.300     8.724
    24   6 C        3.064    -0.012    28.247     8.715
    25   6 C        2.913    -0.032    28.801     8.800
    26   6 C        2.920    -0.037    28.930     8.820
    27   6 C        2.923    -0.033    28.817     8.803
    28   6 C        2.911    -0.050    29.241     8.867
    29   6 C        3.056     0.046    26.914     8.508
    30   7 N        1.842    -0.291    28.381     7.895
    31   6 C        2.910     0.159    24.562     8.127
    32   7 N        1.842    -0.291    28.384     7.896
    33   1 H        0.926     0.040     2.445     2.445
    34   1 H        0.926     0.040     2.449     2.447
    35   1 H        0.926     0.026     2.638     2.540
    36   1 H        0.926     0.043     2.410     2.428
    37   1 H        0.926     0.042     2.428     2.437
    38   1 H        0.926     0.039     2.456     2.451
    39   1 H        0.926     0.040     2.452     2.449
    40   1 H        0.926     0.046     2.374     2.410
    41   1 H        0.926     0.049     2.331     2.388
    42   1 H        0.926     0.047     2.362     2.403
    43   1 H        0.926     0.040     2.450     2.448
    44   1 H        0.926     0.039     2.455     2.450
    45   1 H        0.926     0.042     2.427     2.436
    46   1 H        0.926     0.043     2.409     2.427
    47   1 H        0.926     0.040     2.444     2.445
    48   1 H        0.926     0.040     2.447     2.446
    49   1 H        0.926     0.027     2.629     2.535
    50   1 H        0.925     0.042     2.423     2.434

molecular dipole:
                 x           y           z       tot (Debye)
 q only:       -0.015      -0.674      -0.590
   full:       -0.015      -0.844      -0.607       2.642

 projected vibrational frequencies (cm⁻¹)
eigval :       -0.00    -0.00    -0.00    -0.00     0.00     0.00
eigval :       12.07    24.66    34.17    51.28    78.98    80.26
eigval :      101.71   108.02   138.19   139.92   153.66   194.62
eigval :      198.04   214.19   248.81   270.95   276.07   295.21
eigval :      307.52   339.09   345.78   387.85   393.57   404.55
eigval :      420.72   422.09   426.81   434.87   443.14   515.43
eigval :      517.25   526.53   536.70   538.95   539.87   579.63
eigval :      580.18   592.87   598.52   630.44   634.33   653.34
eigval :      674.34   674.67   707.36   707.95   718.36   731.03
eigval :      749.72   757.33   766.99   770.18   770.50   778.70
eigval :      781.17   843.82   861.97   873.36   875.69   881.57
eigval :      891.83   899.00   900.21   902.56   903.83   906.92
eigval :      912.33   920.23   920.68   924.12   926.64   934.23
eigval :     1009.29  1012.77  1020.80  1027.76  1068.80  1071.42
eigval :     1072.76  1079.83  1104.21  1120.44  1146.28  1150.70
eigval :     1161.67  1174.36  1175.81  1177.96  1178.87  1200.88
eigval :     1222.49  1227.36  1229.28  1237.50  1244.73  1275.67
eigval :     1278.83  1285.63  1293.82  1296.73  1320.82  1326.96
eigval :     1351.18  1354.22  1355.51  1358.10  1407.88  1412.07
eigval :     1420.70  1422.92  1427.40  1456.30  1469.31  1469.66
eigval :     1482.02  1482.61  1508.73  1553.51  1577.23  1577.40
eigval :     1588.61  1589.34  1597.42  1597.72  1609.49  1609.70
eigval :     3045.86  3078.92  3079.00  3080.63  3081.16  3086.17
eigval :     3086.24  3087.85  3088.38  3095.55  3095.80  3097.17
eigval :     3097.89  3103.01  3105.29  3113.33  3114.97  3128.46

   temp. (K)  partition function   enthalpy   heat capacity  entropy
                                   cal/mol     cal/K/mol   cal/K/mol   J/K/mol
 298.15  VIB  0.108E+10            13003.299     88.134     78.181
         ROT  0.224E+08              888.752      2.981     36.614
         INT  0.242E+17            13892.051     91.115    114.795
         TR   0.805E+28             1481.254      4.968     43.907
         TOT                       15373.3052    96.0833   158.7019   664.0088

       T/K    H(0)-H(T)+PV         H(T)/Eh          T*S/Eh         G(T)/Eh
   ------------------------------------------------------------------------
    298.15    0.244989E-01    0.402213E+00    0.754044E-01    0.326808E+00
   ------------------------------------------------------------------------

         :::::::::::::::::::::::::::::::::::::::::::::::::::::
         ::                  THERMODYNAMIC                  ::
         :::::::::::::::::::::::::::::::::::::::::::::::::::::
         :: total free energy         -80.611754182515 Eh   ::
         ::.................................................::
         :: total energy              -80.938562618862 Eh   ::
         :: zero point energy           0.377713911020 Eh   ::
         :: G(RRHO) w/o ZPVE           -0.050905474674 Eh   ::
         :: G(RRHO) contrib.            0.326808436346 Eh   ::
         :::::::::::::::::::::::::::::::::::::::::::::::::::::

           -------------------------------------------------
          | TOTAL ENERGY              -80.938562618862 Eh   |
          | TOTAL ENTHALPY            -80.536349786522 Eh   |
          | TOTAL FREE ENERGY         -80.611754182515 Eh   |
          | GRADIENT NORM               0.000032720248 Eh/α |
          | HOMO-LUMO GAP               2.753993619053 eV   |
           -------------------------------------------------

 * finished run on 2025/08/25 at 13:37:52.828
