   * xtb version 6.7.1 (edcfbbe) compiled by 'albert@albert-system' on 2024-07-22

   ID    Z sym.   atoms
    1    6 C      1-12, 14-16, 18-29, 31
    2    7 N      13, 17, 30, 32
    3    1 H      33-50

          program call               : xtb data2507/toluene/Cbz-PYR/Cbz-PYR_toluene_S0_finalOpt.xtbopt.xyz --gfn 2 --uhf 2 --gbsa toluene --ohess vtight --parallel 40 --molden --ceasefiles --namespace data2507/toluene/Cbz-PYR/Cbz-PYR_toluene_T1_preOpt
      * Solvation model:               GBSA
        Solvent                        toluene
        Solvent mass                       9.2140E+01 g/mol
          :  Hamiltonian                  GFN2-xTB          :
 * total energy  :   -80.8313068 Eh     change       -0.2174943E-08 Eh
 * total energy  :   -80.8341556 Eh     change       -0.2848782E-02 Eh
 * total energy  :   -80.8350082 Eh     change       -0.8526345E-03 Eh
 * total energy  :   -80.8350921 Eh     change       -0.8389853E-04 Eh
 * total energy  :   -80.8351370 Eh     change       -0.4486358E-04 Eh
 * total energy  :   -80.8351472 Eh     change       -0.1021238E-04 Eh
 * total energy  :   -80.8351569 Eh     change       -0.9737585E-05 Eh
 * total energy  :   -80.8351609 Eh     change       -0.3986865E-05 Eh
 * total energy  :   -80.8351644 Eh     change       -0.3500950E-05 Eh
 * total energy  :   -80.8351666 Eh     change       -0.2234750E-05 Eh
 * total energy  :   -80.8351735 Eh     change       -0.1365107E-05 Eh
 * total energy  :   -80.8351743 Eh     change       -0.8107181E-06 Eh
 * total energy  :   -80.8351751 Eh     change       -0.7239160E-06 Eh
 * total energy  :   -80.8351757 Eh     change       -0.6311384E-06 Eh
 * total energy  :   -80.8351761 Eh     change       -0.4576255E-06 Eh
 * total energy  :   -80.8351766 Eh     change       -0.4532302E-06 Eh
 * total energy  :   -80.8351769 Eh     change       -0.3038667E-06 Eh
 * total energy  :   -80.8351770 Eh     change       -0.1390523E-06 Eh
 * total energy  :   -80.8351771 Eh     change       -0.1789090E-07 Eh
   *** GEOMETRY OPTIMIZATION CONVERGED AFTER 21 ITERATIONS ***

 final structure:
================
50
 xtb: 6.7.1 (edcfbbe)
C            3.99763982933949       -3.53914647320146       -0.14040660057691
C            2.70806777888113       -3.43791146317751        0.38303389803257
C            2.09850568045716       -2.20825501813746        0.55308012461770
C            2.79824218871957       -1.06864802643752        0.17971777984196
C            4.13241750062659       -1.16298388952438       -0.30320283192413
C            4.72139647730754       -2.40832874427449       -0.47377080779121
C            4.59418788868378        0.18099456477964       -0.48994855718382
C            5.79737782734136        0.73225839467282       -0.90775461590691
C            5.91183074600233        2.11039733270038       -0.96859489035960
C            4.84675248975234        2.93976689918172       -0.61428564724684
C            3.63747926179888        2.41449793368892       -0.19611700597485
C            3.51742940897647        1.03328501993847       -0.12651833368286
N            2.43264477522576        0.26393123004067        0.25527328873981
C            1.19042715839408        0.76333350276525        0.60366946794395
C            0.00049603754737        0.15555806860679        0.21642885433556
C           -1.19385538252647        0.75507394867000        0.60331512642494
N           -2.43318114215978        0.25111927207886        0.25201490168346
C           -3.52468529145083        1.01863124191619       -0.11518803453782
C           -3.65565320316035        2.39981118698146       -0.16296976880842
C           -4.87028802166998        2.92253169007591       -0.56858526768122
C           -5.93037782946296        2.09091628913010       -0.93255378483102
C           -5.80509621763052        0.71297252121486       -0.89414233204199
C           -4.59640609918181        0.16434996438555       -0.48882741056689
C           -4.12448025843698       -1.17889429535307       -0.32499029106051
C           -4.70549118429033       -2.42512918001549       -0.51515920628168
C           -3.97382488241512       -3.55644958416086       -0.20164126426859
C           -2.68423404758338       -3.45484888448045        0.32168371894762
C           -2.08255500267885       -2.22409891249523        0.51089573908262
C           -2.78986139461706       -1.08290101945448        0.15681000068171
N           -1.17568359600802        1.94962592930670        1.29879100659635
C           -0.00700128287634        2.47512504924725        1.56020074877229
N            1.16536124903263        1.95893150128173        1.29683035814491
H            4.44035626284739       -4.51574310672814       -0.26638129437980
H            2.17896879081860       -4.33437142682714        0.66872858631898
H            1.11673803103463       -2.14116225125624        0.99407785718471
H            5.72925295313298       -2.48797491589000       -0.85149781833883
H            6.62610524039138        0.09566582088905       -1.17789240580985
H            6.83969960313910        2.55529794048319       -1.29607512108147
H            4.96684153740650        4.01092648822618       -0.67348001761916
H            2.81136351210011        3.05061079075408        0.08075476604040
H            0.00431017290517       -0.70244916498643       -0.43664208856365
H           -2.83338605652535        3.03785347284660        0.12078388800172
H           -4.99852901954906        3.99357339813135       -0.61025732842161
H           -6.86253417687254        2.53392233999307       -1.25028139094254
H           -6.62983765486467        0.07435288059182       -1.17162773778147
H           -5.71343449528786       -2.50500509851856       -0.89261225524242
H           -4.41011835553397       -4.53383831148607       -0.34299728497301
H           -2.14861070425387       -4.35214381698927        0.59219242869042
H           -1.10061353350786       -2.15893994000030        0.95148216118799
H           -0.01038598627046        3.42650794522309        2.07924400822606

          :  Hamiltonian                  GFN2-xTB          :
         :: gradient norm              0.000038377029 Eh/a0 ::
         :: HOMO-LUMO gap              0.369381362425 eV    ::
         :: SCC energy               -82.285573963248 Eh    ::
         :: -> dispersion             -0.068201964738 Eh    ::
         :: -> Gsolv                  -0.033906868891 Eh    ::
         :: repulsion energy           1.450396848394 Eh    ::

    * Orbital Energies and Occupations

         #    Occupation            Energy/Eh            Energy/eV
      -------------------------------------------------------------
         1        2.0000           -0.6880944             -18.7240
       ...           ...                  ...                  ...
        64        2.0000           -0.4305795             -11.7167
        65        2.0000           -0.4266076             -11.6086
        66        2.0000           -0.4259088             -11.5896
        67        2.0000           -0.4258310             -11.5875
        68        2.0000           -0.4153745             -11.3029
        69        2.0000           -0.4151219             -11.2960
        70        2.0000           -0.4087574             -11.1229
        71        2.0000           -0.3872817             -10.5385
        72        2.0000           -0.3871537             -10.5350
        73        1.9996           -0.3836045             -10.4384
        74        1.5325           -0.3763054             -10.2398
        75        1.4680           -0.3760599             -10.2331
        76        0.9992           -0.2700488              -7.3484 (HOMO)
        77        0.0008           -0.2564745              -6.9790 (LUMO)
        78        0.0000           -0.2513223              -6.8388
        79                         -0.2467855              -6.7154
        80                         -0.2326496              -6.3307
        81                         -0.2325603              -6.3283
        82                         -0.2073688              -5.6428
        83                         -0.1963128              -5.3419
        84                         -0.1952951              -5.3142
        85                         -0.1951466              -5.3102
        86                         -0.1309675              -3.5638
        87                         -0.1016444              -2.7659
       ...                                ...                  ...
       146                          0.7358250              20.0228
      -------------------------------------------------------------
                  HL-Gap            0.0135743 Eh            0.3694 eV

     #   Z          covCN         q      C6AA      α(0)
     1   6 C        2.919    -0.034    28.846     8.807
     2   6 C        2.921    -0.037    28.920     8.819
     3   6 C        2.909    -0.042    29.042     8.837
     4   6 C        3.067     0.041    27.018     8.523
     5   6 C        3.061    -0.015    28.330     8.728
     6   6 C        2.911    -0.030    28.757     8.793
     7   6 C        3.060    -0.016    28.347     8.731
     8   6 C        2.911    -0.031    28.764     8.794
     9   6 C        2.919    -0.032    28.807     8.801
    10   6 C        2.922    -0.036    28.896     8.815
    11   6 C        2.909    -0.037    28.927     8.819
    12   6 C        3.071     0.050    26.811     8.490
    13   7 N        2.796    -0.019    21.611     6.904
    14   6 C        2.890     0.118    25.412     8.265
    15   6 C        2.905    -0.070    29.744     8.943
    16   6 C        2.889     0.118    25.412     8.265
    17   7 N        2.795    -0.019    21.608     6.904
    18   6 C        3.071     0.050    26.814     8.491
    19   6 C        2.909    -0.037    28.929     8.819
    20   6 C        2.922    -0.036    28.898     8.816
    21   6 C        2.919    -0.032    28.808     8.802
    22   6 C        2.911    -0.031    28.765     8.795
    23   6 C        3.060    -0.016    28.349     8.731
    24   6 C        3.061    -0.015    28.332     8.729
    25   6 C        2.911    -0.030    28.758     8.793
    26   6 C        2.919    -0.034    28.847     8.808
    27   6 C        2.921    -0.037    28.923     8.819
    28   6 C        2.909    -0.042    29.045     8.837
    29   6 C        3.066     0.041    27.023     8.524
    30   7 N        1.836    -0.289    28.346     7.890
    31   6 C        2.858     0.160    24.531     8.118
    32   7 N        1.836    -0.289    28.349     7.890
    33   1 H        0.926     0.041     2.435     2.440
    34   1 H        0.926     0.039     2.456     2.450
    35   1 H        0.926     0.030     2.582     2.513
    36   1 H        0.926     0.043     2.409     2.427
    37   1 H        0.926     0.043     2.403     2.424
    38   1 H        0.926     0.042     2.422     2.434
    39   1 H        0.926     0.040     2.449     2.447
    40   1 H        0.926     0.048     2.340     2.392
    41   1 H        0.926     0.041     2.436     2.441
    42   1 H        0.926     0.049     2.334     2.389
    43   1 H        0.926     0.040     2.450     2.448
    44   1 H        0.926     0.042     2.423     2.434
    45   1 H        0.926     0.043     2.405     2.425
    46   1 H        0.926     0.043     2.410     2.428
    47   1 H        0.926     0.041     2.437     2.441
    48   1 H        0.926     0.039     2.457     2.451
    49   1 H        0.926     0.031     2.579     2.511
    50   1 H        0.925     0.035     2.513     2.479

molecular dipole:
                 x           y           z       tot (Debye)
 q only:        0.009      -0.761      -0.754
   full:        0.009      -0.840      -0.786       2.925

 projected vibrational frequencies (cm⁻¹)
eigval :       -0.00    -0.00    -0.00     0.00     0.00     0.00
eigval :       12.57    25.32    32.90    56.94    67.98    71.84
eigval :       98.94   104.75   134.63   135.24   148.15   175.26
eigval :      191.52   201.35   244.97   265.95   268.55   280.70
eigval :      302.34   329.94   342.65   375.04   378.68   387.15
eigval :      393.98   408.33   411.69   430.40   433.39   460.73
eigval :      507.66   508.58   523.92   524.28   531.46   544.99
eigval :      566.17   578.20   583.79   592.17   609.95   619.66
eigval :      627.75   661.37   662.88   692.31   696.10   699.88
eigval :      733.41   752.12   755.93   757.60   760.62   765.19
eigval :      767.86   838.30   854.79   857.31   860.02   868.13
eigval :      882.59   890.73   891.85   893.36   893.43   897.00
eigval :      899.99   903.42   906.66   908.39   913.07   913.32
eigval :      958.52   963.53  1002.58  1003.05  1058.22  1059.72
eigval :     1061.47  1068.31  1085.24  1102.20  1108.59  1120.29
eigval :     1121.24  1156.01  1168.04  1168.64  1169.78  1172.74
eigval :     1192.76  1210.24  1214.27  1219.24  1238.88  1244.63
eigval :     1255.03  1259.53  1281.59  1291.47  1302.95  1313.28
eigval :     1314.59  1321.64  1333.93  1366.20  1367.76  1384.25
eigval :     1387.97  1389.80  1397.66  1414.26  1435.92  1447.38
eigval :     1452.45  1453.25  1475.20  1479.37  1531.46  1532.17
eigval :     1533.67  1555.53  1556.93  1557.94  1570.05  1570.88
eigval :     3031.77  3079.59  3079.88  3081.53  3081.75  3086.46
eigval :     3086.77  3087.56  3088.02  3093.28  3093.48  3094.32
eigval :     3094.79  3096.43  3099.60  3099.82  3100.88  3103.47

   temp. (K)  partition function   enthalpy   heat capacity  entropy
                                   cal/mol     cal/K/mol   cal/K/mol   J/K/mol
 298.15  VIB  0.211E+10            13440.085     90.599     80.973
         ROT  0.225E+08              888.752      2.981     36.623
         INT  0.476E+17            14328.837     93.580    117.596
         TR   0.805E+28             1481.254      4.968     43.907
         TOT                       15810.0912    98.5478   161.5031   675.7289

       T/K    H(0)-H(T)+PV         H(T)/Eh          T*S/Eh         G(T)/Eh
   ------------------------------------------------------------------------
    298.15    0.251950E-01    0.397105E+00    0.767353E-01    0.320370E+00
   ------------------------------------------------------------------------

         :::::::::::::::::::::::::::::::::::::::::::::::::::::
         ::                  THERMODYNAMIC                  ::
         :::::::::::::::::::::::::::::::::::::::::::::::::::::
         :: total free energy         -80.514807192233 Eh   ::
         ::.................................................::
         :: total energy              -80.835177114915 Eh   ::
         :: zero point energy           0.371910270505 Eh   ::
         :: G(RRHO) w/o ZPVE           -0.051540347823 Eh   ::
         :: G(RRHO) contrib.            0.320369922682 Eh   ::
         :::::::::::::::::::::::::::::::::::::::::::::::::::::

           -------------------------------------------------
          | TOTAL ENERGY              -80.835177114915 Eh   |
          | TOTAL ENTHALPY            -80.438071860432 Eh   |
          | TOTAL FREE ENERGY         -80.514807192233 Eh   |
          | GRADIENT NORM               0.000038848861 Eh/α |
          | HOMO-LUMO GAP               0.369375095402 eV   |
           -------------------------------------------------

 * finished run on 2025/08/25 at 13:37:55.189
