   * xtb version 6.7.1 (edcfbbe) compiled by 'albert@albert-system' on 2024-07-22

   ID    Z sym.   atoms
    1    6 C      1-4, 6-24, 26-38
    2    7 N      5, 25
    3    1 H      39-62

          program call               : xtb data2507/toluene/oCBP/oCBP_toluene_S0_crest.xyz --gfn 2 --gbsa toluene --ohess vtight --parallel 40 --molden --ceasefiles --namespace data2507/toluene/oCBP/oCBP_toluene_S0_finalOpt
      * Solvation model:               GBSA
        Solvent                        toluene
        Solvent mass                       9.2140E+01 g/mol
          :  Hamiltonian                  GFN2-xTB          :
 * total energy  :   -95.2819607 Eh     change       -0.1087173E-08 Eh
 * total energy  :   -95.2820035 Eh     change       -0.4283292E-04 Eh
 * total energy  :   -95.2820507 Eh     change       -0.4721416E-04 Eh
 * total energy  :   -95.2820696 Eh     change       -0.1888724E-04 Eh
 * total energy  :   -95.2821184 Eh     change       -0.4874761E-04 Eh
 * total energy  :   -95.2821378 Eh     change       -0.1944498E-04 Eh
 * total energy  :   -95.2821551 Eh     change       -0.1725952E-04 Eh
 * total energy  :   -95.2821693 Eh     change       -0.1424871E-04 Eh
 * total energy  :   -95.2821831 Eh     change       -0.1377414E-04 Eh
 * total energy  :   -95.2821974 Eh     change       -0.1428168E-04 Eh
 * total energy  :   -95.2822658 Eh     change       -0.5551826E-06 Eh
 * total energy  :   -95.2822664 Eh     change       -0.5612169E-06 Eh
 * total energy  :   -95.2822669 Eh     change       -0.5225592E-06 Eh
 * total energy  :   -95.2822674 Eh     change       -0.4671275E-06 Eh
 * total energy  :   -95.2822678 Eh     change       -0.4131983E-06 Eh
 * total energy  :   -95.2822682 Eh     change       -0.3814259E-06 Eh
 * total energy  :   -95.2822685 Eh     change       -0.3709534E-06 Eh
 * total energy  :   -95.2822689 Eh     change       -0.3700234E-06 Eh
 * total energy  :   -95.2822689 Eh     change       -0.3420411E-08 Eh
   *** GEOMETRY OPTIMIZATION CONVERGED AFTER 44 ITERATIONS ***

 final structure:
================
62
 xtb: 6.7.1 (edcfbbe)
C            3.62242630747565       -2.15906136730564       -1.83661136768535
C            2.59458785841991       -2.20845843662030       -2.76407542900939
C            1.49613648599872       -1.38704883750496       -2.60889971373322
C            1.39128289462346       -0.52311639643336       -1.52016826085571
N            0.24573003163611        0.28618149269694       -1.43183629817706
C           -1.04904333938859       -0.17847817042941       -1.56973794639667
C           -1.51217283255571       -1.48287152720997       -1.66388610975569
C           -2.87522741079975       -1.67609798298256       -1.77634248928652
C           -3.76410415385612       -0.60370053306651       -1.78563421932809
C           -3.31021078524245        0.69471749311052       -1.67097810389371
C           -1.94380136730890        0.91447429708983       -1.56117957279793
C           -1.13970220714377        2.09637530100769       -1.42898527407567
C           -1.43773994117438        3.45166500595423       -1.38235444043809
C           -0.39916110660940        4.35635874605267       -1.28382301976444
C            0.92476511328628        3.92314758461008       -1.25941730216246
C            1.24624437633121        2.58011198067891       -1.31017212918721
C            0.20571428837606        1.66417966654813       -1.36519402715960
C            2.42022451706195       -0.47367312602701       -0.57287547851285
C            2.42202089300810        0.41788522586024        0.60624276452589
C            3.55116140139503        1.21110417648605        0.81468468672458
C            3.64470483405962        2.07547470513178        1.88702972002441
C            2.60490462514335        2.14927618034382        2.79938277647456
C            1.49001625365324        1.35356733045653        2.62838823439524
C            1.38089392937685        0.49158186878911        1.53852597865057
N            0.21838087438822       -0.29122366103889        1.43403611631044
C            0.14779723697822       -1.66802663944437        1.36781443238010
C            1.16787304223804       -2.60742496977693        1.32760094525984
C            0.81667280488964       -3.94287573471778        1.27399197314379
C           -0.51697124598097       -4.34584715271525        1.28103269920712
C           -1.53596699506104       -3.41765783466194        1.36440060041711
C           -1.20788076575640       -2.06938431151812        1.41355170109446
C           -1.98653271605091       -0.86927185148775        1.53378161275717
C           -3.34891986021972       -0.61816114740678        1.62484313998255
C           -3.77450694794323        0.69041316504021        1.73252718015481
C           -2.86126572172023        1.74217071003170        1.73488596162091
C           -1.50160682044617        1.51771542151632        1.64104559958547
C           -1.06722618880361        0.20297388960778        1.55395022903878
C            3.53353252294353       -1.29288234080908       -0.76531785119709
H            4.49048808600155       -2.79089071504675       -1.94926447429351
H            2.65377328972446       -2.87356993828546       -3.61239781216649
H            0.70438566350919       -1.39274464746925       -3.34354367004742
H           -0.83387454497385       -2.32233185523609       -1.63757262716178
H           -3.25895462090664       -2.68275768147335       -1.85565090637553
H           -4.82325330048560       -0.79600269628411       -1.87586684891079
H           -3.99978951172674        1.52539177935997       -1.66366726992100
H           -2.46356482638977        3.78576555991729       -1.42684651757532
H           -0.61038512977323        5.41494703124338       -1.24036223834677
H            1.71952519378148        4.65311007247152       -1.20712630450637
H            2.27608225036546        2.26076740449646       -1.31636744927142
H            4.35827730709872        1.16062183201021        0.09754364443933
H            4.52546808630926        2.68702445544848        2.01222173777506
H            2.66708123685940        2.81340450000707        3.64826827241018
H            0.68807785127557        1.37821976897128        3.35146777231655
H            2.20450360208880       -2.31147210136879        1.34729683816640
H            1.59518260415713       -4.69085139823999        1.23314271571006
H           -0.75157231544139       -5.39944867707468        1.23598482609308
H           -2.56962130434822       -3.72837890208911        1.39501148015430
H           -4.05726462261299       -1.43277383310214        1.60862503849841
H           -4.83011749554254        0.90700774647246        1.80809572812994
H           -3.22288995928723        2.75741015022851        1.80837571894705
H           -0.80401616007651        2.34146698521973        1.62341960328831
H            4.33123980937615       -1.26125395373736       -0.03665399108343

          :  Hamiltonian                  GFN2-xTB          :
         :: gradient norm              0.000046716880 Eh/a0 ::
         :: HOMO-LUMO gap              2.825967855375 eV    ::
         :: SCC energy               -97.104124202120 Eh    ::
         :: -> dispersion             -0.108060446335 Eh    ::
         :: -> Gsolv                  -0.031476341971 Eh    ::
         :: repulsion energy           1.821855292611 Eh    ::

    * Orbital Energies and Occupations

         #    Occupation            Energy/Eh            Energy/eV
      -------------------------------------------------------------
         1        2.0000           -0.6749921             -18.3675
       ...           ...                  ...                  ...
        77        2.0000           -0.4183985             -11.3852
        78        2.0000           -0.4174649             -11.3598
        79        2.0000           -0.4161034             -11.3228
        80        2.0000           -0.4158953             -11.3171
        81        2.0000           -0.4118252             -11.2063
        82        2.0000           -0.4099465             -11.1552
        83        2.0000           -0.4047623             -11.0141
        84        2.0000           -0.4012035             -10.9173
        85        2.0000           -0.3960584             -10.7773
        86        2.0000           -0.3779949             -10.2858
        87        2.0000           -0.3758854             -10.2284
        88        2.0000           -0.3658398              -9.9550
        89        2.0000           -0.3567260              -9.7070 (HOMO)
        90                         -0.2528736              -6.8810 (LUMO)
        91                         -0.2456760              -6.6852
        92                         -0.2429293              -6.6104
        93                         -0.2337876              -6.3617
        94                         -0.2336157              -6.3570
        95                         -0.2204995              -6.0001
        96                         -0.2196353              -5.9766
        97                         -0.2135111              -5.8099
        98                         -0.1912929              -5.2053
        99                         -0.1879624              -5.1147
       100                         -0.1862153              -5.0672
       ...                                ...                  ...
       176                          0.7480777              20.3562
      -------------------------------------------------------------
                  HL-Gap            0.1038524 Eh            2.8260 eV

     #   Z          covCN         q      C6AA      α(0)
     1   6 C        2.917    -0.033    28.826     8.804
     2   6 C        2.919    -0.030    28.739     8.791
     3   6 C        2.925    -0.043    29.065     8.841
     4   6 C        2.913     0.062    26.621     8.461
     5   7 N        2.802    -0.052    22.238     7.004
     6   6 C        3.080     0.051    26.770     8.482
     7   6 C        2.910    -0.050    29.237     8.866
     8   6 C        2.924    -0.034    28.848     8.808
     9   6 C        2.920    -0.042    29.041     8.837
    10   6 C        2.913    -0.035    28.859     8.809
    11   6 C        3.067    -0.019    28.405     8.739
    12   6 C        3.070    -0.018    28.390     8.737
    13   6 C        2.913    -0.035    28.861     8.809
    14   6 C        2.919    -0.043    29.074     8.842
    15   6 C        2.924    -0.036    28.899     8.816
    16   6 C        2.910    -0.054    29.334     8.881
    17   6 C        3.074     0.050    26.793     8.487
    18   6 C        2.976     0.001    28.000     8.680
    19   6 C        2.976     0.001    28.000     8.680
    20   6 C        2.929    -0.034    28.835     8.806
    21   6 C        2.917    -0.033    28.826     8.804
    22   6 C        2.919    -0.030    28.739     8.791
    23   6 C        2.925    -0.043    29.066     8.841
    24   6 C        2.913     0.062    26.621     8.461
    25   7 N        2.802    -0.052    22.239     7.004
    26   6 C        3.074     0.050    26.793     8.487
    27   6 C        2.910    -0.054    29.334     8.881
    28   6 C        2.924    -0.036    28.899     8.816
    29   6 C        2.919    -0.043    29.074     8.842
    30   6 C        2.913    -0.035    28.861     8.809
    31   6 C        3.070    -0.018    28.390     8.737
    32   6 C        3.067    -0.019    28.405     8.739
    33   6 C        2.913    -0.035    28.859     8.809
    34   6 C        2.920    -0.042    29.041     8.837
    35   6 C        2.924    -0.034    28.848     8.808
    36   6 C        2.910    -0.050    29.237     8.866
    37   6 C        3.080     0.051    26.770     8.482
    38   6 C        2.929    -0.034    28.835     8.806
    39   1 H        0.926     0.042     2.423     2.434
    40   1 H        0.926     0.041     2.430     2.438
    41   1 H        0.926     0.040     2.443     2.444
    42   1 H        0.926     0.025     2.653     2.547
    43   1 H        0.926     0.029     2.594     2.518
    44   1 H        0.926     0.028     2.613     2.528
    45   1 H        0.926     0.029     2.601     2.522
    46   1 H        0.926     0.029     2.594     2.518
    47   1 H        0.926     0.028     2.615     2.529
    48   1 H        0.926     0.030     2.593     2.518
    49   1 H        0.926     0.027     2.625     2.534
    50   1 H        0.926     0.042     2.426     2.436
    51   1 H        0.926     0.042     2.423     2.434
    52   1 H        0.926     0.041     2.430     2.438
    53   1 H        0.926     0.040     2.443     2.444
    54   1 H        0.926     0.027     2.625     2.534
    55   1 H        0.926     0.030     2.592     2.518
    56   1 H        0.926     0.028     2.615     2.529
    57   1 H        0.926     0.029     2.594     2.518
    58   1 H        0.926     0.029     2.601     2.522
    59   1 H        0.926     0.028     2.613     2.528
    60   1 H        0.926     0.029     2.594     2.518
    61   1 H        0.926     0.025     2.653     2.547
    62   1 H        0.926     0.042     2.426     2.436

molecular dipole:
                 x           y           z       tot (Debye)
 q only:        1.080      -0.012       0.007
   full:        1.128      -0.013       0.008       2.867

 projected vibrational frequencies (cm⁻¹)
eigval :       -0.00    -0.00    -0.00     0.00     0.00     0.00
eigval :       23.85    36.36    43.22    45.01    69.13    74.17
eigval :       76.81    87.47    90.70   121.34   124.51   139.97
eigval :      154.53   166.94   170.26   186.78   197.06   230.65
eigval :      238.39   275.45   277.71   291.32   294.41   297.97
eigval :      356.15   359.13   398.15   399.82   404.17   424.05
eigval :      426.13   434.58   436.65   439.35   467.11   476.63
eigval :      518.40   518.90   519.19   539.30   541.40   543.23
eigval :      545.48   546.14   582.28   583.61   587.80   601.76
eigval :      607.56   609.90   611.70   674.16   674.79   688.30
eigval :      691.79   706.17   708.30   716.54   716.64   751.47
eigval :      757.14   761.39   767.27   769.19   777.65   779.30
eigval :      780.86   791.52   867.06   867.73   870.58   871.41
eigval :      887.08   891.57   895.91   897.32   899.62   899.77
eigval :      901.69   902.70   918.38   918.68   919.49   920.11
eigval :      920.65   923.77   925.57   929.63   930.51   933.42
eigval :     1005.34  1010.87  1011.94  1069.38  1070.14  1073.12
eigval :     1075.75  1092.45  1099.26  1103.55  1117.15  1137.33
eigval :     1150.24  1152.21  1153.50  1174.23  1175.78  1178.50
eigval :     1179.46  1180.33  1180.97  1192.50  1194.20  1234.99
eigval :     1236.65  1240.66  1242.28  1248.59  1252.76  1272.73
eigval :     1298.12  1298.98  1301.81  1302.74  1308.02  1316.94
eigval :     1353.75  1354.33  1360.01  1360.70  1362.92  1363.33
eigval :     1414.35  1417.61  1427.09  1428.35  1431.04  1439.89
eigval :     1472.19  1474.68  1475.20  1488.01  1488.28  1493.85
eigval :     1564.41  1570.67  1574.94  1575.65  1586.36  1589.29
eigval :     1590.20  1592.05  1599.02  1599.40  1615.42  1616.37
eigval :     3070.55  3070.74  3071.44  3072.06  3073.15  3075.29
eigval :     3077.48  3078.30  3078.47  3078.71  3081.04  3081.36
eigval :     3085.91  3086.77  3088.61  3088.87  3089.03  3089.52
eigval :     3093.11  3094.54  3097.22  3098.24  3104.80  3104.88

   temp. (K)  partition function   enthalpy   heat capacity  entropy
                                   cal/mol     cal/K/mol   cal/K/mol   J/K/mol
 298.15  VIB  0.315E+11            16042.495    109.561     96.317
         ROT  0.916E+07              888.752      2.981     34.838
         INT  0.289E+18            16931.247    112.542    131.155
         TR   0.103E+29             1481.254      4.968     44.402
         TOT                       18412.5014   117.5105   175.5568   734.5298

       T/K    H(0)-H(T)+PV         H(T)/Eh          T*S/Eh         G(T)/Eh
   ------------------------------------------------------------------------
    298.15    0.293422E-01    0.509217E+00    0.834127E-01    0.425804E+00
   ------------------------------------------------------------------------

         :::::::::::::::::::::::::::::::::::::::::::::::::::::
         ::                  THERMODYNAMIC                  ::
         :::::::::::::::::::::::::::::::::::::::::::::::::::::
         :: total free energy         -94.856464809101 Eh   ::
         ::.................................................::
         :: total energy              -95.282268911573 Eh   ::
         :: zero point energy           0.479874635709 Eh   ::
         :: G(RRHO) w/o ZPVE           -0.054070533237 Eh   ::
         :: G(RRHO) contrib.            0.425804102472 Eh   ::
         :::::::::::::::::::::::::::::::::::::::::::::::::::::

           -------------------------------------------------
          | TOTAL ENERGY              -95.282268911573 Eh   |
          | TOTAL ENTHALPY            -94.773052087158 Eh   |
          | TOTAL FREE ENERGY         -94.856464809101 Eh   |
          | GRADIENT NORM               0.000046717516 Eh/α |
          | HOMO-LUMO GAP               2.825967936552 eV   |
           -------------------------------------------------

 * finished run on 2025/07/19 at 00:21:08.947
