   * xtb version 6.7.1 (edcfbbe) compiled by 'albert@albert-system' on 2024-07-22

   ID    Z sym.   atoms
    1    6 C      1-4, 6-24, 26-38
    2    7 N      5, 25
    3    1 H      39-62

          program call               : xtb data2507/toluene/oCBP/oCBP_toluene_S0_finalOpt.xtbopt.xyz --gfn 2 --uhf 2 --gbsa toluene --ohess vtight --parallel 40 --molden --ceasefiles --namespace data2507/toluene/oCBP/oCBP_toluene_T1_preOpt
      * Solvation model:               GBSA
        Solvent                        toluene
        Solvent mass                       9.2140E+01 g/mol
          :  Hamiltonian                  GFN2-xTB          :
 * total energy  :   -95.1720276 Eh     change       -0.7435531E-08 Eh
 * total energy  :   -95.1741149 Eh     change       -0.2087289E-02 Eh
 * total energy  :   -95.1752582 Eh     change       -0.1143273E-02 Eh
 * total energy  :   -95.1757946 Eh     change       -0.5363994E-03 Eh
 * total energy  :   -95.1762922 Eh     change       -0.4975866E-03 Eh
 * total energy  :   -95.1765964 Eh     change       -0.3041687E-03 Eh
 * total energy  :   -95.1767415 Eh     change       -0.1451806E-03 Eh
 * total energy  :   -95.1768100 Eh     change       -0.6846181E-04 Eh
 * total energy  :   -95.1768391 Eh     change       -0.2907699E-04 Eh
 * total energy  :   -95.1768484 Eh     change       -0.9318086E-05 Eh
 * total energy  :   -95.1768578 Eh     change        0.1843236E-07 Eh
 * total energy  :   -95.1768581 Eh     change       -0.2604883E-06 Eh
 * total energy  :   -95.1768583 Eh     change       -0.1809306E-06 Eh
 * total energy  :   -95.1768587 Eh     change       -0.3930544E-06 Eh
 * total energy  :   -95.1768588 Eh     change       -0.1600632E-06 Eh
 * total energy  :   -95.1768588 Eh     change        0.7187566E-09 Eh
 * total energy  :   -95.1768590 Eh     change       -0.1704014E-06 Eh
 * total energy  :   -95.1768590 Eh     change       -0.8654908E-08 Eh
 * total energy  :   -95.1768591 Eh     change       -0.6028608E-07 Eh
   *** GEOMETRY OPTIMIZATION CONVERGED AFTER 28 ITERATIONS ***

 final structure:
================
62
 xtb: 6.7.1 (edcfbbe)
C            3.64881099263743       -2.10767448490676       -1.91158163042057
C            2.55072097383353       -2.23640593104096       -2.76165255018072
C            1.42771820581329       -1.46646536036058       -2.53228361444911
C            1.36392539171115       -0.58268116744390       -1.45954501471028
N            0.22388456850469        0.22428769846379       -1.33830144032318
C           -1.07831912601101       -0.22011067189090       -1.45752679980703
C           -1.55974689136520       -1.51908042660732       -1.52315377593110
C           -2.93924277676741       -1.69385138602954       -1.63315312168530
C           -3.80096076228850       -0.60662415799819       -1.64916323786006
C           -3.32778470426625        0.69651331569926       -1.55589153903802
C           -1.95454217879127        0.89496347354181       -1.44724501879247
C           -1.13377165730363        2.05867747905446       -1.31931183886163
C           -1.40099114777981        3.42556086182627       -1.29521537221569
C           -0.33874417627189        4.30671773134951       -1.22536054006842
C            0.98065942018331        3.85260971456311       -1.21011914751608
C            1.27375174654675        2.49675961047945       -1.24812612903509
C            0.21536634441414        1.60364607658750       -1.27549365403984
C            2.46303998567898       -0.45837986943474       -0.57074527131042
C            2.46471880470627        0.40148693226033        0.60500321982080
C            3.61364412920446        1.15195310198848        0.89969564902481
C            3.66995099229895        2.02266985060623        1.96268180990512
C            2.56320517969315        2.17764422696200        2.79695239745190
C            1.42557931094233        1.43467226893869        2.55134368429928
C            1.35617943275699        0.55206520899273        1.47797386033831
N            0.19952775369210       -0.22835993523049        1.34101687719866
C            0.16047809593491       -1.60717244826954        1.27829647245238
C            1.19862216601569       -2.52408598950923        1.26666976182512
C            0.87544583252188       -3.87293881097863        1.22521006931492
C           -0.45397703209250       -4.29705287259746        1.22177245965061
C           -1.49686155734568       -3.39193657165838        1.27579324361373
C           -1.19905976515881       -2.03149785741328        1.30285211057058
C           -1.99495361490041       -0.84930718173245        1.41885725661010
C           -3.36470406135745       -0.61976051372351        1.50765793603026
C           -3.80957259311118        0.69374042059634        1.59495435023437
C           -2.92313815339372        1.76104203709596        1.59225596660747
C           -1.54665539163917        1.55502691851940        1.50159257089796
C           -1.09380370630162        0.24550365118257        1.44197271197819
C            3.59797600733495       -1.23586778380151       -0.84920778658269
H            4.53810322907431       -2.69504106062851       -2.08575205880980
H            2.58254076111681       -2.91381757951501       -3.60065297579564
H            0.59260057996252       -1.51146922844697       -3.21644871033226
H           -0.89513795741445       -2.36862249538127       -1.50879323190993
H           -3.33668748391278       -2.69495035809696       -1.69700501241750
H           -4.86416539142049       -0.77754999853220       -1.73655315280620
H           -4.00526970237856        1.53540828516957       -1.56734984471053
H           -2.41886491607087        3.78203983609406       -1.33073113510291
H           -0.52833388979938        5.37017584410628       -1.19999003497427
H            1.78952642077471        4.56655713985852       -1.18144403006331
H            2.29680952133196        2.15935470013740       -1.27350114646883
H            4.46568314200953        1.06460901943390        0.24056086814958
H            4.57029987992534        2.58887430951719        2.14957134999361
H            2.59914048993748        2.85432306733955        3.63638507015088
H            0.58230610328624        1.49961127346161        3.22368844376072
H            2.22855587599957       -2.20980048010114        1.30667056252555
H            1.66829297793610       -4.60502375394015        1.20865918811227
H           -0.66719919275892       -5.35599404966688        1.19458719495837
H           -2.52298668961552       -3.72519033321520        1.29693882089297
H           -4.06107939158404       -1.44311988601315        1.50853710523268
H           -4.86978884312823        0.88881041031902        1.66685671834165
H           -3.29851620754450        2.77090588600222        1.65120098108863
H           -0.86261171104706        2.38909588168152        1.49724973873660
H            4.44221748193410       -1.16869985492305       -0.17779864821314

          :  Hamiltonian                  GFN2-xTB          :
         :: gradient norm              0.000141244955 Eh/a0 ::
         :: HOMO-LUMO gap              0.111624767502 eV    ::
         :: SCC energy               -96.974940007228 Eh    ::
         :: -> dispersion             -0.111523064146 Eh    ::
         :: -> Gsolv                  -0.030148627059 Eh    ::
         :: repulsion energy           1.798080945406 Eh    ::

    * Orbital Energies and Occupations

         #    Occupation            Energy/Eh            Energy/eV
      -------------------------------------------------------------
         1        2.0000           -0.6832530             -18.5923
       ...           ...                  ...                  ...
        78        2.0000           -0.4193223             -11.4103
        79        2.0000           -0.4178456             -11.3702
        80        2.0000           -0.4155067             -11.3065
        81        2.0000           -0.4090062             -11.1296
        82        2.0000           -0.4075477             -11.0899
        83        2.0000           -0.4060956             -11.0504
        84        2.0000           -0.4027479             -10.9593
        85        2.0000           -0.3861742             -10.5083
        86        2.0000           -0.3809669             -10.3666
        87        2.0000           -0.3779908             -10.2857
        88        1.9990           -0.3716289             -10.1125
        89        1.0010           -0.3584715              -9.7545
        90        0.8962           -0.2545906              -6.9278 (HOMO)
        91        0.1032           -0.2504884              -6.8161 (LUMO)
        92        0.0006           -0.2454212              -6.6783
        93                         -0.2288074              -6.2262
        94                         -0.2282205              -6.2102
        95                         -0.2259056              -6.1472
        96                         -0.2235412              -6.0829
        97                         -0.2042087              -5.5568
        98                         -0.1951416              -5.3101
        99                         -0.1918344              -5.2201
       100                         -0.1911136              -5.2005
       101                         -0.1849311              -5.0322
       ...                                ...                  ...
       176                          0.7405944              20.1526
      -------------------------------------------------------------
                  HL-Gap            0.0041021 Eh            0.1116 eV

     #   Z          covCN         q      C6AA      α(0)
     1   6 C        2.915    -0.036    28.893     8.814
     2   6 C        2.917    -0.045    29.107     8.847
     3   6 C        2.921    -0.041    29.027     8.835
     4   6 C        2.912     0.043    27.040     8.527
     5   7 N        2.801    -0.014    21.513     6.889
     6   6 C        3.070     0.050    26.816     8.491
     7   6 C        2.908    -0.041    29.020     8.833
     8   6 C        2.920    -0.043    29.057     8.840
     9   6 C        2.918    -0.029    28.713     8.787
    10   6 C        2.910    -0.040    28.983     8.828
    11   6 C        3.061    -0.019    28.427     8.743
    12   6 C        3.065    -0.016    28.350     8.731
    13   6 C        2.910    -0.039    28.962     8.825
    14   6 C        2.918    -0.032    28.805     8.801
    15   6 C        2.921    -0.045    29.108     8.847
    16   6 C        2.908    -0.045    29.123     8.849
    17   6 C        3.066     0.046    26.912     8.507
    18   6 C        2.970    -0.011    28.281     8.723
    19   6 C        2.970    -0.011    28.281     8.723
    20   6 C        2.925    -0.038    28.954     8.824
    21   6 C        2.915    -0.036    28.893     8.814
    22   6 C        2.917    -0.045    29.107     8.847
    23   6 C        2.921    -0.041    29.027     8.835
    24   6 C        2.912     0.043    27.040     8.527
    25   7 N        2.801    -0.014    21.513     6.889
    26   6 C        3.066     0.046    26.912     8.507
    27   6 C        2.908    -0.045    29.123     8.849
    28   6 C        2.921    -0.045    29.107     8.847
    29   6 C        2.918    -0.032    28.805     8.801
    30   6 C        2.910    -0.039    28.962     8.824
    31   6 C        3.065    -0.016    28.349     8.731
    32   6 C        3.061    -0.019    28.427     8.743
    33   6 C        2.910    -0.040    28.982     8.828
    34   6 C        2.918    -0.029    28.713     8.787
    35   6 C        2.920    -0.043    29.056     8.840
    36   6 C        2.908    -0.041    29.020     8.833
    37   6 C        3.070     0.050    26.816     8.491
    38   6 C        2.925    -0.038    28.954     8.824
    39   1 H        0.926     0.032     2.556     2.500
    40   1 H        0.926     0.031     2.576     2.510
    41   1 H        0.926     0.033     2.543     2.494
    42   1 H        0.926     0.033     2.541     2.493
    43   1 H        0.926     0.033     2.547     2.496
    44   1 H        0.926     0.035     2.512     2.478
    45   1 H        0.926     0.033     2.547     2.496
    46   1 H        0.926     0.033     2.544     2.494
    47   1 H        0.926     0.033     2.540     2.492
    48   1 H        0.926     0.030     2.581     2.512
    49   1 H        0.926     0.034     2.537     2.491
    50   1 H        0.926     0.034     2.528     2.486
    51   1 H        0.926     0.032     2.556     2.500
    52   1 H        0.926     0.031     2.576     2.510
    53   1 H        0.926     0.033     2.543     2.494
    54   1 H        0.926     0.034     2.537     2.491
    55   1 H        0.926     0.030     2.580     2.512
    56   1 H        0.926     0.033     2.540     2.492
    57   1 H        0.926     0.033     2.544     2.494
    58   1 H        0.926     0.033     2.547     2.496
    59   1 H        0.926     0.035     2.512     2.478
    60   1 H        0.926     0.033     2.547     2.496
    61   1 H        0.926     0.033     2.540     2.492
    62   1 H        0.926     0.034     2.528     2.486

molecular dipole:
                 x           y           z       tot (Debye)
 q only:       -0.072       0.000       0.000
   full:        0.026      -0.001       0.001       0.066

 projected vibrational frequencies (cm⁻¹)
eigval :       -0.00    -0.00    -0.00    -0.00     0.00     0.00
eigval :       28.37    44.11    51.27    63.35    79.98    80.63
eigval :       86.31    91.36   100.35   129.72   131.20   141.71
eigval :      160.01   164.86   169.47   187.93   199.01   235.13
eigval :      235.97   270.55   271.15   290.02   296.38   297.43
eigval :      358.84   360.08   383.70   389.21   395.53   418.50
eigval :      419.89   430.42   431.81   437.90   454.18   459.82
eigval :      502.19   508.95   509.65   513.95   518.38   520.70
eigval :      551.32   553.04   574.56   574.67   577.66   595.73
eigval :      602.49   606.21   606.49   656.97   658.14   661.69
eigval :      674.99   685.62   687.18   695.91   708.23   743.79
eigval :      750.04   752.12   753.55   754.21   754.97   757.45
eigval :      759.18   765.72   833.10   834.35   847.48   847.86
eigval :      858.25   867.23   880.81   881.05   883.91   884.27
eigval :      890.27   891.09   901.14   902.26   905.32   906.21
eigval :      906.31   907.06   910.46   912.50   914.56   918.19
eigval :      989.62   999.96  1002.73  1057.91  1061.14  1061.26
eigval :     1065.35  1080.81  1083.05  1091.04  1102.36  1123.82
eigval :     1125.92  1130.00  1138.60  1161.70  1167.39  1171.47
eigval :     1172.11  1172.58  1173.77  1181.24  1187.01  1217.51
eigval :     1217.85  1219.45  1228.63  1235.86  1242.14  1264.82
eigval :     1268.26  1269.11  1274.38  1294.79  1307.33  1313.26
eigval :     1322.63  1323.77  1336.05  1342.44  1375.78  1378.27
eigval :     1383.30  1385.16  1393.66  1395.88  1402.86  1412.72
eigval :     1415.43  1439.84  1440.53  1441.98  1465.45  1466.07
eigval :     1475.57  1480.06  1494.83  1501.57  1507.83  1509.27
eigval :     1536.70  1541.71  1548.43  1552.12  1552.60  1589.41
eigval :     3068.40  3071.35  3073.06  3073.56  3074.21  3075.12
eigval :     3077.99  3079.36  3083.08  3083.49  3087.49  3087.62
eigval :     3087.98  3088.52  3093.94  3094.36  3096.40  3096.79
eigval :     3097.05  3097.53  3100.35  3102.51  3112.80  3113.42

   temp. (K)  partition function   enthalpy   heat capacity  entropy
                                   cal/mol     cal/K/mol   cal/K/mol   J/K/mol
 298.15  VIB  0.106E+11            16191.360    112.713     96.361
         ROT  0.887E+07              888.752      2.981     34.774
         INT  0.937E+17            17080.112    115.694    131.136
         TR   0.103E+29             1481.254      4.968     44.402
         TOT                       18561.3661   120.6622   175.5376   734.4491

       T/K    H(0)-H(T)+PV         H(T)/Eh          T*S/Eh         G(T)/Eh
   ------------------------------------------------------------------------
    298.15    0.295794E-01    0.503776E+00    0.834036E-01    0.420372E+00
   ------------------------------------------------------------------------

         :::::::::::::::::::::::::::::::::::::::::::::::::::::
         ::                  THERMODYNAMIC                  ::
         :::::::::::::::::::::::::::::::::::::::::::::::::::::
         :: total free energy         -94.756486903960 Eh   ::
         ::.................................................::
         :: total energy              -95.176859065851 Eh   ::
         :: zero point energy           0.474196297277 Eh   ::
         :: G(RRHO) w/o ZPVE           -0.053824135386 Eh   ::
         :: G(RRHO) contrib.            0.420372161891 Eh   ::
         :::::::::::::::::::::::::::::::::::::::::::::::::::::

           -------------------------------------------------
          | TOTAL ENERGY              -95.176859065851 Eh   |
          | TOTAL ENTHALPY            -94.673083348833 Eh   |
          | TOTAL FREE ENERGY         -94.756486903960 Eh   |
          | GRADIENT NORM               0.000140699499 Eh/α |
          | HOMO-LUMO GAP               0.111624570491 eV   |
           -------------------------------------------------

 * finished run on 2025/07/19 at 00:21:13.070
