   * xtb version 6.7.1 (edcfbbe) compiled by 'albert@albert-system' on 2024-07-22

   ID    Z sym.   atoms
    1    6 C      1-4, 6-24, 26-38
    2    7 N      5, 25
    3    1 H      39-62

          program call               : xtb data2507/toluene/oCBP/oCBP.xyz --gfn 2 --gbsa toluene --ohess vtight --parallel 40 --molden --ceasefiles --namespace data2507/toluene/oCBP/oCBP_toluene_S0_preOpt
      * Solvation model:               GBSA
        Solvent                        toluene
        Solvent mass                       9.2140E+01 g/mol
          :  Hamiltonian                  GFN2-xTB          :
 * total energy  :   -95.2611030 Eh     change       -0.9322179E-09 Eh
 * total energy  :   -95.2745191 Eh     change       -0.1341613E-01 Eh
 * total energy  :   -95.2779560 Eh     change       -0.3436927E-02 Eh
 * total energy  :   -95.2789260 Eh     change       -0.9699408E-03 Eh
 * total energy  :   -95.2796676 Eh     change       -0.7416445E-03 Eh
 * total energy  :   -95.2800892 Eh     change       -0.4216385E-03 Eh
 * total energy  :   -95.2804363 Eh     change       -0.3470455E-03 Eh
 * total energy  :   -95.2807708 Eh     change       -0.3344796E-03 Eh
 * total energy  :   -95.2810080 Eh     change       -0.2372306E-03 Eh
 * total energy  :   -95.2811368 Eh     change       -0.1288320E-03 Eh
 * total energy  :   -95.2822547 Eh     change       -0.4741114E-06 Eh
 * total energy  :   -95.2822552 Eh     change       -0.4564423E-06 Eh
 * total energy  :   -95.2822556 Eh     change       -0.4404280E-06 Eh
 * total energy  :   -95.2822560 Eh     change       -0.4258619E-06 Eh
 * total energy  :   -95.2822564 Eh     change       -0.4124572E-06 Eh
 * total energy  :   -95.2822568 Eh     change       -0.3999979E-06 Eh
 * total energy  :   -95.2822572 Eh     change       -0.3882262E-06 Eh
 * total energy  :   -95.2822576 Eh     change       -0.3772534E-06 Eh
 * total energy  :   -95.2822576 Eh     change       -0.3811550E-08 Eh
   *** GEOMETRY OPTIMIZATION CONVERGED AFTER 152 ITERATIONS ***

 final structure:
================
62
 xtb: 6.7.1 (edcfbbe)
C           -1.61981014801356       -3.61560056530288       -2.30937985158245
C           -1.46309180462299       -2.57911481144638       -3.21506249782606
C           -0.71256324389957       -1.47471295670406       -2.86487059318900
C           -0.12757021487965       -1.37352458106980       -1.60403044139327
N            0.63463200428921       -0.22717790136091       -1.32101409471226
C            0.21513951258716        1.06923833743525       -1.55380474406399
C           -1.03108384811357        1.53591188362611       -1.94618518710947
C           -1.19067234337307        2.89990299334225       -2.09467188027233
C           -0.14449333638061        3.78627558810007       -1.84951216123073
C            1.09071354517793        3.32893518727572       -1.43721264608349
C            1.27717524272764        1.96152364608770       -1.28622581453489
C            2.39654649077636        1.15401460951870       -0.89121103366828
C            3.70620423525795        1.44781019963759       -0.53525227286267
C            4.56448417091529        0.40579821268435       -0.24472699690905
C            4.13651390026596       -0.91718251170108       -0.33228539124218
C            2.83994980198641       -1.23430387941702       -0.68968249982308
C            1.96069084560774       -0.19075901988019       -0.93987212554935
C           -0.29176587950783       -2.40972663412471       -0.67778157667666
C            0.29700554664223       -2.40897677429169        0.67821736517653
C            1.03759045485610       -3.52656436611829        1.06480414130999
C            1.62767204938067       -3.61164543200507        2.31004330382819
C            1.46853953618471       -2.57541685929833        3.21559696528121
C            0.71552991035118       -1.47276053858511        2.86523069007981
C            0.13043877356728       -1.37302626579207        1.60432136904672
N           -0.63422242529502       -0.22837094665380        1.32108436554633
C           -1.96033914391283       -0.19481394648281        0.93988660194491
C           -2.83737019803540       -1.24025120610076        0.68977492767782
C           -4.13458162338587       -0.92591941453578        0.33226173771301
C           -4.56535105592850        0.39614094772294        0.24453625475857
C           -3.70929843855652        1.44000796084840        0.53497430133791
C           -2.39903571871132        1.14902979850310        0.89102037607925
C           -1.28137933061552        1.95896297797161        1.28592878318061
C           -1.09778827315081        3.32678942742752        1.43667678356284
C            0.13646211361163        3.78678884993999        1.84888301134498
C            1.18450404830833        2.90266309271743        2.09421063064593
C            1.02776894979405        1.53831358766603        1.94598494112774
C           -0.21747088706853        1.06896444323330        1.55367040201540
C           -1.02985540139854       -3.52902629215294       -1.06418439688122
H           -2.19767645364808       -4.48837140214106       -2.57342474369110
H           -1.91151446069153       -2.63649333710931       -4.19545857028908
H           -0.55482807856965       -0.67615006201776       -3.57486288165221
H           -1.85457049533191        0.85947235205311       -2.11923983947452
H           -2.15035700409188        3.28685951783331       -2.40490371656211
H           -0.30909685368969        4.84622722242875       -1.97719886115397
H            1.89777764329612        4.01658430694327       -1.23351639456776
H            4.04301138950385        2.47287664103735       -0.49337994511510
H            5.58591863350516        0.61346156487771        0.03936557954866
H            4.83538013925713       -1.71452850906602       -0.12493127671414
H            2.53025980136773       -2.26303412771451       -0.78018607288963
H            1.16979697928203       -4.33060851138930        0.35460308952589
H            2.20751201942527       -4.48306446715595        2.57422536831007
H            1.91700720388619       -2.63167666682346        4.19603658640217
H            0.55595036121352       -0.67447061928544        3.57511782297831
H           -2.52550381729125       -2.26831472766973        0.78039791884500
H           -4.83174922854209       -1.72476117414604        0.12494408286501
H           -5.58720950307647        0.60160201909712       -0.03963454627853
H           -4.04827250490845        2.46435651669313        0.49296288259831
H           -1.90630079199200        4.01270371531887        1.23287034785514
H            0.29884823214634        4.84710759615566        1.97637506280351
H            2.14337888276358        3.29169050576960        2.40436464381936
H            1.85263506932959        0.86359890553129        2.11919812042383
H           -1.16021198058884       -4.33326909991096       -0.35386840363148

          :  Hamiltonian                  GFN2-xTB          :
         :: gradient norm              0.000050767800 Eh/a0 ::
         :: HOMO-LUMO gap              2.833267491985 eV    ::
         :: SCC energy               -97.104136828893 Eh    ::
         :: -> dispersion             -0.107687639706 Eh    ::
         :: -> Gsolv                  -0.031645652496 Eh    ::
         :: repulsion energy           1.821879219237 Eh    ::

    * Orbital Energies and Occupations

         #    Occupation            Energy/Eh            Energy/eV
      -------------------------------------------------------------
         1        2.0000           -0.6750048             -18.3678
       ...           ...                  ...                  ...
        77        2.0000           -0.4183959             -11.3851
        78        2.0000           -0.4176516             -11.3649
        79        2.0000           -0.4161473             -11.3239
        80        2.0000           -0.4158034             -11.3146
        81        2.0000           -0.4119147             -11.2088
        82        2.0000           -0.4099333             -11.1549
        83        2.0000           -0.4047616             -11.0141
        84        2.0000           -0.4012263             -10.9179
        85        2.0000           -0.3960837             -10.7780
        86        2.0000           -0.3775637             -10.2740
        87        2.0000           -0.3762249             -10.2376
        88        2.0000           -0.3657759              -9.9533
        89        2.0000           -0.3568871              -9.7114 (HOMO)
        90                         -0.2527664              -6.8781 (LUMO)
        91                         -0.2458783              -6.6907
        92                         -0.2429792              -6.6118
        93                         -0.2338646              -6.3638
        94                         -0.2334867              -6.3535
        95                         -0.2201831              -5.9915
        96                         -0.2198440              -5.9823
        97                         -0.2136485              -5.8137
        98                         -0.1913967              -5.2082
        99                         -0.1879585              -5.1146
       100                         -0.1859706              -5.0605
       ...                                ...                  ...
       176                          0.7479740              20.3534
      -------------------------------------------------------------
                  HL-Gap            0.1041207 Eh            2.8333 eV

     #   Z          covCN         q      C6AA      α(0)
     1   6 C        2.917    -0.033    28.826     8.804
     2   6 C        2.919    -0.030    28.739     8.791
     3   6 C        2.925    -0.043    29.065     8.841
     4   6 C        2.913     0.062    26.621     8.461
     5   7 N        2.802    -0.052    22.238     7.004
     6   6 C        3.080     0.051    26.772     8.483
     7   6 C        2.910    -0.050    29.237     8.866
     8   6 C        2.924    -0.034    28.849     8.808
     9   6 C        2.920    -0.042    29.042     8.837
    10   6 C        2.913    -0.035    28.860     8.809
    11   6 C        3.067    -0.019    28.404     8.739
    12   6 C        3.069    -0.018    28.391     8.737
    13   6 C        2.913    -0.035    28.864     8.810
    14   6 C        2.919    -0.043    29.075     8.842
    15   6 C        2.924    -0.036    28.899     8.816
    16   6 C        2.910    -0.054    29.334     8.881
    17   6 C        3.075     0.050    26.795     8.487
    18   6 C        2.976     0.001    28.000     8.680
    19   6 C        2.976     0.001    27.999     8.680
    20   6 C        2.929    -0.033    28.831     8.806
    21   6 C        2.917    -0.033    28.826     8.804
    22   6 C        2.919    -0.030    28.739     8.791
    23   6 C        2.925    -0.043    29.065     8.841
    24   6 C        2.913     0.062    26.621     8.461
    25   7 N        2.802    -0.052    22.238     7.004
    26   6 C        3.075     0.050    26.795     8.487
    27   6 C        2.910    -0.054    29.334     8.881
    28   6 C        2.924    -0.036    28.899     8.816
    29   6 C        2.919    -0.043    29.075     8.842
    30   6 C        2.913    -0.035    28.864     8.810
    31   6 C        3.069    -0.018    28.391     8.737
    32   6 C        3.067    -0.019    28.404     8.739
    33   6 C        2.913    -0.035    28.860     8.809
    34   6 C        2.920    -0.042    29.042     8.837
    35   6 C        2.924    -0.034    28.849     8.808
    36   6 C        2.910    -0.050    29.237     8.866
    37   6 C        3.080     0.051    26.772     8.483
    38   6 C        2.929    -0.033    28.831     8.806
    39   1 H        0.926     0.042     2.422     2.434
    40   1 H        0.926     0.041     2.430     2.438
    41   1 H        0.926     0.040     2.443     2.444
    42   1 H        0.926     0.025     2.654     2.547
    43   1 H        0.926     0.029     2.594     2.519
    44   1 H        0.926     0.028     2.614     2.528
    45   1 H        0.926     0.029     2.600     2.522
    46   1 H        0.926     0.030     2.593     2.518
    47   1 H        0.926     0.028     2.615     2.529
    48   1 H        0.926     0.030     2.591     2.517
    49   1 H        0.926     0.027     2.623     2.532
    50   1 H        0.926     0.042     2.427     2.436
    51   1 H        0.926     0.042     2.422     2.434
    52   1 H        0.926     0.041     2.430     2.438
    53   1 H        0.926     0.040     2.443     2.444
    54   1 H        0.926     0.027     2.623     2.532
    55   1 H        0.926     0.030     2.591     2.517
    56   1 H        0.926     0.028     2.615     2.529
    57   1 H        0.926     0.030     2.593     2.518
    58   1 H        0.926     0.029     2.600     2.522
    59   1 H        0.926     0.028     2.614     2.528
    60   1 H        0.926     0.029     2.594     2.519
    61   1 H        0.926     0.025     2.654     2.547
    62   1 H        0.926     0.042     2.427     2.436

molecular dipole:
                 x           y           z       tot (Debye)
 q only:        0.001      -1.079       0.000
   full:        0.001      -1.124       0.000       2.857

 projected vibrational frequencies (cm⁻¹)
eigval :       -0.00    -0.00     0.00     0.00     0.00     0.00
eigval :       19.37    35.32    46.58    50.54    68.16    73.50
eigval :       77.21    89.62    95.01   123.07   124.62   140.34
eigval :      156.95   168.50   170.29   186.63   197.21   230.00
eigval :      239.06   276.06   277.14   290.02   294.11   298.24
eigval :      356.36   359.11   397.89   399.56   403.87   424.16
eigval :      425.52   434.43   436.76   439.59   466.89   477.22
eigval :      518.24   518.95   519.04   538.55   541.66   543.24
eigval :      545.89   546.97   582.28   583.52   587.78   601.59
eigval :      607.76   609.73   611.33   674.04   674.37   688.50
eigval :      691.79   705.60   707.47   716.76   716.82   751.09
eigval :      756.81   761.05   770.12   771.97   780.93   782.52
eigval :      784.09   794.80   869.18   869.50   873.67   874.20
eigval :      889.84   892.79   896.22   898.31   901.26   901.31
eigval :      904.13   905.15   918.50   921.29   921.32   922.73
eigval :      925.30   925.79   927.39   932.97   933.75   935.32
eigval :     1005.49  1010.90  1011.79  1070.15  1070.41  1074.26
eigval :     1074.60  1092.45  1098.61  1102.36  1117.41  1136.99
eigval :     1151.90  1152.48  1153.09  1175.43  1176.49  1178.44
eigval :     1179.71  1180.41  1181.07  1193.92  1194.17  1236.17
eigval :     1236.54  1241.11  1242.06  1248.73  1252.03  1273.62
eigval :     1298.77  1299.06  1302.51  1303.39  1308.05  1316.76
eigval :     1353.92  1354.19  1360.30  1360.84  1363.02  1363.32
eigval :     1414.87  1418.08  1427.42  1428.66  1431.50  1440.37
eigval :     1472.01  1474.81  1475.27  1488.28  1488.30  1493.70
eigval :     1564.43  1570.68  1574.97  1575.69  1586.53  1589.37
eigval :     1590.20  1592.09  1599.23  1599.26  1615.29  1616.15
eigval :     3070.55  3070.65  3070.78  3071.03  3072.94  3074.66
eigval :     3076.63  3077.12  3077.92  3078.04  3080.28  3080.31
eigval :     3085.44  3085.48  3087.73  3087.77  3088.40  3088.45
eigval :     3092.23  3093.31  3096.82  3097.77  3106.45  3106.51

   temp. (K)  partition function   enthalpy   heat capacity  entropy
                                   cal/mol     cal/K/mol   cal/K/mol   J/K/mol
 298.15  VIB  0.309E+11            16017.252    109.605     96.247
         ROT  0.921E+07              888.752      2.981     34.848
         INT  0.285E+18            16906.004    112.586    131.096
         TR   0.103E+29             1481.254      4.968     44.402
         TOT                       18387.2578   117.5538   175.4977   734.2823

       T/K    H(0)-H(T)+PV         H(T)/Eh          T*S/Eh         G(T)/Eh
   ------------------------------------------------------------------------
    298.15    0.293020E-01    0.509347E+00    0.833846E-01    0.425962E+00
   ------------------------------------------------------------------------

         :::::::::::::::::::::::::::::::::::::::::::::::::::::
         ::                  THERMODYNAMIC                  ::
         :::::::::::::::::::::::::::::::::::::::::::::::::::::
         :: total free energy         -94.856295146831 Eh   ::
         ::.................................................::
         :: total energy              -95.282257609103 Eh   ::
         :: zero point energy           0.480045109410 Eh   ::
         :: G(RRHO) w/o ZPVE           -0.054082647139 Eh   ::
         :: G(RRHO) contrib.            0.425962462271 Eh   ::
         :::::::::::::::::::::::::::::::::::::::::::::::::::::

           -------------------------------------------------
          | TOTAL ENERGY              -95.282257609103 Eh   |
          | TOTAL ENTHALPY            -94.772910539209 Eh   |
          | TOTAL FREE ENERGY         -94.856295146831 Eh   |
          | GRADIENT NORM               0.000050771089 Eh/α |
          | HOMO-LUMO GAP               2.833267417175 eV   |
           -------------------------------------------------

 * finished run on 2025/07/19 at 00:18:58.807
