   * xtb version 6.7.1 (edcfbbe) compiled by 'albert@albert-system' on 2024-07-22

   ID    Z sym.   atoms
    1    6 C      1-4, 6-24, 26-38
    2    7 N      5, 25
    3    1 H      39-62

          program call               : xtb data2507/toluene/oCBP/oCBP_toluene_T1_crest.xyz --gfn 2 --uhf 2 --gbsa toluene --ohess vtight --parallel 40 --molden --ceasefiles --namespace data2507/toluene/oCBP/oCBP_toluene_T1_finalOpt
      * Solvation model:               GBSA
        Solvent                        toluene
        Solvent mass                       9.2140E+01 g/mol
          :  Hamiltonian                  GFN2-xTB          :
 * total energy  :   -95.1767352 Eh     change        0.5874625E-09 Eh
 * total energy  :   -95.1767690 Eh     change       -0.3372882E-04 Eh
 * total energy  :   -95.1767956 Eh     change       -0.2658860E-04 Eh
 * total energy  :   -95.1768087 Eh     change       -0.1314969E-04 Eh
 * total energy  :   -95.1768234 Eh     change       -0.1467733E-04 Eh
 * total energy  :   -95.1768285 Eh     change       -0.5115854E-05 Eh
 * total energy  :   -95.1768316 Eh     change       -0.3151638E-05 Eh
 * total energy  :   -95.1768351 Eh     change       -0.3411623E-05 Eh
 * total energy  :   -95.1768386 Eh     change       -0.3575188E-05 Eh
 * total energy  :   -95.1768412 Eh     change       -0.2564499E-05 Eh
 * total energy  :   -95.1768426 Eh     change       -0.1390252E-05 Eh
 * total energy  :   -95.1768431 Eh     change       -0.5477109E-06 Eh
 * total energy  :   -95.1768434 Eh     change       -0.2157472E-06 Eh
 * total energy  :   -95.1768435 Eh     change       -0.1212739E-06 Eh
 * total energy  :   -95.1768435 Eh     change       -0.4195275E-07 Eh
   *** GEOMETRY OPTIMIZATION CONVERGED AFTER 15 ITERATIONS ***

 final structure:
================
62
 xtb: 6.7.1 (edcfbbe)
C            3.66222996463084       -2.02694554597426       -1.97544414879587
C            2.55832859843283       -2.15964050851057       -2.81723769678495
C            1.42598413759552       -1.41048640284423       -2.56589914449465
C            1.35934660412480       -0.54318221650859       -1.48000710525040
N            0.20896398108976        0.24545235846166       -1.33718261709280
C           -1.08792020806478       -0.21562002659683       -1.44995573104490
C           -1.55185991940688       -1.52028997770959       -1.52804743460605
C           -2.92977356840705       -1.71303437307056       -1.62672162526184
C           -3.80674262463919       -0.63801138687374       -1.61961470168961
C           -3.35080960577464        0.67042406170536       -1.51438361349377
C           -1.97947579320475        0.88676579775147       -1.41678035684799
C           -1.17368662854820        2.06026931661854       -1.28243113351113
C           -1.45945984095270        3.42288856106302       -1.23912037822564
C           -0.40881916601821        4.31789952764053       -1.16901294767237
C            0.91678582070857        3.88199626088920       -1.17159003208101
C            1.22813739052059        2.53089161703057       -1.22857314230039
C            0.18191961498466        1.62360786138119       -1.25708001264406
C            2.46479160243638       -0.41521751178131       -0.59975381941016
C            2.46521403954379        0.42809229069367        0.58799487783289
C            3.60593989352770        1.19100888122746        0.88262077764265
C            3.65994537509297        2.04697699721644        1.95765559351723
C            2.55921933746952        2.17368724832355        2.80453063399661
C            1.43001971540093        1.41799017878629        2.55873498367837
C            1.36317762364404        0.55003374862285        1.47336123481442
N            0.21640939598652       -0.24479102721356        1.33593267921008
C            0.19610146769152       -1.62308335215666        1.25585326143518
C            1.24678177469516       -2.52499550511016        1.22185465849333
C            0.94206907941126       -3.87768179045971        1.16596268974974
C           -0.38128949294903       -4.32037265821713        1.16969509443476
C           -1.43613838807862       -3.43079194501030        1.24533336259150
C           -1.15713048490269       -2.06671405941983        1.28775161602191
C           -1.96828245581354       -0.89744949116929        1.42636655953739
C           -3.34023931567904       -0.68819788722779        1.53095178917575
C           -3.80238252320317        0.61788188373460        1.63826327165673
C           -2.93099884331206        1.69746239557311        1.64054349758413
C           -1.55257262274747        1.51183499686842        1.53504934100057
C           -1.08231590847314        0.20956089542614        1.45497078309269
C            3.60840879964219       -1.17161342822153       -0.89988920219153
H            4.55860186486549       -2.59803982899215       -2.16655784288788
H            2.59252461157499       -2.82372539714229       -3.66675689854423
H            0.58514063869359       -1.45825884988021       -3.24277378264907
H           -0.87516545719082       -2.36031852722118       -1.53167212989210
H           -3.31376832992369       -2.71873519238302       -1.69968602979793
H           -4.86829781406519       -0.82274942561268       -1.69864900427529
H           -4.03999476922648        1.49978237844396       -1.50837965927351
H           -2.48247237209170        3.76553311966008       -1.26037696117651
H           -0.61275930531546        5.37825489774804       -1.12921133146561
H            1.71603771372278        4.60666779482233       -1.14208393818541
H            2.25542385483215        2.20790722968338       -1.26756495939591
H            4.45265511351466        1.12571540806204        0.21417141526038
H            4.55391234600406        2.62328213869477        2.14434991608083
H            2.59355226018788        2.83824424383285        3.65367353806178
H            0.59210227838096        1.46125848829283        3.23953802467143
H            2.27260042332683       -2.19679930701254        1.25559181067671
H            1.74485200344956       -4.59824793532657        1.13218788858410
H           -0.57999468234344       -5.38175812034415        1.13074582722965
H           -2.45725171701069       -3.77869874005636        1.27179504757724
H           -4.02516369254188       -1.52109271673480        1.52850243196910
H           -4.86447380350432        0.79712591104819        1.72254461303354
H           -3.31984539357893        2.70117821311818        1.71516746954456
H           -0.88028843697096        2.35540898337126        1.53519317347530
H            4.45794577825706       -1.10162279720999       -0.23550381858799

          :  Hamiltonian                  GFN2-xTB          :
         :: gradient norm              0.000087648699 Eh/a0 ::
         :: HOMO-LUMO gap              0.111007571780 eV    ::
         :: SCC energy               -96.974948488925 Eh    ::
         :: -> dispersion             -0.111500304737 Eh    ::
         :: -> Gsolv                  -0.030139870083 Eh    ::
         :: repulsion energy           1.798104968176 Eh    ::

    * Orbital Energies and Occupations

         #    Occupation            Energy/Eh            Energy/eV
      -------------------------------------------------------------
         1        2.0000           -0.6832598             -18.5924
       ...           ...                  ...                  ...
        78        2.0000           -0.4193311             -11.4106
        79        2.0000           -0.4178470             -11.3702
        80        2.0000           -0.4155160             -11.3068
        81        2.0000           -0.4090021             -11.1295
        82        2.0000           -0.4075509             -11.0900
        83        2.0000           -0.4061055             -11.0507
        84        2.0000           -0.4027406             -10.9591
        85        2.0000           -0.3862024             -10.5091
        86        2.0000           -0.3809409             -10.3659
        87        2.0000           -0.3780068             -10.2861
        88        1.9990           -0.3716484             -10.1131
        89        1.0010           -0.3584729              -9.7545
        90        0.8951           -0.2545863              -6.9276 (HOMO)
        91        0.1043           -0.2505067              -6.8166 (LUMO)
        92        0.0006           -0.2454211              -6.6782
        93                         -0.2288050              -6.2261
        94                         -0.2282257              -6.2103
        95                         -0.2258922              -6.1468
        96                         -0.2235507              -6.0831
        97                         -0.2042174              -5.5570
        98                         -0.1951510              -5.3103
        99                         -0.1918278              -5.2199
       100                         -0.1911355              -5.2011
       101                         -0.1849410              -5.0325
       ...                                ...                  ...
       176                          0.7405942              20.1526
      -------------------------------------------------------------
                  HL-Gap            0.0040796 Eh            0.1110 eV

     #   Z          covCN         q      C6AA      α(0)
     1   6 C        2.915    -0.036    28.892     8.814
     2   6 C        2.917    -0.045    29.106     8.847
     3   6 C        2.921    -0.041    29.027     8.835
     4   6 C        2.912     0.043    27.039     8.527
     5   7 N        2.801    -0.014    21.514     6.889
     6   6 C        3.070     0.050    26.815     8.491
     7   6 C        2.908    -0.041    29.020     8.833
     8   6 C        2.920    -0.043    29.056     8.840
     9   6 C        2.918    -0.029    28.713     8.787
    10   6 C        2.910    -0.040    28.983     8.828
    11   6 C        3.061    -0.019    28.427     8.743
    12   6 C        3.065    -0.016    28.349     8.731
    13   6 C        2.910    -0.039    28.962     8.825
    14   6 C        2.918    -0.032    28.805     8.801
    15   6 C        2.921    -0.045    29.107     8.847
    16   6 C        2.908    -0.045    29.124     8.849
    17   6 C        3.066     0.046    26.912     8.507
    18   6 C        2.970    -0.011    28.281     8.723
    19   6 C        2.970    -0.011    28.281     8.723
    20   6 C        2.925    -0.038    28.954     8.824
    21   6 C        2.915    -0.036    28.892     8.814
    22   6 C        2.917    -0.045    29.106     8.847
    23   6 C        2.921    -0.041    29.027     8.835
    24   6 C        2.912     0.043    27.039     8.527
    25   7 N        2.801    -0.014    21.514     6.889
    26   6 C        3.066     0.046    26.912     8.507
    27   6 C        2.908    -0.045    29.124     8.849
    28   6 C        2.921    -0.045    29.107     8.847
    29   6 C        2.918    -0.032    28.805     8.801
    30   6 C        2.910    -0.039    28.962     8.825
    31   6 C        3.065    -0.016    28.349     8.731
    32   6 C        3.061    -0.019    28.427     8.743
    33   6 C        2.910    -0.040    28.983     8.828
    34   6 C        2.918    -0.029    28.713     8.787
    35   6 C        2.920    -0.043    29.057     8.840
    36   6 C        2.908    -0.041    29.020     8.833
    37   6 C        3.070     0.050    26.815     8.491
    38   6 C        2.925    -0.038    28.954     8.824
    39   1 H        0.926     0.032     2.556     2.500
    40   1 H        0.926     0.031     2.576     2.510
    41   1 H        0.926     0.033     2.544     2.494
    42   1 H        0.926     0.033     2.541     2.493
    43   1 H        0.926     0.033     2.547     2.496
    44   1 H        0.926     0.035     2.512     2.478
    45   1 H        0.926     0.033     2.547     2.496
    46   1 H        0.926     0.033     2.544     2.494
    47   1 H        0.926     0.033     2.540     2.492
    48   1 H        0.926     0.030     2.581     2.512
    49   1 H        0.926     0.034     2.537     2.491
    50   1 H        0.926     0.034     2.528     2.486
    51   1 H        0.926     0.032     2.556     2.500
    52   1 H        0.926     0.031     2.576     2.510
    53   1 H        0.926     0.033     2.543     2.494
    54   1 H        0.926     0.034     2.537     2.491
    55   1 H        0.926     0.030     2.581     2.512
    56   1 H        0.926     0.033     2.540     2.492
    57   1 H        0.926     0.033     2.544     2.494
    58   1 H        0.926     0.033     2.547     2.496
    59   1 H        0.926     0.035     2.512     2.478
    60   1 H        0.926     0.033     2.547     2.496
    61   1 H        0.926     0.033     2.541     2.493
    62   1 H        0.926     0.034     2.528     2.486

molecular dipole:
                 x           y           z       tot (Debye)
 q only:       -0.069       0.000      -0.000
   full:        0.028       0.001      -0.000       0.072

 projected vibrational frequencies (cm⁻¹)
eigval :       -0.00    -0.00     0.00     0.00     0.00     0.00
eigval :       26.32    43.27    50.00    62.93    79.81    80.15
eigval :       86.39    90.29   100.11   129.72   131.18   141.68
eigval :      159.93   165.10   168.84   188.41   198.67   234.60
eigval :      235.74   270.84   271.22   289.72   295.71   297.34
eigval :      358.40   359.68   383.58   389.18   395.45   418.41
eigval :      420.06   430.43   431.54   437.89   454.10   459.65
eigval :      502.04   508.55   509.65   513.73   518.55   521.06
eigval :      551.12   552.78   574.41   574.46   577.55   595.54
eigval :      602.43   605.98   606.36   656.90   658.04   661.54
eigval :      674.94   686.11   687.53   695.83   708.24   743.64
eigval :      749.68   751.28   752.69   753.92   754.98   757.36
eigval :      758.66   764.17   833.23   833.95   847.38   847.61
eigval :      857.22   866.37   880.07   880.15   883.63   883.81
eigval :      890.15   891.02   901.03   902.19   905.29   906.03
eigval :      906.43   907.05   910.83   911.94   913.68   918.71
eigval :      989.69   999.90  1002.41  1057.58  1060.94  1061.09
eigval :     1064.88  1080.55  1083.14  1090.71  1102.06  1123.38
eigval :     1125.69  1129.52  1137.78  1161.24  1167.37  1171.44
eigval :     1171.82  1172.57  1173.09  1180.90  1186.80  1217.44
eigval :     1217.54  1218.88  1228.40  1235.95  1241.68  1264.73
eigval :     1268.21  1269.10  1274.57  1294.67  1307.27  1313.12
eigval :     1322.43  1323.69  1336.10  1342.49  1375.41  1378.24
eigval :     1383.18  1384.96  1393.70  1395.69  1402.75  1412.75
eigval :     1415.30  1439.71  1440.36  1441.94  1465.50  1465.92
eigval :     1475.52  1480.03  1494.70  1501.61  1507.80  1509.15
eigval :     1536.53  1541.64  1548.39  1552.22  1552.57  1589.49
eigval :     3068.64  3071.54  3073.18  3073.53  3074.75  3075.22
eigval :     3077.57  3077.72  3082.75  3083.20  3087.26  3087.50
eigval :     3087.81  3087.85  3093.79  3093.93  3096.22  3096.26
eigval :     3096.43  3097.03  3100.15  3102.27  3112.52  3113.06

   temp. (K)  partition function   enthalpy   heat capacity  entropy
                                   cal/mol     cal/K/mol   cal/K/mol   J/K/mol
 298.15  VIB  0.121E+11            16205.246    112.671     96.479
         ROT  0.888E+07              888.752      2.981     34.775
         INT  0.108E+18            17093.998    115.651    131.254
         TR   0.103E+29             1481.254      4.968     44.402
         TOT                       18575.2520   120.6196   175.6561   734.9450

       T/K    H(0)-H(T)+PV         H(T)/Eh          T*S/Eh         G(T)/Eh
   ------------------------------------------------------------------------
    298.15    0.296015E-01    0.503711E+00    0.834599E-01    0.420251E+00
   ------------------------------------------------------------------------

         :::::::::::::::::::::::::::::::::::::::::::::::::::::
         ::                  THERMODYNAMIC                  ::
         :::::::::::::::::::::::::::::::::::::::::::::::::::::
         :: total free energy         -94.756592738739 Eh   ::
         ::.................................................::
         :: total energy              -95.176843522040 Eh   ::
         :: zero point energy           0.474109098920 Eh   ::
         :: G(RRHO) w/o ZPVE           -0.053858315618 Eh   ::
         :: G(RRHO) contrib.            0.420250783301 Eh   ::
         :::::::::::::::::::::::::::::::::::::::::::::::::::::

           -------------------------------------------------
          | TOTAL ENERGY              -95.176843522040 Eh   |
          | TOTAL ENTHALPY            -94.673132874790 Eh   |
          | TOTAL FREE ENERGY         -94.756592738739 Eh   |
          | GRADIENT NORM               0.000088440494 Eh/α |
          | HOMO-LUMO GAP               0.111011065733 eV   |
           -------------------------------------------------

 * finished run on 2025/07/19 at 00:24:25.166
