   * xtb version 6.7.1 (edcfbbe) compiled by 'albert@albert-system' on 2024-07-22

   ID    Z sym.   atoms
    1    6 C      1-9, 11-21, 23, 27, 29-35
    2    7 N      10, 22, 24, 26, 28
    3    8 O      25
    4    1 H      36-54

          program call               : xtb data2507/toluene/ANOP-DMAC/ANOP-DMAC.xyz --gfn 2 --gbsa toluene --ohess vtight --parallel 40 --molden --ceasefiles --namespace data2507/toluene/ANOP-DMAC/ANOP-DMAC_toluene_S0_preOpt
      * Solvation model:               GBSA
        Solvent                        toluene
        Solvent mass                       9.2140E+01 g/mol
          :  Hamiltonian                  GFN2-xTB          :
 * total energy  :   -90.4523675 Eh     change       -0.2670944E-08 Eh
 * total energy  :   -90.4721849 Eh     change       -0.1981743E-01 Eh
 * total energy  :   -90.4783537 Eh     change       -0.6168801E-02 Eh
 * total energy  :   -90.4790823 Eh     change       -0.7285538E-03 Eh
 * total energy  :   -90.4794192 Eh     change       -0.3369417E-03 Eh
 * total energy  :   -90.4794692 Eh     change       -0.4996096E-04 Eh
 * total energy  :   -90.4794850 Eh     change       -0.1580549E-04 Eh
 * total energy  :   -90.4794912 Eh     change       -0.6228927E-05 Eh
 * total energy  :   -90.4794943 Eh     change       -0.3080221E-05 Eh
 * total energy  :   -90.4794970 Eh     change       -0.2717656E-05 Eh
 * total energy  :   -90.4795036 Eh     change       -0.1889759E-05 Eh
 * total energy  :   -90.4795056 Eh     change       -0.2000590E-05 Eh
 * total energy  :   -90.4795077 Eh     change       -0.2043644E-05 Eh
 * total energy  :   -90.4795094 Eh     change       -0.1715437E-05 Eh
 * total energy  :   -90.4795101 Eh     change       -0.7039261E-06 Eh
 * total energy  :   -90.4795103 Eh     change       -0.1825837E-06 Eh
 * total energy  :   -90.4795104 Eh     change       -0.1010155E-06 Eh
 * total energy  :   -90.4795105 Eh     change       -0.1063628E-06 Eh
 * total energy  :   -90.4795105 Eh     change       -0.2207813E-08 Eh
   *** GEOMETRY OPTIMIZATION CONVERGED AFTER 22 ITERATIONS ***

 final structure:
================
54
 xtb: 6.7.1 (edcfbbe)
C           -4.85493350625610       -0.00027792137481        1.24869547066682
C           -3.87990152846798        0.00009638472944        0.05614984663445
C           -4.66242260564039        0.00016335619284       -1.27051970001465
C           -3.03304702378564       -1.25716312312903        0.12404433072066
C           -3.64501249207819       -2.50162474567017        0.05144048727362
C           -2.92375778951524       -3.68015704829893        0.11186012109506
C           -1.54774510177427       -3.62754173177090        0.24893378356353
C           -0.91353476855892       -2.40515687424829        0.32608535141694
C           -1.64232217264134       -1.21371211235440        0.26750321564361
N           -0.97504902970811        0.00058529521199        0.35113721295741
C            0.43111789560942        0.00079810566235        0.53374517236217
C            0.96225719287281        0.00282000324112        1.81017889032611
C            2.34289724341306        0.00298222406299        2.06383073920448
C            3.20074049366170        0.00123493361930        0.98810649683115
C            2.65961208963937       -0.00060353267064       -0.31992023805155
C            3.65948396158387       -0.00191333781239       -1.32172448032050
C            3.27904067038616       -0.00348439578999       -2.64358885795996
C            1.90422554551636       -0.00380712795478       -2.93994778565124
C            0.93129145423452       -0.00264362124173       -1.96685906042140
C            1.29087854435257       -0.00098070777027       -0.60022091118418
C            4.92809358095926       -0.00107437008725       -0.62026789118248
N            6.12826802104456       -0.00190294380115       -1.12917080111546
C            7.08675130474867       -0.00073116346269       -0.17843917633644
N            8.39385858160098       -0.00100245492333       -0.31950982209952
O            8.89394218823000        0.00055246497394        0.92185387967307
N            7.95640119157227        0.00188601690748        1.87704098903849
C            6.80308041330413        0.00123904780590        1.24576210152152
N            5.55356992526892        0.00205827741999        1.75665617986777
C            4.64031820043472        0.00090864739771        0.82606201450551
C           -1.64278915280346        1.21465771961134        0.26807030493153
C           -0.91436991828208        2.40634058098328        0.32639878093429
C           -1.54899480804542        3.62851632649060        0.24939098545492
C           -2.92504595678202        3.68067748223251        0.11252534797455
C           -3.64590349048159        2.50190683963286        0.05200515208364
C           -3.03351727217106        1.25764683430699        0.12450839963581
H           -5.49074530727370        0.88034732469455        1.22811394910634
H           -4.29806036576044       -0.00032253560029        2.18420233770942
H           -5.49045008521048       -0.88110892825042        1.22785608309162
H           -3.97093128068758        0.00041121944290       -2.11120574310396
H           -5.29491830278278       -0.87942248341567       -1.34723940519934
H           -5.29524823810887        0.87953105858960       -1.34699624898157
H           -4.71746493484451       -2.55939903657009       -0.05348153508280
H           -3.43257849877657       -4.63038939770648        0.05321375044019
H           -0.96535962183591       -4.53570391868440        0.29687394643918
H            0.16003675006507       -2.36959647261817        0.43445441647141
H            0.27910283617304        0.00420198301202        2.64699658401483
H            2.71324984611194        0.00434181701779        3.07664331044810
H            4.01202921431510       -0.00441243613727       -3.43484757854836
H            1.60675351262042       -0.00493450794862       -3.97767342355727
H           -0.11271806212868       -0.00287606599957       -2.24110646241875
H            0.15926218532616        2.37110463964667        0.43427793703696
H           -0.96688600113076        4.53686644338964        0.29712679752788
H           -3.43418503292048        4.63074135744960        0.05393179083242
H           -4.71837049459238        2.55932961156637       -0.05295803620673

          :  Hamiltonian                  GFN2-xTB          :
         :: gradient norm              0.000032474711 Eh/a0 ::
         :: HOMO-LUMO gap              0.187189888396 eV    ::
         :: SCC energy               -91.958348825668 Eh    ::
         :: -> dispersion             -0.077953053390 Eh    ::
         :: -> Gsolv                  -0.043621536533 Eh    ::
         :: repulsion energy           1.478838359225 Eh    ::

    * Orbital Energies and Occupations

         #    Occupation            Energy/Eh            Energy/eV
      -------------------------------------------------------------
         1        2.0000           -0.8033652             -21.8607
       ...           ...                  ...                  ...
        71        2.0000           -0.4452475             -12.1158
        72        2.0000           -0.4443687             -12.0919
        73        2.0000           -0.4437238             -12.0743
        74        2.0000           -0.4394110             -11.9570
        75        2.0000           -0.4325999             -11.7716
        76        2.0000           -0.4209451             -11.4545
        77        2.0000           -0.4139658             -11.2646
        78        2.0000           -0.4134623             -11.2509
        79        2.0000           -0.4107337             -11.1766
        80        2.0000           -0.4047513             -11.0138
        81        2.0000           -0.3992404             -10.8639
        82        2.0000           -0.3883939             -10.5687
        83        1.9479           -0.3558915              -9.6843 (HOMO)
        84        0.0521           -0.3490116              -9.4971 (LUMO)
        85                         -0.3249843              -8.8433
        86                         -0.2708748              -7.3709
        87                         -0.2649889              -7.2107
        88                         -0.2384567              -6.4887
        89                         -0.2316123              -6.3025
        90                         -0.2260069              -6.1500
        91                         -0.2252159              -6.1284
        92                         -0.2132968              -5.8041
        93                         -0.1982267              -5.3940
        94                         -0.1829758              -4.9790
       ...                                ...                  ...
       159                          0.6912856              18.8108
      -------------------------------------------------------------
                  HL-Gap            0.0068799 Eh            0.1872 eV

     #   Z          covCN         q      C6AA      α(0)
     1   6 C        3.761    -0.105    22.557     6.770
     2   6 C        3.908     0.022    20.151     6.380
     3   6 C        3.761    -0.106    22.568     6.772
     4   6 C        2.978    -0.011    28.274     8.722
     5   6 C        2.928    -0.035    28.876     8.812
     6   6 C        2.917    -0.043    29.058     8.840
     7   6 C        2.919    -0.033    28.815     8.803
     8   6 C        2.924    -0.058    29.452     8.900
     9   6 C        2.928     0.056    26.744     8.481
    10   7 N        2.754    -0.062    22.432     7.034
    11   6 C        2.925     0.078    26.268     8.405
    12   6 C        2.921    -0.034    28.851     8.808
    13   6 C        2.911    -0.012    28.315     8.725
    14   6 C        3.023    -0.012    28.284     8.724
    15   6 C        3.135    -0.000    27.816     8.633
    16   6 C        3.023    -0.009    28.215     8.713
    17   6 C        2.912    -0.010    28.257     8.717
    18   6 C        2.919    -0.020    28.508     8.756
    19   6 C        2.917    -0.015    28.380     8.736
    20   6 C        2.977     0.012    27.747     8.640
    21   6 C        3.098     0.099    25.703     8.308
    22   7 N        1.829    -0.267    27.776     7.810
    23   6 C        3.042     0.168    24.345     8.093
    24   7 N        1.912    -0.156    25.175     7.439
    25   8 O        1.935    -0.004    14.509     5.144
    26   7 N        1.912    -0.157    25.182     7.440
    27   6 C        3.042     0.168    24.343     8.092
    28   7 N        1.829    -0.267    27.791     7.812
    29   6 C        3.098     0.099    25.696     8.307
    30   6 C        2.928     0.056    26.744     8.481
    31   6 C        2.924    -0.058    29.452     8.900
    32   6 C        2.919    -0.033    28.815     8.803
    33   6 C        2.917    -0.043    29.058     8.840
    34   6 C        2.928    -0.035    28.876     8.812
    35   6 C        2.978    -0.011    28.274     8.722
    36   1 H        0.925     0.045     2.389     2.417
    37   1 H        0.925     0.032     2.555     2.500
    38   1 H        0.925     0.045     2.389     2.417
    39   1 H        0.925     0.033     2.549     2.497
    40   1 H        0.925     0.045     2.386     2.416
    41   1 H        0.925     0.045     2.386     2.416
    42   1 H        0.926     0.039     2.460     2.453
    43   1 H        0.926     0.031     2.567     2.505
    44   1 H        0.926     0.030     2.581     2.512
    45   1 H        0.926     0.021     2.712     2.575
    46   1 H        0.926     0.071     2.079     2.255
    47   1 H        0.926     0.071     2.070     2.250
    48   1 H        0.926     0.069     2.098     2.265
    49   1 H        0.926     0.071     2.078     2.254
    50   1 H        0.926     0.068     2.110     2.272
    51   1 H        0.926     0.021     2.712     2.575
    52   1 H        0.926     0.030     2.581     2.512
    53   1 H        0.926     0.031     2.567     2.506
    54   1 H        0.926     0.039     2.460     2.453

molecular dipole:
                 x           y           z       tot (Debye)
 q only:       -4.350      -0.001      -0.850
   full:       -4.421      -0.001      -0.843      11.439

 projected vibrational frequencies (cm⁻¹)
eigval :       -0.00     0.00     0.00     0.00     0.00     0.00
eigval :      -31.48    13.17    18.84    42.28    68.55    81.29
eigval :       94.81    99.29   119.18   126.39   133.59   153.13
eigval :      162.55   179.78   186.35   200.46   218.31   233.75
eigval :      273.43   293.84   303.86   324.92   329.36   333.17
eigval :      348.44   358.74   376.84   386.74   405.34   408.55
eigval :      413.53   422.64   445.76   474.15   479.27   497.40
eigval :      511.72   530.45   544.18   547.90   559.91   562.27
eigval :      579.18   583.03   587.18   624.59   624.99   657.96
eigval :      662.79   674.33   679.82   692.22   713.49   716.00
eigval :      736.30   764.15   768.42   777.29   778.26   785.52
eigval :      803.60   810.97   822.70   838.96   866.79   867.55
eigval :      894.73   902.08   912.07   915.01   915.77   917.81
eigval :      921.49   923.02   923.20   929.91   935.81   946.35
eigval :      954.30   972.87  1012.00  1028.88  1044.69  1066.46
eigval :     1075.08  1089.95  1095.90  1111.05  1117.24  1132.10
eigval :     1139.25  1156.61  1163.38  1177.19  1184.50  1186.12
eigval :     1186.92  1213.15  1227.93  1240.60  1247.84  1247.94
eigval :     1266.27  1291.47  1291.92  1309.47  1321.96  1329.13
eigval :     1332.13  1332.55  1341.51  1351.30  1386.13  1397.52
eigval :     1415.99  1417.18  1424.92  1434.06  1436.23  1437.41
eigval :     1471.70  1472.00  1483.79  1484.55  1487.95  1495.29
eigval :     1499.32  1543.11  1557.23  1570.36  1570.79  1577.29
eigval :     1585.49  1587.76  1594.44  1597.23  1605.35  3020.90
eigval :     3025.08  3041.32  3044.72  3049.34  3054.83  3076.39
eigval :     3076.41  3083.75  3083.82  3090.49  3090.74  3091.36
eigval :     3093.20  3097.44  3098.12  3100.91  3107.55  3108.88

   temp. (K)  partition function   enthalpy   heat capacity  entropy
                                   cal/mol     cal/K/mol   cal/K/mol   J/K/mol
 298.15  VIB  0.402E+10            14399.215     97.682     86.089
         ROT  0.275E+08              888.752      2.981     37.020
         INT  0.110E+18            15287.967    100.663    123.109
         TR   0.934E+28             1481.254      4.968     44.204
         TOT                       16769.2211   105.6315   167.3130   700.0375

       T/K    H(0)-H(T)+PV         H(T)/Eh          T*S/Eh         G(T)/Eh
   ------------------------------------------------------------------------
    298.15    0.267235E-01    0.429789E+00    0.794958E-01    0.350294E+00
   ------------------------------------------------------------------------

         :::::::::::::::::::::::::::::::::::::::::::::::::::::
         ::                  THERMODYNAMIC                  ::
         :::::::::::::::::::::::::::::::::::::::::::::::::::::
         :: total free energy         -90.129216920345 Eh   ::
         ::.................................................::
         :: total energy              -90.479510468303 Eh   ::
         :: zero point energy           0.403065890966 Eh   ::
         :: G(RRHO) w/o ZPVE           -0.052772343009 Eh   ::
         :: G(RRHO) contrib.            0.350293547958 Eh   ::
         :::::::::::::::::::::::::::::::::::::::::::::::::::::

           -------------------------------------------------
          | TOTAL ENERGY              -90.479510468303 Eh   |
          | TOTAL ENTHALPY            -90.049721122562 Eh   |
          | TOTAL FREE ENERGY         -90.129216920345 Eh   |
          | GRADIENT NORM               0.000032580818 Eh/α |
          | HOMO-LUMO GAP               0.187211948958 eV   |
           -------------------------------------------------

 * finished run on 2025/09/08 at 11:42:32.989
