   * xtb version 6.7.1 (edcfbbe) compiled by 'albert@albert-system' on 2024-07-22

   ID    Z sym.   atoms
    1    6 C      1-9, 11-21, 23, 27, 29-35
    2    7 N      10, 22, 24, 26, 28
    3    8 O      25
    4    1 H      36-54

          program call               : xtb data2507/toluene/ANOP-DMAC/ANOP-DMAC_toluene_S0_finalOpt.xtbopt.xyz --gfn 2 --uhf 2 --gbsa toluene --ohess vtight --parallel 40 --molden --ceasefiles --namespace data2507/toluene/ANOP-DMAC/ANOP-DMAC_toluene_T1_preOpt
      * Solvation model:               GBSA
        Solvent                        toluene
        Solvent mass                       9.2140E+01 g/mol
          :  Hamiltonian                  GFN2-xTB          :
 * total energy  :   -90.4422680 Eh     change       -0.1562395E-07 Eh
 * total energy  :   -90.4462667 Eh     change       -0.3998715E-02 Eh
 * total energy  :   -90.4478043 Eh     change       -0.1537630E-02 Eh
 * total energy  :   -90.4479201 Eh     change       -0.1157998E-03 Eh
 * total energy  :   -90.4480019 Eh     change       -0.8177662E-04 Eh
 * total energy  :   -90.4480239 Eh     change       -0.2202558E-04 Eh
 * total energy  :   -90.4480461 Eh     change       -0.2214648E-04 Eh
 * total energy  :   -90.4480673 Eh     change       -0.2125404E-04 Eh
 * total energy  :   -90.4480859 Eh     change       -0.1855348E-04 Eh
 * total energy  :   -90.4481095 Eh     change       -0.2365588E-04 Eh
 * total energy  :   -90.4486497 Eh     change       -0.4735759E-06 Eh
 * total energy  :   -90.4486503 Eh     change       -0.5334253E-06 Eh
 * total energy  :   -90.4486509 Eh     change       -0.6074854E-06 Eh
 * total energy  :   -90.4486516 Eh     change       -0.6835041E-06 Eh
 * total energy  :   -90.4486523 Eh     change       -0.7487489E-06 Eh
 * total energy  :   -90.4486531 Eh     change       -0.7963127E-06 Eh
 * total energy  :   -90.4486539 Eh     change       -0.8087489E-06 Eh
 * total energy  :   -90.4486547 Eh     change       -0.7605945E-06 Eh
 * total energy  :   -90.4486547 Eh     change       -0.3089866E-08 Eh
   *** GEOMETRY OPTIMIZATION CONVERGED AFTER 68 ITERATIONS ***

 final structure:
================
54
 xtb: 6.7.1 (edcfbbe)
C           -6.00704599665841        0.30827475148124        1.21424509504252
C           -5.03367424237995       -0.02333163959941        0.06537049602380
C           -5.82138787389012       -0.44368976354321       -1.19152032674749
C           -4.15389744568652       -1.17579288927951        0.49964123175318
C           -4.72903972910068       -2.39674176750408        0.82748020784248
C           -3.97094365791657       -3.47318304792989        1.25022236474025
C           -2.59510206005400       -3.33820295187902        1.36688930063331
C           -1.99622509148270       -2.13951697100071        1.05149543898841
C           -2.75950726962636       -1.05197221207351        0.60271872805077
N           -2.12933883164014        0.13489688831720        0.28085434504690
C           -0.71526403068275        0.21628072207225        0.40856762108138
C           -0.15980896613753        0.83663381401683        1.50921532975351
C            1.22750352166908        0.95678470604644        1.70208093977988
C            2.06462650737834        0.43142761106204        0.74639624490597
C            1.48897286995450       -0.20618456061137       -0.38129289383799
C            2.48111585012302       -0.69429411567532       -1.26592974998253
C            2.08237407806099       -1.34090923852357       -2.41032620456275
C            0.70090870864353       -1.48247251906529       -2.64891265525625
C           -0.26036915354205       -1.00774648888223       -1.78978929389394
C            0.12029090683588       -0.34167557154339       -0.60053019565705
C            3.75523516373179       -0.34511797563878       -0.66537587341984
N            4.97831866395108       -0.58116507886296       -1.11236185780050
C            5.96539424443306       -0.13902290657638       -0.34644170213856
N            7.25761708573216       -0.21047520565836       -0.49960686378356
O            7.81178788467281        0.41051241027752        0.59052365194946
N            6.85259675741936        0.88359648264049        1.45036235129851
C            5.70096890316842        0.57308225321453        0.92350507583359
N            4.46720348191394        0.79719358783853        1.34871128265273
C            3.49841973219414        0.34415763713163        0.56508467418909
C           -2.82745618819899        1.24402215091679       -0.15666380410324
C           -2.12777398324511        2.40540802297872       -0.51504689927004
C           -2.79924344675742        3.53040007954461       -0.93772452372675
C           -4.18416746836413        3.51720117449332       -1.01833571836452
C           -4.87602639338007        2.36622365528437       -0.68874214212134
C           -4.22711598242841        1.21497338933675       -0.26185883538927
H           -6.66506255543688        1.12610193492845        0.93678612714645
H           -5.44989270888772        0.59987868081787        2.10254891932208
H           -6.61925634196937       -0.55406763757689        1.46017681970319
H           -5.13423279921267       -0.67829234529414       -2.00212040879721
H           -6.42790613824823       -1.32125109295771       -0.99007423527320
H           -6.47866430501341        0.35580990645680       -1.51916617532831
H           -5.79836832335183       -2.51621161442075        0.75473931925638
H           -4.44942673279672       -4.40906404007620        1.49414713897131
H           -1.99003982183737       -4.16460386897795        1.70699868577235
H           -0.92745522792094       -2.03550051983535        1.15256174796835
H           -0.82253872041887        1.24875140628588        2.25651266028782
H            1.61217103909445        1.44816277557138        2.58175744788422
H            2.80114054454527       -1.73260171890292       -3.11332544710223
H            0.39251815322845       -1.98945231987352       -3.55107549539395
H           -1.30613113462813       -1.14462945800147       -2.01880946374315
H           -1.05052973421298        2.41598242695095       -0.46159390994886
H           -2.24329012558570        4.41573541724687       -1.20583895634215
H           -4.71969938721254        4.39585591677941       -1.34305300084383
H           -5.95146956701507        2.37059700486666       -0.76896604136256

          :  Hamiltonian                  GFN2-xTB          :
         :: gradient norm              0.000048787497 Eh/a0 ::
         :: HOMO-LUMO gap              0.483543082550 eV    ::
         :: SCC energy               -91.931427400578 Eh    ::
         :: -> dispersion             -0.077708893064 Eh    ::
         :: -> Gsolv                  -0.055920714550 Eh    ::
         :: repulsion energy           1.482772728384 Eh    ::

    * Orbital Energies and Occupations

         #    Occupation            Energy/Eh            Energy/eV
      -------------------------------------------------------------
         1        2.0000           -0.7569649             -20.5981
       ...           ...                  ...                  ...
        72        2.0000           -0.4393495             -11.9553
        73        2.0000           -0.4329394             -11.7809
        74        2.0000           -0.4290976             -11.6763
        75        2.0000           -0.4246816             -11.5562
        76        2.0000           -0.4239558             -11.5364
        77        2.0000           -0.4235130             -11.5244
        78        2.0000           -0.4210007             -11.4560
        79        2.0000           -0.4182283             -11.3806
        80        2.0000           -0.4122892             -11.2190
        81        2.0000           -0.4089284             -11.1275
        82        1.5992           -0.3708208             -10.0905
        83        1.4008           -0.3700569             -10.0698
        84        0.9999           -0.3311360              -9.0107 (HOMO)
        85        0.0001           -0.3133661              -8.5271 (LUMO)
        86                         -0.2572372              -6.9998
        87                         -0.2474015              -6.7321
        88                         -0.2421664              -6.5897
        89                         -0.2388722              -6.5000
        90                         -0.2380752              -6.4784
        91                         -0.2223853              -6.0514
        92                         -0.2130344              -5.7970
        93                         -0.2030417              -5.5250
        94                         -0.1676678              -4.5625
        95                         -0.1128647              -3.0712
       ...                                ...                  ...
       159                          0.7049990              19.1840
      -------------------------------------------------------------
                  HL-Gap            0.0177700 Eh            0.4835 eV

     #   Z          covCN         q      C6AA      α(0)
     1   6 C        3.761    -0.109    22.628     6.781
     2   6 C        3.909     0.025    20.103     6.373
     3   6 C        3.761    -0.109    22.632     6.782
     4   6 C        2.978    -0.000    28.024     8.684
     5   6 C        2.925    -0.031    28.776     8.797
     6   6 C        2.917    -0.030    28.751     8.793
     7   6 C        2.918    -0.026    28.663     8.779
     8   6 C        2.922    -0.048    29.199     8.861
     9   6 C        2.929     0.058    26.690     8.472
    10   7 N        2.754    -0.016    21.561     6.896
    11   6 C        2.928     0.058    26.700     8.474
    12   6 C        2.921    -0.035    28.881     8.813
    13   6 C        2.912    -0.021    28.529     8.758
    14   6 C        3.036    -0.008    28.186     8.708
    15   6 C        3.139    -0.013    28.105     8.676
    16   6 C        3.035    -0.007    28.151     8.703
    17   6 C        2.912    -0.017    28.435     8.744
    18   6 C        2.919    -0.023    28.580     8.767
    19   6 C        2.917    -0.025    28.624     8.773
    20   6 C        2.977     0.009    27.801     8.649
    21   6 C        3.070     0.079    26.174     8.389
    22   7 N        1.831    -0.276    28.013     7.843
    23   6 C        2.979     0.195    23.847     8.010
    24   7 N        1.891    -0.208    26.360     7.611
    25   8 O        1.903    -0.078    15.503     5.317
    26   7 N        1.891    -0.210    26.397     7.617
    27   6 C        2.977     0.195    23.851     8.011
    28   7 N        1.831    -0.278    28.049     7.848
    29   6 C        3.069     0.076    26.231     8.398
    30   6 C        2.929     0.058    26.694     8.473
    31   6 C        2.922    -0.049    29.209     8.863
    32   6 C        2.918    -0.026    28.662     8.779
    33   6 C        2.917    -0.030    28.751     8.793
    34   6 C        2.925    -0.031    28.775     8.797
    35   6 C        2.978     0.000    28.021     8.683
    36   1 H        0.925     0.053     2.279     2.361
    37   1 H        0.925     0.038     2.470     2.458
    38   1 H        0.925     0.053     2.281     2.362
    39   1 H        0.925     0.039     2.468     2.457
    40   1 H        0.925     0.053     2.278     2.360
    41   1 H        0.925     0.053     2.281     2.362
    42   1 H        0.926     0.054     2.272     2.357
    43   1 H        0.926     0.046     2.365     2.405
    44   1 H        0.926     0.043     2.409     2.427
    45   1 H        0.926     0.036     2.496     2.471
    46   1 H        0.926     0.065     2.138     2.287
    47   1 H        0.926     0.060     2.204     2.321
    48   1 H        0.926     0.055     2.259     2.351
    49   1 H        0.926     0.062     2.173     2.305
    50   1 H        0.926     0.059     2.212     2.326
    51   1 H        0.926     0.037     2.488     2.466
    52   1 H        0.926     0.043     2.405     2.425
    53   1 H        0.926     0.046     2.366     2.405
    54   1 H        0.926     0.054     2.273     2.358

molecular dipole:
                 x           y           z       tot (Debye)
 q only:       -8.893      -0.425      -0.594
   full:       -8.851      -0.428      -0.599      22.575

 projected vibrational frequencies (cm⁻¹)
eigval :       -0.00    -0.00    -0.00    -0.00    -0.00     0.00
eigval :       20.75    22.44    25.73    52.65    69.68    89.21
eigval :       98.51   102.13   124.67   143.01   143.38   152.42
eigval :      174.62   193.24   200.42   205.71   217.72   236.23
eigval :      265.39   300.71   303.59   326.05   328.57   339.56
eigval :      348.25   359.66   378.19   390.21   404.42   409.27
eigval :      416.23   438.44   448.21   473.24   481.34   499.08
eigval :      504.32   528.02   528.46   541.58   550.06   558.06
eigval :      567.53   574.47   584.66   586.94   624.66   646.58
eigval :      651.14   665.56   676.21   688.48   702.29   704.49
eigval :      710.03   727.49   745.01   774.13   777.70   784.72
eigval :      793.68   812.14   824.88   838.39   866.52   872.31
eigval :      874.59   876.74   893.40   908.33   915.36   916.58
eigval :      919.28   922.40   923.62   924.04   928.20   937.03
eigval :      941.51   960.05  1009.55  1012.69  1037.64  1065.83
eigval :     1073.07  1090.04  1105.34  1111.43  1121.13  1130.58
eigval :     1137.80  1145.66  1162.73  1180.16  1181.98  1184.04
eigval :     1189.77  1206.99  1215.55  1222.56  1236.99  1241.83
eigval :     1250.42  1262.37  1291.34  1293.34  1307.19  1311.16
eigval :     1326.40  1328.29  1333.31  1346.70  1378.53  1388.27
eigval :     1398.40  1417.02  1417.39  1424.55  1429.58  1434.42
eigval :     1453.22  1468.88  1473.50  1480.31  1481.58  1482.07
eigval :     1492.26  1496.35  1550.73  1563.99  1570.89  1575.96
eigval :     1576.12  1583.18  1587.71  1595.06  1607.26  3028.64
eigval :     3031.26  3050.82  3053.00  3057.80  3062.02  3086.66
eigval :     3087.03  3088.03  3088.11  3094.45  3094.91  3096.62
eigval :     3102.80  3103.71  3103.96  3105.77  3108.23  3108.87

   temp. (K)  partition function   enthalpy   heat capacity  entropy
                                   cal/mol     cal/K/mol   cal/K/mol   J/K/mol
 298.15  VIB  0.102E+11            14908.253     99.755     89.037
         ROT  0.276E+08              888.752      2.981     37.027
         INT  0.282E+18            15797.006    102.736    126.064
         TR   0.934E+28             1481.254      4.968     44.204
         TOT                       17278.2596   107.7041   170.2687   712.4041

       T/K    H(0)-H(T)+PV         H(T)/Eh          T*S/Eh         G(T)/Eh
   ------------------------------------------------------------------------
    298.15    0.275347E-01    0.429468E+00    0.809001E-01    0.348568E+00
   ------------------------------------------------------------------------

         :::::::::::::::::::::::::::::::::::::::::::::::::::::
         ::                  THERMODYNAMIC                  ::
         :::::::::::::::::::::::::::::::::::::::::::::::::::::
         :: total free energy         -90.100086711094 Eh   ::
         ::.................................................::
         :: total energy              -90.448654673716 Eh   ::
         :: zero point energy           0.401933438105 Eh   ::
         :: G(RRHO) w/o ZPVE           -0.053365475482 Eh   ::
         :: G(RRHO) contrib.            0.348567962622 Eh   ::
         :::::::::::::::::::::::::::::::::::::::::::::::::::::

           -------------------------------------------------
          | TOTAL ENERGY              -90.448654673716 Eh   |
          | TOTAL ENTHALPY            -90.019186576265 Eh   |
          | TOTAL FREE ENERGY         -90.100086711094 Eh   |
          | GRADIENT NORM               0.000050125186 Eh/α |
          | HOMO-LUMO GAP               0.483545075256 eV   |
           -------------------------------------------------

 * finished run on 2025/09/08 at 11:44:17.249
