   * xtb version 6.7.1 (edcfbbe) compiled by 'albert@albert-system' on 2024-07-22

   ID    Z sym.   atoms
    1    6 C      1-9, 11-21, 23, 27, 29-35
    2    7 N      10, 22, 24, 26, 28
    3    8 O      25
    4    1 H      36-54

          program call               : xtb data2507/toluene/ANOP-DMAC/ANOP-DMAC_toluene_S0_crest.xyz --gfn 2 --gbsa toluene --ohess vtight --parallel 40 --molden --ceasefiles --namespace data2507/toluene/ANOP-DMAC/ANOP-DMAC_toluene_S0_finalOpt
      * Solvation model:               GBSA
        Solvent                        toluene
        Solvent mass                       9.2140E+01 g/mol
          :  Hamiltonian                  GFN2-xTB          :
 * total energy  :   -90.4809155 Eh     change       -0.7542340E-08 Eh
 * total energy  :   -90.4810076 Eh     change       -0.9210119E-04 Eh
 * total energy  :   -90.4810405 Eh     change       -0.3288073E-04 Eh
 * total energy  :   -90.4810458 Eh     change       -0.5376862E-05 Eh
 * total energy  :   -90.4810498 Eh     change       -0.4009575E-05 Eh
 * total energy  :   -90.4810528 Eh     change       -0.2953456E-05 Eh
 * total energy  :   -90.4810552 Eh     change       -0.2376828E-05 Eh
 * total energy  :   -90.4810573 Eh     change       -0.2156886E-05 Eh
 * total energy  :   -90.4810596 Eh     change       -0.2272661E-05 Eh
 * total energy  :   -90.4810618 Eh     change       -0.2157057E-05 Eh
 * total energy  :   -90.4810664 Eh     change       -0.7917384E-06 Eh
 * total energy  :   -90.4810672 Eh     change       -0.7951802E-06 Eh
 * total energy  :   -90.4810680 Eh     change       -0.8574954E-06 Eh
 * total energy  :   -90.4810689 Eh     change       -0.9144415E-06 Eh
 * total energy  :   -90.4810699 Eh     change       -0.9668834E-06 Eh
 * total energy  :   -90.4810709 Eh     change       -0.9906234E-06 Eh
 * total energy  :   -90.4810719 Eh     change       -0.9839366E-06 Eh
 * total energy  :   -90.4810728 Eh     change       -0.9262561E-06 Eh
 * total energy  :   -90.4810728 Eh     change       -0.6076206E-08 Eh
   *** GEOMETRY OPTIMIZATION CONVERGED AFTER 22 ITERATIONS ***

 final structure:
================
54
 xtb: 6.7.1 (edcfbbe)
C           -6.05319337556182        0.18146823067048        1.12997922693782
C           -5.01305158017500       -0.01924808070254        0.01142787226682
C           -5.71602952854923       -0.37044717808751       -1.31368764105791
C           -4.10392405175861       -1.16603080047563        0.40472386519187
C           -4.65605130874852       -2.41527575478767        0.66197065936654
C           -3.88901857637600       -3.48527574733923        1.08187392178826
C           -2.53286121098049       -3.30396549382922        1.29100691774365
C           -1.95949537604065       -2.07544313661450        1.04028458483781
C           -2.72315429922571       -1.00786586668664        0.55599938491777
N           -2.10606998598268        0.21361124472269        0.28769445873111
C           -0.70820939672145        0.30237412729725        0.38910573701948
C           -0.12691108478378        1.11032458337843        1.35773954569104
C            1.25544829024549        1.24142783753233        1.52125109140239
C            2.08479430296162        0.54581235161504        0.66642182643938
C            1.49835795797173       -0.26874489558887       -0.33486269470942
C            2.46760829349718       -0.89862132736994       -1.15096952675497
C            2.05275948210304       -1.70678858496523       -2.18365673658497
C            0.67097467576991       -1.86418287819494       -2.38550080767417
C           -0.27232546175925       -1.25612793634172       -1.58875551381775
C            0.12275160826511       -0.42872505722072       -0.51299988098624
C            3.75693408491285       -0.47960990223788       -0.63718083732052
N            4.93855643139026       -0.81336026058806       -1.06999984932407
C            5.92708549978808       -0.23412089542676       -0.35341499730941
N            7.22770863435193       -0.34232448982799       -0.50219678973562
O            7.76886263018412        0.42599388138713        0.45106835061945
N            6.86125871179628        1.03764872586017        1.22458155894142
C            5.68775853212064        0.65990140755412        0.76596940237676
N            4.45739124559683        0.99725618371409        1.20193789830428
C            3.51177200897667        0.42702441478687        0.50188868106745
C           -2.84885214245659        1.34063375798063       -0.06486868250540
C           -2.19550326719582        2.53883624527564       -0.37074425028272
C           -2.90468116487887        3.66899511592263       -0.71892724000471
C           -4.28590987253763        3.62046749653080       -0.78781756088120
C           -4.93101256439356        2.42487294655130       -0.53608534616892
C           -4.24108276775003        1.27110121925868       -0.18285691359746
H           -6.72189481431581        1.00406516874977        0.89429638000304
H           -5.55065415231546        0.40534479824011        2.06931744375173
H           -6.65329300366272       -0.71315012394299        1.26726548592169
H           -4.97954701725941       -0.49481432850375       -2.10564395120342
H           -6.27717153792575       -1.29569060573412       -1.21852725548351
H           -6.40407584846779        0.41701933980179       -1.60730514949963
H           -5.71732033735570       -2.56109602982823        0.53406217906233
H           -4.34903826395283       -4.44426568293210        1.26522881182603
H           -1.91944910015357       -4.11384283795835        1.65655534926292
H           -0.90637895079059       -1.94004889797996        1.23150887874900
H           -0.78101935614444        1.65063387590000        2.02681906220862
H            1.65717914967625        1.86398809838637        2.30489312115043
H            2.76492202993335       -2.20152553083578       -2.82509206904673
H            0.34140614245970       -2.48746429269645       -3.20288869707958
H           -1.32218915706036       -1.40897037521025       -1.78661523569067
H           -1.11820035350217        2.58554040569863       -0.34731497893762
H           -2.37452544394180        4.58246166600907       -0.94352756667350
H           -4.85390236241005        4.49893532398713       -1.05341970638715
H           -6.00569869616657        2.39174298899590       -0.62512235376204

          :  Hamiltonian                  GFN2-xTB          :
         :: gradient norm              0.000056329042 Eh/a0 ::
         :: HOMO-LUMO gap              0.427571899328 eV    ::
         :: SCC energy               -91.958983199008 Eh    ::
         :: -> dispersion             -0.078296747604 Eh    ::
         :: -> Gsolv                  -0.044857417639 Eh    ::
         :: repulsion energy           1.477910383459 Eh    ::

    * Orbital Energies and Occupations

         #    Occupation            Energy/Eh            Energy/eV
      -------------------------------------------------------------
         1        2.0000           -0.7997432             -21.7621
       ...           ...                  ...                  ...
        71        2.0000           -0.4454876             -12.1223
        72        2.0000           -0.4433374             -12.0638
        73        2.0000           -0.4399356             -11.9713
        74        2.0000           -0.4364556             -11.8766
        75        2.0000           -0.4335792             -11.7983
        76        2.0000           -0.4205605             -11.4440
        77        2.0000           -0.4157647             -11.3135
        78        2.0000           -0.4140975             -11.2682
        79        2.0000           -0.4127897             -11.2326
        80        2.0000           -0.4067703             -11.0688
        81        2.0000           -0.4012916             -10.9197
        82        2.0000           -0.3848373             -10.4720
        83        1.9995           -0.3608740              -9.8199 (HOMO)
        84        0.0005           -0.3451613              -9.3923 (LUMO)
        85                         -0.3213561              -8.7445
        86                         -0.2675163              -7.2795
        87                         -0.2611895              -7.1073
        88                         -0.2357733              -6.4157
        89                         -0.2347114              -6.3868
        90                         -0.2284340              -6.2160
        91                         -0.2276642              -6.1951
        92                         -0.2129520              -5.7947
        93                         -0.1988772              -5.4117
        94                         -0.1791388              -4.8746
       ...                                ...                  ...
       159                          0.6937859              18.8789
      -------------------------------------------------------------
                  HL-Gap            0.0157128 Eh            0.4276 eV

     #   Z          covCN         q      C6AA      α(0)
     1   6 C        3.761    -0.107    22.583     6.774
     2   6 C        3.909     0.022    20.143     6.379
     3   6 C        3.761    -0.106    22.573     6.773
     4   6 C        2.979    -0.008    28.209     8.712
     5   6 C        2.928    -0.035    28.863     8.810
     6   6 C        2.917    -0.040    28.986     8.829
     7   6 C        2.919    -0.032    28.799     8.800
     8   6 C        2.924    -0.055    29.375     8.888
     9   6 C        2.928     0.054    26.779     8.486
    10   7 N        2.752    -0.047    22.157     6.991
    11   6 C        2.924     0.072    26.383     8.423
    12   6 C        2.921    -0.038    28.942     8.822
    13   6 C        2.910    -0.014    28.373     8.734
    14   6 C        3.026    -0.017    28.406     8.742
    15   6 C        3.133    -0.001    27.839     8.637
    16   6 C        3.024    -0.011    28.263     8.720
    17   6 C        2.911    -0.011    28.292     8.722
    18   6 C        2.919    -0.022    28.556     8.763
    19   6 C        2.917    -0.017    28.426     8.743
    20   6 C        2.976     0.010    27.797     8.648
    21   6 C        3.101     0.101    25.653     8.300
    22   7 N        1.829    -0.271    27.876     7.824
    23   6 C        3.043     0.170    24.307     8.086
    24   7 N        1.912    -0.160    25.252     7.450
    25   8 O        1.934    -0.007    14.551     5.152
    26   7 N        1.912    -0.164    25.344     7.464
    27   6 C        3.039     0.171    24.284     8.083
    28   7 N        1.829    -0.278    28.057     7.849
    29   6 C        3.096     0.096    25.751     8.317
    30   6 C        2.925     0.054    26.788     8.488
    31   6 C        2.924    -0.057    29.412     8.894
    32   6 C        2.919    -0.032    28.795     8.800
    33   6 C        2.917    -0.040    28.991     8.829
    34   6 C        2.928    -0.035    28.864     8.811
    35   6 C        2.979    -0.008    28.206     8.712
    36   1 H        0.925     0.046     2.367     2.406
    37   1 H        0.925     0.033     2.537     2.491
    38   1 H        0.925     0.046     2.367     2.406
    39   1 H        0.925     0.033     2.538     2.491
    40   1 H        0.925     0.047     2.363     2.404
    41   1 H        0.925     0.046     2.370     2.407
    42   1 H        0.926     0.043     2.414     2.430
    43   1 H        0.926     0.035     2.519     2.482
    44   1 H        0.926     0.033     2.544     2.494
    45   1 H        0.926     0.025     2.652     2.547
    46   1 H        0.926     0.068     2.110     2.271
    47   1 H        0.926     0.067     2.124     2.279
    48   1 H        0.926     0.066     2.131     2.283
    49   1 H        0.926     0.068     2.107     2.270
    50   1 H        0.926     0.066     2.135     2.285
    51   1 H        0.926     0.029     2.605     2.524
    52   1 H        0.926     0.033     2.538     2.491
    53   1 H        0.926     0.034     2.526     2.486
    54   1 H        0.926     0.042     2.420     2.433

molecular dipole:
                 x           y           z       tot (Debye)
 q only:       -5.107      -0.489      -0.589
   full:       -5.160      -0.491      -0.588      13.259

 projected vibrational frequencies (cm⁻¹)
eigval :       -0.00    -0.00    -0.00     0.00     0.00     0.00
eigval :       20.59    20.86    30.17    53.74    71.28    84.23
eigval :      101.24   105.81   126.44   139.00   149.77   156.73
eigval :      172.78   184.65   199.45   206.48   218.56   240.71
eigval :      276.74   299.61   308.07   328.76   332.79   338.50
eigval :      349.67   360.30   375.38   391.82   405.12   410.59
eigval :      421.78   425.34   454.52   477.49   483.72   499.41
eigval :      513.46   528.84   542.11   547.73   559.92   572.31
eigval :      580.09   584.61   589.06   622.47   624.95   656.02
eigval :      659.85   675.95   685.15   697.08   714.86   716.41
eigval :      733.30   763.92   768.69   777.20   778.02   785.34
eigval :      801.88   810.68   825.01   842.03   871.80   872.56
eigval :      894.19   899.78   911.51   914.93   915.83   920.13
eigval :      921.61   922.96   925.38   929.46   937.95   947.03
eigval :      957.77   972.22  1013.35  1031.67  1048.00  1070.90
eigval :     1074.87  1091.87  1100.38  1113.62  1118.44  1133.81
eigval :     1139.56  1156.21  1166.98  1182.10  1184.99  1187.62
eigval :     1191.50  1213.43  1233.61  1242.26  1248.49  1256.26
eigval :     1264.95  1290.03  1292.78  1308.39  1311.06  1324.75
eigval :     1329.03  1335.85  1343.88  1355.93  1388.34  1400.08
eigval :     1416.09  1418.73  1423.04  1431.31  1432.43  1436.58
eigval :     1466.91  1469.05  1484.80  1485.75  1486.34  1495.56
eigval :     1501.19  1539.41  1555.43  1568.77  1570.98  1580.44
eigval :     1584.72  1587.81  1589.88  1596.45  1606.27  3023.16
eigval :     3025.51  3043.86  3046.45  3052.12  3056.96  3079.40
eigval :     3080.33  3086.48  3087.45  3089.04  3092.16  3096.80
eigval :     3097.84  3101.21  3102.51  3104.43  3107.86  3108.56

   temp. (K)  partition function   enthalpy   heat capacity  entropy
                                   cal/mol     cal/K/mol   cal/K/mol   J/K/mol
 298.15  VIB  0.802E+10            14762.082     98.811     88.247
         ROT  0.275E+08              888.752      2.981     37.020
         INT  0.220E+18            15650.834    101.792    125.267
         TR   0.934E+28             1481.254      4.968     44.204
         TOT                       17132.0879   106.7605   169.4714   709.0685

       T/K    H(0)-H(T)+PV         H(T)/Eh          T*S/Eh         G(T)/Eh
   ------------------------------------------------------------------------
    298.15    0.273017E-01    0.431105E+00    0.805214E-01    0.350584E+00
   ------------------------------------------------------------------------

         :::::::::::::::::::::::::::::::::::::::::::::::::::::
         ::                  THERMODYNAMIC                  ::
         :::::::::::::::::::::::::::::::::::::::::::::::::::::
         :: total free energy         -90.130488956771 Eh   ::
         ::.................................................::
         :: total energy              -90.481072816094 Eh   ::
         :: zero point energy           0.403803492175 Eh   ::
         :: G(RRHO) w/o ZPVE           -0.053219632852 Eh   ::
         :: G(RRHO) contrib.            0.350583859324 Eh   ::
         :::::::::::::::::::::::::::::::::::::::::::::::::::::

           -------------------------------------------------
          | TOTAL ENERGY              -90.481072816094 Eh   |
          | TOTAL ENTHALPY            -90.049967604080 Eh   |
          | TOTAL FREE ENERGY         -90.130488956771 Eh   |
          | GRADIENT NORM               0.000056221527 Eh/α |
          | HOMO-LUMO GAP               0.427566219981 eV   |
           -------------------------------------------------

 * finished run on 2025/09/08 at 11:44:12.326
