   * xtb version 6.7.1 (edcfbbe) compiled by 'albert@albert-system' on 2024-07-22

   ID    Z sym.   atoms
    1    6 C      1-9, 11-21, 23, 27, 29-35
    2    7 N      10, 22, 24, 26, 28
    3    8 O      25
    4    1 H      36-54

          program call               : xtb data2507/toluene/ANOP-DMAC/ANOP-DMAC_toluene_T1_crest.xyz --gfn 2 --uhf 2 --gbsa toluene --ohess vtight --parallel 40 --molden --ceasefiles --namespace data2507/toluene/ANOP-DMAC/ANOP-DMAC_toluene_T1_finalOpt
      * Solvation model:               GBSA
        Solvent                        toluene
        Solvent mass                       9.2140E+01 g/mol
          :  Hamiltonian                  GFN2-xTB          :
 * total energy  :   -90.4481942 Eh     change       -0.4751983E-07 Eh
 * total energy  :   -90.4484590 Eh     change       -0.2648446E-03 Eh
 * total energy  :   -90.4486444 Eh     change       -0.1853745E-03 Eh
 * total energy  :   -90.4486561 Eh     change       -0.1167965E-04 Eh
 * total energy  :   -90.4486597 Eh     change       -0.3565379E-05 Eh
 * total energy  :   -90.4486608 Eh     change       -0.1132429E-05 Eh
 * total energy  :   -90.4486615 Eh     change       -0.7323174E-06 Eh
 * total energy  :   -90.4486624 Eh     change       -0.8509174E-06 Eh
 * total energy  :   -90.4486634 Eh     change       -0.1050300E-05 Eh
 * total energy  :   -90.4486644 Eh     change       -0.9492169E-06 Eh
 * total energy  :   -90.4486664 Eh     change       -0.2985819E-06 Eh
 * total energy  :   -90.4486667 Eh     change       -0.2461480E-06 Eh
 * total energy  :   -90.4486669 Eh     change       -0.2419616E-06 Eh
 * total energy  :   -90.4486672 Eh     change       -0.3117321E-06 Eh
 * total energy  :   -90.4486676 Eh     change       -0.4051046E-06 Eh
 * total energy  :   -90.4486681 Eh     change       -0.4279969E-06 Eh
 * total energy  :   -90.4486684 Eh     change       -0.3530620E-06 Eh
 * total energy  :   -90.4486684 Eh     change        0.7723941E-08 Eh
 * total energy  :   -90.4486684 Eh     change       -0.1233468E-07 Eh
   *** GEOMETRY OPTIMIZATION CONVERGED AFTER 23 ITERATIONS ***

 final structure:
================
54
 xtb: 6.7.1 (edcfbbe)
C           -5.99888454789805        0.16428796658566        1.28379971088792
C           -5.03569815132679        0.00497414893145        0.09044761514629
C           -5.83462728153352       -0.20486432774291       -1.21139796980876
C           -4.16841315469749       -1.21168632112012        0.33249639268976
C           -4.75647661971272       -2.46296141119947        0.46401913853700
C           -4.00884818776556       -3.60188759255507        0.70097170264744
C           -2.63006511058517       -3.50404946350458        0.82035105705404
C           -2.01821306742052       -2.27698043355579        0.69781273492703
C           -2.77200262711761       -1.12180027202619        0.44480588168384
N           -2.13018533784051        0.09477466769794        0.31895852707805
C           -0.71407598020735        0.13921894742158        0.45221460154032
C           -0.14743858499003        0.50216745926739        1.65675154427335
C            1.24234850018348        0.56755145277619        1.86019906294805
C            2.06917715795011        0.25271554107009        0.80797601414083
C            1.48125111815881       -0.12123978759136       -0.42663828101437
C            2.46332906035982       -0.41676904510289       -1.40288510715945
C            2.05136503847590       -0.79462303752242       -2.65756716613446
C            0.66719361885133       -0.86845267424658       -2.91083414438479
C           -0.28441209718198       -0.58279167225706       -1.96189617933279
C            0.11022192446492       -0.19331772543268       -0.65991783847682
C            3.74419459153213       -0.21972875084947       -0.74963687378058
N            4.96213918709087       -0.37135863118365       -1.24453779461713
C            5.95789675334339       -0.11554828549160       -0.40802180953492
N            7.24843074939758       -0.16848616794308       -0.58142488544128
O            7.81499384742429        0.19805476216303        0.61260439985139
N            6.86550209479157        0.48845535164281        1.55986134459372
C            5.70779727338286        0.31192341501292        0.98639203963251
N            4.47880678773276        0.45532986528203        1.45791534320914
C            3.50117329970315        0.19195226228108        0.60185196453326
C           -2.81529370592786        1.26615277052526        0.06209133749618
C           -2.10146944715666        2.46150029375652       -0.10604915216326
C           -2.75895833944741        3.64565773444527       -0.35203758832110
C           -4.14362380864644        3.66023747519644       -0.43795728384915
C           -4.84968822722254        2.48052091655802       -0.28944624756357
C           -4.21505587554351        1.26967638853333       -0.04504040002547
H           -6.62306559385759       -0.71729657076660        1.39398944813375
H           -6.64534857927435        1.02532674874018        1.14374097301514
H           -5.43347552793739        0.30318364524235        2.20330721414161
H           -5.15373459285226       -0.31489651707242       -2.05311717916897
H           -6.44879659536180       -1.09770722233794       -1.14679013413134
H           -6.48583189980989        0.64191230078355       -1.40475092457187
H           -5.82772671266403       -2.55709640308808        0.38281142709603
H           -4.49742795837420       -4.55923955053248        0.79620475523537
H           -2.03317526330680       -4.38244747983783        1.01246664376495
H           -0.94677550951902       -2.20308795736791        0.79786375854296
H           -0.80162518302138        0.74723804506137        2.48097567640870
H            1.63640337885658        0.85603331191937        2.82182745928538
H            2.76213378026043       -1.03018744950171       -3.43450331286721
H            0.34872102630895       -1.16503672087397       -3.89909072957503
H           -1.33303893711139       -0.65655496225532       -2.20664421809546
H           -1.02450448931128        2.45094561900154       -0.04548951800385
H           -2.19271152389821        4.55585270761262       -0.47729006168753
H           -4.66813572314289        4.58435992750051       -0.62565483201297
H           -5.92492770700469        2.50983584245090       -0.36757585837159

          :  Hamiltonian                  GFN2-xTB          :
         :: gradient norm              0.000073803686 Eh/a0 ::
         :: HOMO-LUMO gap              0.482236547323 eV    ::
         :: SCC energy               -91.931488260955 Eh    ::
         :: -> dispersion             -0.077674335526 Eh    ::
         :: -> Gsolv                  -0.055930406784 Eh    ::
         :: repulsion energy           1.482819840997 Eh    ::

    * Orbital Energies and Occupations

         #    Occupation            Energy/Eh            Energy/eV
      -------------------------------------------------------------
         1        2.0000           -0.7569463             -20.5976
       ...           ...                  ...                  ...
        72        2.0000           -0.4393455             -11.9552
        73        2.0000           -0.4329611             -11.7815
        74        2.0000           -0.4291183             -11.6769
        75        2.0000           -0.4247029             -11.5568
        76        2.0000           -0.4240011             -11.5377
        77        2.0000           -0.4235454             -11.5253
        78        2.0000           -0.4209712             -11.4552
        79        2.0000           -0.4182959             -11.3824
        80        2.0000           -0.4123432             -11.2204
        81        2.0000           -0.4089341             -11.1277
        82        1.5985           -0.3708054             -10.0901
        83        1.4015           -0.3700467             -10.0695
        84        0.9999           -0.3311335              -9.0106 (HOMO)
        85        0.0001           -0.3134118              -8.5284 (LUMO)
        86                         -0.2573076              -7.0017
        87                         -0.2473990              -6.7321
        88                         -0.2421384              -6.5889
        89                         -0.2388811              -6.5003
        90                         -0.2381164              -6.4795
        91                         -0.2222082              -6.0466
        92                         -0.2129908              -5.7958
        93                         -0.2033598              -5.5337
        94                         -0.1677030              -4.5634
        95                         -0.1128582              -3.0710
       ...                                ...                  ...
       159                          0.7050956              19.1866
      -------------------------------------------------------------
                  HL-Gap            0.0177217 Eh            0.4822 eV

     #   Z          covCN         q      C6AA      α(0)
     1   6 C        3.761    -0.109    22.626     6.781
     2   6 C        3.909     0.025    20.102     6.373
     3   6 C        3.761    -0.109    22.633     6.782
     4   6 C        2.978    -0.000    28.025     8.684
     5   6 C        2.925    -0.031    28.775     8.797
     6   6 C        2.917    -0.030    28.751     8.793
     7   6 C        2.918    -0.026    28.662     8.779
     8   6 C        2.922    -0.048    29.200     8.861
     9   6 C        2.929     0.059    26.687     8.472
    10   7 N        2.754    -0.016    21.566     6.897
    11   6 C        2.928     0.058    26.699     8.474
    12   6 C        2.921    -0.035    28.878     8.812
    13   6 C        2.912    -0.021    28.529     8.758
    14   6 C        3.036    -0.008    28.185     8.708
    15   6 C        3.140    -0.013    28.104     8.676
    16   6 C        3.035    -0.007    28.151     8.703
    17   6 C        2.912    -0.017    28.433     8.744
    18   6 C        2.919    -0.023    28.579     8.767
    19   6 C        2.917    -0.025    28.623     8.773
    20   6 C        2.977     0.009    27.801     8.649
    21   6 C        3.070     0.079    26.172     8.388
    22   7 N        1.831    -0.276    28.017     7.844
    23   6 C        2.979     0.195    23.847     8.010
    24   7 N        1.891    -0.208    26.360     7.611
    25   8 O        1.903    -0.078    15.503     5.317
    26   7 N        1.891    -0.210    26.399     7.617
    27   6 C        2.978     0.195    23.851     8.011
    28   7 N        1.831    -0.278    28.054     7.849
    29   6 C        3.069     0.076    26.232     8.398
    30   6 C        2.929     0.058    26.690     8.472
    31   6 C        2.922    -0.049    29.206     8.862
    32   6 C        2.918    -0.026    28.661     8.779
    33   6 C        2.917    -0.030    28.751     8.793
    34   6 C        2.925    -0.031    28.775     8.797
    35   6 C        2.978     0.000    28.022     8.683
    36   1 H        0.925     0.053     2.281     2.362
    37   1 H        0.925     0.053     2.280     2.361
    38   1 H        0.925     0.038     2.469     2.457
    39   1 H        0.925     0.039     2.468     2.457
    40   1 H        0.925     0.053     2.278     2.360
    41   1 H        0.925     0.053     2.279     2.361
    42   1 H        0.926     0.054     2.272     2.357
    43   1 H        0.926     0.046     2.365     2.405
    44   1 H        0.926     0.043     2.409     2.427
    45   1 H        0.926     0.036     2.498     2.471
    46   1 H        0.926     0.065     2.138     2.286
    47   1 H        0.926     0.060     2.203     2.321
    48   1 H        0.926     0.055     2.259     2.350
    49   1 H        0.926     0.062     2.173     2.305
    50   1 H        0.926     0.059     2.213     2.326
    51   1 H        0.926     0.037     2.491     2.468
    52   1 H        0.926     0.043     2.405     2.425
    53   1 H        0.926     0.046     2.365     2.405
    54   1 H        0.926     0.054     2.273     2.358

molecular dipole:
                 x           y           z       tot (Debye)
 q only:       -8.903      -0.202      -0.616
   full:       -8.861      -0.204      -0.622      22.584

 projected vibrational frequencies (cm⁻¹)
eigval :       -0.00    -0.00    -0.00     0.00     0.00     0.00
eigval :       10.75    20.44    27.57    50.21    69.07    88.48
eigval :       97.60   100.93   124.79   134.94   141.43   150.76
eigval :      171.31   194.26   198.57   200.57   215.13   236.27
eigval :      264.03   301.13   303.98   324.33   328.43   338.39
eigval :      346.59   359.22   378.23   389.21   403.57   408.76
eigval :      415.98   437.79   446.61   472.17   479.91   498.90
eigval :      501.72   528.30   528.45   539.74   550.05   558.62
eigval :      565.77   574.05   584.33   586.60   624.36   645.51
eigval :      650.84   665.14   674.51   687.25   701.50   704.33
eigval :      710.40   726.85   744.87   772.57   774.43   784.86
eigval :      792.66   812.07   824.16   837.75   866.35   871.21
eigval :      872.04   876.58   890.51   908.01   914.85   916.04
eigval :      917.00   921.97   923.29   923.86   924.38   935.67
eigval :      941.21   956.57  1009.45  1011.74  1037.54  1065.87
eigval :     1072.69  1089.26  1104.32  1110.18  1120.50  1129.87
eigval :     1137.53  1145.17  1161.55  1180.58  1181.39  1182.09
eigval :     1187.45  1206.25  1215.44  1223.61  1236.46  1240.98
eigval :     1250.22  1261.95  1291.05  1293.64  1307.19  1311.86
eigval :     1326.61  1327.74  1333.25  1346.45  1378.39  1388.10
eigval :     1396.23  1414.72  1416.98  1424.76  1429.29  1434.40
eigval :     1452.92  1469.10  1473.41  1480.31  1481.20  1481.58
eigval :     1491.34  1495.68  1550.24  1563.65  1571.23  1575.61
eigval :     1576.16  1583.03  1587.45  1595.07  1607.37  3029.26
eigval :     3031.15  3050.41  3053.01  3057.42  3062.10  3086.58
eigval :     3086.99  3087.26  3087.36  3093.95  3094.49  3097.65
eigval :     3102.82  3103.22  3103.56  3105.76  3107.30  3108.07

   temp. (K)  partition function   enthalpy   heat capacity  entropy
                                   cal/mol     cal/K/mol   cal/K/mol   J/K/mol
 298.15  VIB  0.237E+11            14971.804     99.809     90.102
         ROT  0.275E+08              888.752      2.981     37.025
         INT  0.654E+18            15860.556    102.790    127.127
         TR   0.934E+28             1481.254      4.968     44.204
         TOT                       17341.8100   107.7578   171.3314   716.8508

       T/K    H(0)-H(T)+PV         H(T)/Eh          T*S/Eh         G(T)/Eh
   ------------------------------------------------------------------------
    298.15    0.276359E-01    0.429295E+00    0.814051E-01    0.347890E+00
   ------------------------------------------------------------------------

         :::::::::::::::::::::::::::::::::::::::::::::::::::::
         ::                  THERMODYNAMIC                  ::
         :::::::::::::::::::::::::::::::::::::::::::::::::::::
         :: total free energy         -90.100778572014 Eh   ::
         ::.................................................::
         :: total energy              -90.448668423794 Eh   ::
         :: zero point energy           0.401659014809 Eh   ::
         :: G(RRHO) w/o ZPVE           -0.053769163028 Eh   ::
         :: G(RRHO) contrib.            0.347889851781 Eh   ::
         :::::::::::::::::::::::::::::::::::::::::::::::::::::

           -------------------------------------------------
          | TOTAL ENERGY              -90.448668423794 Eh   |
          | TOTAL ENTHALPY            -90.019373475635 Eh   |
          | TOTAL FREE ENERGY         -90.100778572014 Eh   |
          | GRADIENT NORM               0.000072603980 Eh/α |
          | HOMO-LUMO GAP               0.482232399762 eV   |
           -------------------------------------------------

 * finished run on 2025/09/08 at 11:46:17.453
