   * xtb version 6.7.1 (edcfbbe) compiled by 'albert@albert-system' on 2024-07-22

   ID    Z sym.   atoms
    1    6 C      1-8, 10, 12-18, 21-24, 26-39
    2   16 S      9, 11
    3   15 P      19
    4    8 O      20
    5    7 N      25
    6    1 H      40-71

          program call               : xtb data2507/toluene/3ai/3ai.xyz --gfn 2 --gbsa toluene --ohess vtight --parallel 40 --molden --ceasefiles --namespace data2507/toluene/3ai/3ai_toluene_S0_preOpt
      * Solvation model:               GBSA
        Solvent                        toluene
        Solvent mass                       9.2140E+01 g/mol
          :  Hamiltonian                  GFN2-xTB          :
 * total energy  :  -105.2523268 Eh     change       -0.2552653E-08 Eh
 * total energy  :  -105.2687640 Eh     change       -0.1643716E-01 Eh
 * total energy  :  -105.2747364 Eh     change       -0.5972374E-02 Eh
 * total energy  :  -105.2757716 Eh     change       -0.1035259E-02 Eh
 * total energy  :  -105.2762992 Eh     change       -0.5275848E-03 Eh
 * total energy  :  -105.2765098 Eh     change       -0.2105507E-03 Eh
 * total energy  :  -105.2766493 Eh     change       -0.1395321E-03 Eh
 * total energy  :  -105.2767349 Eh     change       -0.8561325E-04 Eh
 * total energy  :  -105.2767868 Eh     change       -0.5184700E-04 Eh
 * total energy  :  -105.2768234 Eh     change       -0.3661262E-04 Eh
 * total energy  :  -105.2772701 Eh     change       -0.2852286E-06 Eh
 * total energy  :  -105.2772704 Eh     change       -0.3206925E-06 Eh
 * total energy  :  -105.2772708 Eh     change       -0.3451430E-06 Eh
 * total energy  :  -105.2772712 Eh     change       -0.3694903E-06 Eh
 * total energy  :  -105.2772715 Eh     change       -0.3557459E-06 Eh
 * total energy  :  -105.2772718 Eh     change       -0.3233790E-06 Eh
 * total energy  :  -105.2772721 Eh     change       -0.2414616E-06 Eh
 * total energy  :  -105.2772723 Eh     change       -0.1782592E-06 Eh
 * total energy  :  -105.2772723 Eh     change       -0.1967194E-08 Eh
   *** GEOMETRY OPTIMIZATION CONVERGED AFTER 68 ITERATIONS ***

 final structure:
================
71
 xtb: 6.7.1 (edcfbbe)
C           -5.07077857484638        6.86753952550409       -1.80441478151272
C           -4.77232460094190        6.62169248816750       -0.32932995386511
C           -4.46028513330001        5.15936196744954       -0.01189711407286
C           -3.13238353936052        4.68534945845013       -0.62114601363026
C           -2.82886304474587        3.28524206639562       -0.21878570977984
C           -1.97810091188846        2.84887236570620        0.75521453283974
C           -1.98803072330642        1.45016387542936        0.89696355801961
C           -2.85017109544878        0.82538487250252        0.01237353499989
S           -3.66593125522123        1.96018354304014       -0.98644730099376
C           -2.88768484305542       -0.59645116963031        0.11231424510708
S           -3.76294961603372       -1.81592801933949       -0.72280713812958
C           -2.99089107365205       -3.06259730575992        0.22351726128621
C           -3.36188612589903       -4.48860422755432        0.01512555766948
C           -4.70516248287263       -4.81513884588007        0.68448823129784
C           -5.07646417761034       -6.29435790139070        0.58112126613928
C           -5.37558906019285       -6.74288180887257       -0.84531109520110
C           -2.11757370588984       -2.53886742431373        1.13238346233037
C           -2.05662657304485       -1.13535058835705        1.07915315417587
P           -1.14018058945569        0.19872593564666        1.90821270305646
O           -1.26222761965448        0.30436265489125        3.37298492064628
C            0.57033513294094        0.10615531632661        1.31527823429272
C            1.59240064507061        0.11390915857142        2.25449953881503
C            2.90926494512157        0.03212388635093        1.84732878362547
C            3.21381047909487       -0.04991065759086        0.48879016991756
N            4.54424233035467       -0.13409134303287        0.07078681649554
C            5.58066780389489        0.68078673795633        0.49248622867243
C            5.55443211442421        1.77957898021348        1.33952380552359
C            6.74347518867567        2.44574530749151        1.57086078916958
C            7.93319216288596        2.04119503279205        0.96926827181899
C            7.96042437315738        0.96486741003372        0.10450453079013
C            6.77774239940516        0.27982477434377       -0.14305888236742
C            6.44280858389412       -0.83978856600408       -0.97965356535361
C            7.18782976964295       -1.66211630281285       -1.81519065366220
C            6.54683754110799       -2.69509305291391       -2.47034516913323
C            5.18437218498776       -2.92144376202648       -2.28823409269189
C            4.42245942303706       -2.11585893546359       -1.46251455737048
C            5.05557095455792       -1.06004578195286       -0.82235168336067
C            2.18196497522530       -0.05058626314052       -0.45236994768437
C            0.86798366370782        0.02174480335267       -0.04036166418555
H           -5.37996828040201        7.89932328912598       -1.95712270917650
H           -5.87344824756869        6.21589249392379       -2.14373140863802
H           -4.19341544277884        6.68486821790977       -2.41958075530422
H           -5.64215554419595        6.92040954381703        0.26072737021091
H           -3.93225778649229        7.24673417854817       -0.01746691255475
H           -5.26897562667744        4.52559375658098       -0.38324269040046
H           -4.40928011176454        5.03291713311269        1.07266575726921
H           -3.19118262578431        4.74603248909877       -1.70883337988363
H           -2.32390809414952        5.33405754984149       -0.27764383058950
H           -1.36893870593912        3.50593785064715        1.35120924747090
H           -3.43180404964108       -4.69293324929314       -1.05418803858761
H           -2.58115171041899       -5.12148758087451        0.44223948148127
H           -4.64457826105231       -4.53583290761249        1.73960801483162
H           -5.48924364404806       -4.20971124862888        0.22394610221300
H           -4.26519205244074       -6.90016327122780        0.99160250767621
H           -5.96138808050950       -6.46750897062498        1.19831953294922
H           -6.14775688118583       -6.11628940992265       -1.28707959319173
H           -5.72680570533793       -7.77252244842418       -0.84849786917628
H           -4.48717205079909       -6.68912612974026       -1.46928520812667
H           -1.54033592806480       -3.13688671322333        1.81594833567719
H            1.33452117419248        0.17461580134089        3.30262612404024
H            3.70555002670397        0.01265350656410        2.57599885313892
H            4.63580984674970        2.11456674928205        1.79709677258758
H            6.74862024541250        3.30145289504226        2.23025706434649
H            8.84235350023311        2.58567811804172        1.17798092688081
H            8.87888516304641        0.66168287584278       -0.37525094911388
H            8.24733918643463       -1.49756888861035       -1.94158500320294
H            7.10747897972951       -3.34513137267003       -3.12589168367255
H            4.71267011695419       -3.74767952651375       -2.79986903373496
H            3.37181566569729       -2.31428672291052       -1.31429561514111
H            2.42143859015082       -0.09178689323586       -1.50419251026347
H            0.06676740918455        0.02280368021954       -0.76543017375060

          :  Hamiltonian                  GFN2-xTB          :
         :: gradient norm              0.000033233604 Eh/a0 ::
         :: HOMO-LUMO gap              2.167468243199 eV    ::
         :: SCC energy              -106.987575578730 Eh    ::
         :: -> dispersion             -0.091618917030 Eh    ::
         :: -> Gsolv                  -0.050487324644 Eh    ::
         :: repulsion energy           1.710303319422 Eh    ::

    * Orbital Energies and Occupations

         #    Occupation            Energy/Eh            Energy/eV
      -------------------------------------------------------------
         1        2.0000           -0.7423913             -20.2015
       ...           ...                  ...                  ...
        86        2.0000           -0.4283354             -11.6556
        87        2.0000           -0.4257243             -11.5845
        88        2.0000           -0.4236075             -11.5269
        89        2.0000           -0.4219930             -11.4830
        90        2.0000           -0.4200694             -11.4307
        91        2.0000           -0.4173417             -11.3564
        92        2.0000           -0.4159403             -11.3183
        93        2.0000           -0.4088704             -11.1259
        94        2.0000           -0.4088474             -11.1253
        95        2.0000           -0.4078399             -11.0979
        96        2.0000           -0.3821889             -10.3999
        97        2.0000           -0.3724129             -10.1339
        98        2.0000           -0.3678802             -10.0105 (HOMO)
        99                         -0.2882272              -7.8431 (LUMO)
       100                         -0.2646510              -7.2015
       101                         -0.2474084              -6.7323
       102                         -0.2458316              -6.6894
       103                         -0.2285935              -6.2203
       104                         -0.2254571              -6.1350
       105                         -0.2207779              -6.0077
       106                         -0.2112837              -5.7493
       107                         -0.2092431              -5.6938
       108                         -0.1978556              -5.3839
       109                         -0.1894941              -5.1564
       ...                                ...                  ...
       203                          1.1620886              31.6220
      -------------------------------------------------------------
                  HL-Gap            0.0796530 Eh            2.1675 eV

     #   Z          covCN         q      C6AA      α(0)
     1   6 C        3.751    -0.104    22.551     6.772
     2   6 C        3.800    -0.053    21.531     6.607
     3   6 C        3.803    -0.053    21.532     6.606
     4   6 C        3.826    -0.060    21.639     6.619
     5   6 C        2.993     0.024    27.458     8.596
     6   6 C        3.093    -0.051    29.157     8.850
     7   6 C        3.128    -0.025    28.427     8.730
     8   6 C        3.241     0.017    26.707     8.378
     9  16 S        2.299    -0.017   141.758    20.039
    10   6 C        3.241     0.017    26.709     8.379
    11  16 S        2.299    -0.017   141.761    20.039
    12   6 C        2.993     0.024    27.459     8.596
    13   6 C        3.826    -0.060    21.641     6.619
    14   6 C        3.803    -0.053    21.532     6.606
    15   6 C        3.800    -0.053    21.531     6.607
    16   6 C        3.751    -0.104    22.551     6.772
    17   6 C        3.093    -0.051    29.159     8.850
    18   6 C        3.128    -0.025    28.430     8.730
    19  15 P        4.224     0.079   156.772    22.492
    20   8 O        0.808    -0.381    21.336     6.192
    21   6 C        2.921     0.008    27.842     8.653
    22   6 C        3.016    -0.018    28.425     8.745
    23   6 C        2.921    -0.040    28.999     8.831
    24   6 C        2.912     0.073    26.375     8.421
    25   7 N        2.801    -0.041    22.026     6.970
    26   6 C        3.070     0.046    26.893     8.503
    27   6 C        2.910    -0.051    29.265     8.871
    28   6 C        2.924    -0.034    28.839     8.807
    29   6 C        2.920    -0.041    29.016     8.833
    30   6 C        2.912    -0.034    28.838     8.806
    31   6 C        3.066    -0.016    28.346     8.730
    32   6 C        3.066    -0.016    28.344     8.730
    33   6 C        2.912    -0.034    28.837     8.806
    34   6 C        2.920    -0.041    29.016     8.833
    35   6 C        2.924    -0.034    28.839     8.807
    36   6 C        2.910    -0.051    29.269     8.871
    37   6 C        3.070     0.046    26.892     8.503
    38   6 C        2.922    -0.040    28.988     8.829
    39   6 C        2.985    -0.022    28.545     8.764
    40   1 H        0.925     0.035     2.513     2.479
    41   1 H        0.925     0.037     2.485     2.465
    42   1 H        0.925     0.037     2.485     2.465
    43   1 H        0.924     0.035     2.522     2.483
    44   1 H        0.924     0.034     2.531     2.488
    45   1 H        0.924     0.040     2.444     2.445
    46   1 H        0.924     0.031     2.566     2.505
    47   1 H        0.924     0.060     2.195     2.317
    48   1 H        0.924     0.052     2.290     2.367
    49   1 H        0.926     0.043     2.410     2.427
    50   1 H        0.924     0.060     2.194     2.316
    51   1 H        0.924     0.053     2.289     2.366
    52   1 H        0.924     0.031     2.567     2.505
    53   1 H        0.924     0.040     2.445     2.445
    54   1 H        0.924     0.034     2.532     2.488
    55   1 H        0.924     0.035     2.523     2.484
    56   1 H        0.925     0.037     2.485     2.465
    57   1 H        0.925     0.035     2.513     2.479
    58   1 H        0.925     0.037     2.484     2.465
    59   1 H        0.926     0.043     2.410     2.428
    60   1 H        0.926     0.057     2.231     2.336
    61   1 H        0.926     0.056     2.250     2.346
    62   1 H        0.926     0.030     2.588     2.516
    63   1 H        0.926     0.032     2.554     2.499
    64   1 H        0.926     0.031     2.572     2.508
    65   1 H        0.926     0.034     2.531     2.488
    66   1 H        0.926     0.034     2.533     2.489
    67   1 H        0.926     0.031     2.569     2.507
    68   1 H        0.926     0.033     2.543     2.494
    69   1 H        0.926     0.031     2.573     2.508
    70   1 H        0.926     0.058     2.222     2.331
    71   1 H        0.926     0.049     2.332     2.388

molecular dipole:
                 x           y           z       tot (Debye)
 q only:       -0.128      -0.149      -1.996
   full:        0.108      -0.124      -1.653       4.222

 projected vibrational frequencies (cm⁻¹)
eigval :       -0.00    -0.00    -0.00    -0.00     0.00     0.00
eigval :       10.14    14.40    15.83    22.68    28.73    29.77
eigval :       32.72    34.75    39.63    46.18    65.45    77.54
eigval :       98.89   105.62   107.67   109.65   113.99   131.87
eigval :      135.89   145.25   151.09   159.32   181.00   198.19
eigval :      223.99   226.82   231.19   243.04   259.67   270.10
eigval :      273.02   276.80   284.51   298.19   309.03   320.72
eigval :      336.23   378.40   381.36   384.57   397.25   403.71
eigval :      406.69   414.73   424.65   428.45   440.40   448.49
eigval :      476.91   508.38   516.70   519.44   520.29   534.34
eigval :      536.49   542.27   579.67   581.26   582.35   592.19
eigval :      603.16   611.30   640.01   662.11   674.64   680.42
eigval :      686.54   691.65   709.25   744.89   759.06   769.37
eigval :      781.13   781.45   781.60   811.17   818.67   819.95
eigval :      821.38   822.08   865.71   870.47   872.12   873.32
eigval :      879.05   897.08   902.09   903.78   918.43   920.67
eigval :      926.54   926.70   927.43   930.37   931.85   950.80
eigval :      959.69   960.20  1002.23  1002.70  1007.95  1011.22
eigval :     1070.07  1072.41  1073.05  1073.43  1103.92  1108.91
eigval :     1112.53  1113.91  1116.71  1122.70  1125.97  1126.56
eigval :     1127.06  1151.40  1164.68  1166.76  1172.95  1176.93
eigval :     1180.02  1198.41  1201.78  1202.12  1231.48  1234.05
eigval :     1243.62  1249.20  1249.91  1254.25  1267.97  1271.68
eigval :     1286.99  1288.55  1297.05  1298.30  1309.77  1322.39
eigval :     1348.01  1349.08  1351.55  1353.93  1354.64  1358.31
eigval :     1359.17  1372.69  1386.61  1396.98  1412.61  1413.07
eigval :     1421.23  1421.37  1423.24  1426.39  1458.91  1459.79
eigval :     1472.87  1474.39  1483.84  1484.19  1485.73  1489.53
eigval :     1489.93  1500.35  1502.51  1505.93  1507.94  1523.64
eigval :     1530.87  1558.92  1574.27  1577.85  1587.64  1597.14
eigval :     1611.69  2961.40  2961.62  2962.95  2963.00  2975.72
eigval :     2976.16  2979.15  2979.33  2982.95  2983.14  2989.09
eigval :     2989.83  3027.86  3027.94  3032.03  3032.10  3042.61
eigval :     3043.09  3072.94  3073.32  3073.41  3073.92  3078.90
eigval :     3079.49  3086.14  3087.09  3092.83  3094.73  3095.11
eigval :     3096.78  3120.45  3121.02

   temp. (K)  partition function   enthalpy   heat capacity  entropy
                                   cal/mol     cal/K/mol   cal/K/mol   J/K/mol
 298.15  VIB  0.689E+18            21374.988    126.484    135.254
         ROT  0.816E+08              888.752      2.981     39.185
         INT  0.562E+26            22263.740    129.465    174.438
         TR   0.130E+29             1481.254      4.968     44.863
         TOT                       23744.9942   134.4329   219.3012   917.5564

       T/K    H(0)-H(T)+PV         H(T)/Eh          T*S/Eh         G(T)/Eh
   ------------------------------------------------------------------------
    298.15    0.378401E-01    0.597516E+00    0.104197E+00    0.493318E+00
   ------------------------------------------------------------------------

         :::::::::::::::::::::::::::::::::::::::::::::::::::::
         ::                  THERMODYNAMIC                  ::
         :::::::::::::::::::::::::::::::::::::::::::::::::::::
         :: total free energy        -104.783953805558 Eh   ::
         ::.................................................::
         :: total energy             -105.277272260819 Eh   ::
         :: zero point energy           0.559675492755 Eh   ::
         :: G(RRHO) w/o ZPVE           -0.066357037495 Eh   ::
         :: G(RRHO) contrib.            0.493318455261 Eh   ::
         :::::::::::::::::::::::::::::::::::::::::::::::::::::

           -------------------------------------------------
          | TOTAL ENERGY             -105.277272260819 Eh   |
          | TOTAL ENTHALPY           -104.679756711118 Eh   |
          | TOTAL FREE ENERGY        -104.783953805558 Eh   |
          | GRADIENT NORM               0.000033230463 Eh/α |
          | HOMO-LUMO GAP               2.167468423041 eV   |
           -------------------------------------------------

 * finished run on 2025/09/09 at 16:47:58.585
