   * xtb version 6.7.1 (edcfbbe) compiled by 'albert@albert-system' on 2024-07-22

   ID    Z sym.   atoms
    1    6 C      1-8, 10, 12-18, 21-24, 26-39
    2   16 S      9, 11
    3   15 P      19
    4    8 O      20
    5    7 N      25
    6    1 H      40-71

          program call               : xtb data2507/toluene/3ai/3ai_toluene_T1_crest.xyz --gfn 2 --uhf 2 --gbsa toluene --ohess vtight --parallel 40 --molden --ceasefiles --namespace data2507/toluene/3ai/3ai_toluene_T1_finalOpt
      * Solvation model:               GBSA
        Solvent                        toluene
        Solvent mass                       9.2140E+01 g/mol
          :  Hamiltonian                  GFN2-xTB          :
 * total energy  :  -105.2056326 Eh     change       -0.1235279E-08 Eh
 * total energy  :  -105.2057212 Eh     change       -0.8859313E-04 Eh
 * total energy  :  -105.2057610 Eh     change       -0.3982755E-04 Eh
 * total energy  :  -105.2057720 Eh     change       -0.1096347E-04 Eh
 * total energy  :  -105.2057891 Eh     change       -0.1709321E-04 Eh
 * total energy  :  -105.2058053 Eh     change       -0.1619530E-04 Eh
 * total energy  :  -105.2058245 Eh     change       -0.1918934E-04 Eh
 * total energy  :  -105.2058320 Eh     change       -0.7553678E-05 Eh
 * total energy  :  -105.2058410 Eh     change       -0.8912307E-05 Eh
 * total energy  :  -105.2058438 Eh     change       -0.2886730E-05 Eh
 * total energy  :  -105.2059040 Eh     change       -0.3202192E-06 Eh
 * total energy  :  -105.2059044 Eh     change       -0.3566619E-06 Eh
 * total energy  :  -105.2059047 Eh     change       -0.3565200E-06 Eh
 * total energy  :  -105.2059051 Eh     change       -0.3119730E-06 Eh
 * total energy  :  -105.2059053 Eh     change       -0.2680128E-06 Eh
 * total energy  :  -105.2059056 Eh     change       -0.2361749E-06 Eh
 * total energy  :  -105.2059058 Eh     change       -0.2158154E-06 Eh
 * total energy  :  -105.2059060 Eh     change       -0.2121186E-06 Eh
 * total energy  :  -105.2059060 Eh     change       -0.2135693E-08 Eh
   *** GEOMETRY OPTIMIZATION CONVERGED AFTER 68 ITERATIONS ***

 final structure:
================
71
 xtb: 6.7.1 (edcfbbe)
C            0.22587019761140        5.88978518345727       -1.19728484734686
C           -0.53676599690702        5.20230778263512       -0.07070934885747
C           -2.01194774876921        5.59526255073481       -0.06854524555350
C           -2.79386985416980        4.91758903055781        1.07127571546714
C           -2.82065927642481        3.44358310728401        0.92538013554923
C           -2.14439627802715        2.50126011701862        1.68272881327823
C           -2.32320108049631        1.20435250751421        1.24879835371858
C           -3.19126850086300        1.12621920343991        0.09065616482374
S           -3.73463196801664        2.71214547757030       -0.38812849695109
C           -3.41323556767872       -0.13722591508108       -0.36279433739958
S           -4.37899841213993       -0.82520664992726       -1.64060904972413
C           -3.88545940426095       -2.44654550481891       -1.16748407689277
C           -4.40286647217026       -3.62031778886222       -1.90920408037889
C           -5.92883483017195       -3.76348740070205       -1.78650839850484
C           -6.36979196501721       -4.02423974746285       -0.34846245832545
C           -7.88369734947579       -4.16615621099970       -0.24437522055993
C           -3.02329903458249       -2.43720391655265       -0.08344750748651
C           -2.73323878046764       -1.17384735018344        0.38869431298396
P           -1.72656158069575       -0.43794239793049        1.68969011095295
O           -1.91161418609907       -0.91381118807900        3.07533166843907
C            0.01341564064268       -0.50800064525075        1.15804375617216
C            0.39184245049018       -0.07319946614188       -0.10784725503607
C            1.71883758297905       -0.10235369259620       -0.48023222530129
C            2.68736359040100       -0.56078935784575        0.41539285545367
N            4.03381935464568       -0.57306528353761        0.04316830427728
C            4.90843659089463       -1.63479736202939        0.19259021202687
C            4.66929244898996       -2.91938337048560        0.66019181437713
C            5.72795247865338       -3.80856693364638        0.67623685815295
C            6.99464293380124       -3.43955278746927        0.22922299777294
C            7.23130300107847       -2.17130916207102       -0.26548503410797
C            6.18321557339138       -1.26108918554241       -0.29081167480621
C            6.06672518736655        0.09796305692107       -0.74579658160018
C            6.96898092279922        1.00037491575265       -1.29306423361355
C            6.52712377452630        2.27232901201231       -1.60285375626139
C            5.21015560303350        2.65255164870158       -1.35525801575840
C            4.29424112900346        1.77125716140946       -0.81111557915204
C            4.72471682214758        0.48319890675260       -0.52495534110894
C            2.30408744947422       -0.99962545004969        1.68285304593990
C            0.97259285719426       -0.97410167795247        2.04703962879145
H            0.16946666292782        6.97133148009905       -1.09239962029817
H           -0.19331016936296        5.61701554540814       -2.16358319893086
H            1.27359992894116        5.59773570689828       -1.18188352843284
H           -0.08878405237193        5.47240571011186        0.88880050942367
H           -0.45046633427269        4.11838247016048       -0.18142630551704
H           -2.46611807763806        5.31755084085643       -1.02219295812537
H           -2.10007609802760        6.67724281665200        0.04561297634903
H           -2.33692994805956        5.17061429729643        2.03009723034394
H           -3.81753687186940        5.30291657995796        1.05965928120846
H           -1.53569277437560        2.77202101771266        2.52898674741243
H           -4.15543590642309       -3.51492722349308       -2.97030420714999
H           -3.91679767962780       -4.52053809241485       -1.52788693170601
H           -6.40154062362848       -2.84980460258130       -2.15321427455693
H           -6.25348046703667       -4.58984300510117       -2.42161636068526
H           -5.89311458953874       -4.93702415880950        0.01743890554772
H           -6.03684895910120       -3.20102910659374        0.28900995219741
H           -8.17944226443077       -4.35274366644163        0.78563904535105
H           -8.23266986722970       -4.99421263778692       -0.85797324561102
H           -8.37547956534594       -3.25661369553326       -0.58327609101959
H           -2.62349834171347       -3.34274074989965        0.34091544206508
H           -0.36142167575054        0.28067504505362       -0.79747135846147
H            2.01481651239727        0.21303653478289       -1.46938756177393
H            3.68774551957941       -3.22309941191646        0.99085573229809
H            5.56743539713199       -4.81255682209232        1.04088709548741
H            7.79731533388598       -4.16141194139240        0.26135182952339
H            8.20804522498532       -1.89143249538438       -0.63024379158838
H            7.99465090428710        0.71170625244721       -1.46632635631223
H            7.21198936843819        2.98859450534444       -2.03214317297603
H            4.89778088418374        3.65952708237922       -1.59010806877664
H            3.28218880383925        2.08435964807664       -0.60460887172657
H            3.05473695690609       -1.33643740141266        2.38197685808683
H            0.65558426751837       -1.30066413604643        3.02750759870399

          :  Hamiltonian                  GFN2-xTB          :
         :: gradient norm              0.000026560564 Eh/a0 ::
         :: HOMO-LUMO gap              0.929478126226 eV    ::
         :: SCC energy              -106.902483143175 Eh    ::
         :: -> dispersion             -0.093035650047 Eh    ::
         :: -> Gsolv                  -0.051324070122 Eh    ::
         :: repulsion energy           1.696577157074 Eh    ::

    * Orbital Energies and Occupations

         #    Occupation            Energy/Eh            Energy/eV
      -------------------------------------------------------------
         1        2.0000           -0.7363916             -20.0382
       ...           ...                  ...                  ...
        87        2.0000           -0.4274675             -11.6320
        88        2.0000           -0.4246289             -11.5547
        89        2.0000           -0.4237079             -11.5297
        90        2.0000           -0.4229987             -11.5104
        91        2.0000           -0.4193806             -11.4119
        92        2.0000           -0.4158455             -11.3157
        93        2.0000           -0.4107016             -11.1758
        94        2.0000           -0.4071489             -11.0791
        95        2.0000           -0.4049860             -11.0202
        96        2.0000           -0.3843989             -10.4600
        97        1.9812           -0.3704559             -10.0806
        98        1.0188           -0.3629391              -9.8761
        99        1.0000           -0.2983279              -8.1179 (HOMO)
       100                         -0.2641699              -7.1884 (LUMO)
       101                         -0.2491748              -6.7804
       102                         -0.2455191              -6.6809
       103                         -0.2286706              -6.2224
       104                         -0.2277488              -6.1974
       105                         -0.2226993              -6.0600
       106                         -0.2143067              -5.8316
       107                         -0.2135648              -5.8114
       108                         -0.1997839              -5.4364
       109                         -0.1915737              -5.2130
       110                         -0.1739643              -4.7338
       ...                                ...                  ...
       203                          1.1601113              31.5682
      -------------------------------------------------------------
                  HL-Gap            0.0341580 Eh            0.9295 eV

     #   Z          covCN         q      C6AA      α(0)
     1   6 C        3.752    -0.103    22.523     6.768
     2   6 C        3.800    -0.050    21.475     6.598
     3   6 C        3.804    -0.056    21.574     6.613
     4   6 C        3.825    -0.058    21.605     6.614
     5   6 C        2.985     0.035    27.210     8.557
     6   6 C        3.052    -0.039    28.908     8.818
     7   6 C        3.065    -0.021    28.474     8.750
     8   6 C        3.180     0.023    27.078     8.495
     9  16 S        2.204    -0.069   143.927    20.192
    10   6 C        3.180     0.022    27.083     8.496
    11  16 S        2.203    -0.068   143.881    20.189
    12   6 C        2.985     0.035    27.209     8.556
    13   6 C        3.825    -0.059    21.611     6.615
    14   6 C        3.804    -0.056    21.576     6.613
    15   6 C        3.800    -0.050    21.470     6.597
    16   6 C        3.752    -0.103    22.524     6.768
    17   6 C        3.052    -0.039    28.908     8.818
    18   6 C        3.064    -0.021    28.463     8.748
    19  15 P        4.119     0.035   158.655    22.626
    20   8 O        0.808    -0.382    21.338     6.192
    21   6 C        2.920     0.010    27.790     8.645
    22   6 C        2.986    -0.021    28.523     8.761
    23   6 C        2.921    -0.040    28.985     8.829
    24   6 C        2.913     0.072    26.389     8.424
    25   7 N        2.801    -0.035    21.923     6.954
    26   6 C        3.070     0.046    26.888     8.502
    27   6 C        2.910    -0.049    29.223     8.864
    28   6 C        2.924    -0.033    28.819     8.804
    29   6 C        2.920    -0.039    28.974     8.827
    30   6 C        2.912    -0.033    28.812     8.802
    31   6 C        3.066    -0.015    28.317     8.726
    32   6 C        3.066    -0.015    28.315     8.726
    33   6 C        2.912    -0.033    28.811     8.802
    34   6 C        2.920    -0.039    28.974     8.827
    35   6 C        2.924    -0.033    28.817     8.803
    36   6 C        2.910    -0.049    29.222     8.864
    37   6 C        3.070     0.046    26.888     8.502
    38   6 C        2.921    -0.040    28.987     8.829
    39   6 C        3.003    -0.017    28.412     8.744
    40   1 H        0.925     0.037     2.485     2.465
    41   1 H        0.925     0.037     2.491     2.468
    42   1 H        0.925     0.036     2.499     2.472
    43   1 H        0.924     0.032     2.557     2.500
    44   1 H        0.924     0.026     2.639     2.540
    45   1 H        0.924     0.045     2.378     2.412
    46   1 H        0.924     0.046     2.367     2.406
    47   1 H        0.924     0.055     2.262     2.352
    48   1 H        0.924     0.062     2.176     2.307
    49   1 H        0.926     0.045     2.380     2.412
    50   1 H        0.924     0.065     2.142     2.289
    51   1 H        0.924     0.055     2.255     2.348
    52   1 H        0.924     0.045     2.380     2.413
    53   1 H        0.924     0.046     2.365     2.405
    54   1 H        0.924     0.032     2.554     2.499
    55   1 H        0.924     0.025     2.655     2.548
    56   1 H        0.925     0.035     2.510     2.477
    57   1 H        0.925     0.038     2.476     2.460
    58   1 H        0.925     0.036     2.501     2.473
    59   1 H        0.926     0.045     2.379     2.412
    60   1 H        0.926     0.047     2.357     2.401
    61   1 H        0.926     0.058     2.226     2.333
    62   1 H        0.926     0.032     2.560     2.502
    63   1 H        0.926     0.034     2.527     2.486
    64   1 H        0.926     0.033     2.540     2.492
    65   1 H        0.926     0.036     2.499     2.472
    66   1 H        0.926     0.036     2.503     2.474
    67   1 H        0.926     0.034     2.537     2.491
    68   1 H        0.926     0.035     2.516     2.480
    69   1 H        0.926     0.033     2.541     2.493
    70   1 H        0.926     0.056     2.252     2.347
    71   1 H        0.926     0.057     2.239     2.340

molecular dipole:
                 x           y           z       tot (Debye)
 q only:        0.794       0.597      -1.916
   full:        0.972       0.428      -1.564       4.806

 projected vibrational frequencies (cm⁻¹)
eigval :       -0.00    -0.00    -0.00    -0.00     0.00     0.00
eigval :       -3.74     9.02    12.53    16.66    19.45    26.87
eigval :       36.54    43.37    47.15    61.69    78.37    85.20
eigval :       92.86    95.57   102.01   108.06   122.51   129.33
eigval :      139.86   146.99   154.99   168.21   186.85   206.11
eigval :      216.22   226.63   234.97   241.19   244.37   254.77
eigval :      271.41   275.65   277.68   293.72   298.87   314.47
eigval :      320.30   341.55   376.48   383.49   391.41   397.01
eigval :      402.41   408.70   417.01   422.26   426.12   439.19
eigval :      470.60   479.48   495.51   510.62   517.48   529.16
eigval :      535.42   539.16   539.85   556.57   569.09   579.94
eigval :      591.46   598.99   611.70   638.67   652.32   657.64
eigval :      672.84   678.42   707.83   741.07   757.98   766.08
eigval :      778.42   783.02   787.48   811.13   824.01   828.68
eigval :      833.99   840.93   856.38   857.50   861.75   870.50
eigval :      880.06   896.95   898.23   900.56   901.26   902.92
eigval :      903.50   918.72   919.44   926.06   929.76   933.12
eigval :      953.23   954.88  1006.81  1011.05  1013.80  1016.15
eigval :     1058.81  1063.31  1069.69  1072.56  1083.00  1089.91
eigval :     1096.52  1102.05  1111.22  1116.75  1117.39  1119.15
eigval :     1124.53  1150.11  1159.10  1163.44  1172.18  1176.36
eigval :     1180.58  1184.25  1192.83  1197.77  1216.12  1219.11
eigval :     1230.61  1232.35  1232.55  1234.00  1241.21  1253.01
eigval :     1278.55  1279.22  1292.90  1296.73  1298.00  1299.75
eigval :     1300.25  1301.89  1322.34  1352.49  1354.24  1357.68
eigval :     1361.04  1362.58  1396.14  1409.86  1412.29  1414.21
eigval :     1420.20  1422.44  1423.32  1430.57  1442.14  1450.84
eigval :     1452.62  1469.26  1471.94  1481.18  1483.60  1484.29
eigval :     1494.67  1497.84  1498.82  1501.07  1501.40  1505.65
eigval :     1536.43  1556.79  1571.85  1575.27  1586.01  1592.21
eigval :     1607.29  2936.54  2947.46  2957.81  2958.70  2973.37
eigval :     2973.68  2975.29  2976.23  2984.05  2984.88  2986.98
eigval :     2987.04  3027.22  3027.52  3029.49  3029.54  3035.90
eigval :     3036.24  3070.58  3074.82  3075.92  3076.20  3081.73
eigval :     3082.56  3089.74  3090.85  3093.25  3094.61  3095.74
eigval :     3097.05  3111.18  3111.64

   temp. (K)  partition function   enthalpy   heat capacity  entropy
                                   cal/mol     cal/K/mol   cal/K/mol   J/K/mol
 298.15  VIB  0.433E+19            21612.111    128.544    138.509
         ROT  0.679E+08              888.752      2.981     38.819
         INT  0.294E+27            22500.863    131.525    177.327
         TR   0.130E+29             1481.254      4.968     44.863
         TOT                       23982.1168   136.4931   222.1906   929.6456

       T/K    H(0)-H(T)+PV         H(T)/Eh          T*S/Eh         G(T)/Eh
   ------------------------------------------------------------------------
    298.15    0.382179E-01    0.595117E+00    0.105570E+00    0.489547E+00
   ------------------------------------------------------------------------

         :::::::::::::::::::::::::::::::::::::::::::::::::::::
         ::                  THERMODYNAMIC                  ::
         :::::::::::::::::::::::::::::::::::::::::::::::::::::
         :: total free energy        -104.716359232436 Eh   ::
         ::.................................................::
         :: total energy             -105.205905982595 Eh   ::
         :: zero point energy           0.556898754530 Eh   ::
         :: G(RRHO) w/o ZPVE           -0.067352004371 Eh   ::
         :: G(RRHO) contrib.            0.489546750159 Eh   ::
         :::::::::::::::::::::::::::::::::::::::::::::::::::::

           -------------------------------------------------
          | TOTAL ENERGY             -105.205905982595 Eh   |
          | TOTAL ENTHALPY           -104.610789292289 Eh   |
          | TOTAL FREE ENERGY        -104.716359232436 Eh   |
          | GRADIENT NORM               0.000026281843 Eh/α |
          | HOMO-LUMO GAP               0.929487098758 eV   |
           -------------------------------------------------

 * finished run on 2025/09/09 at 17:45:57.460
