   * xtb version 6.7.1 (edcfbbe) compiled by 'albert@albert-system' on 2024-07-22

   ID    Z sym.   atoms
    1    6 C      1-8, 10, 12-18, 21-24, 26-39
    2   16 S      9, 11
    3   15 P      19
    4    8 O      20
    5    7 N      25
    6    1 H      40-71

          program call               : xtb data2507/toluene/3ai/3ai_toluene_S0_finalOpt.xtbopt.xyz --gfn 2 --uhf 2 --gbsa toluene --ohess vtight --parallel 40 --molden --ceasefiles --namespace data2507/toluene/3ai/3ai_toluene_T1_preOpt
      * Solvation model:               GBSA
        Solvent                        toluene
        Solvent mass                       9.2140E+01 g/mol
          :  Hamiltonian                  GFN2-xTB          :
 * total energy  :  -105.1948274 Eh     change       -0.2052772E-08 Eh
 * total energy  :  -105.2035620 Eh     change       -0.8734550E-02 Eh
 * total energy  :  -105.2055414 Eh     change       -0.1979355E-02 Eh
 * total energy  :  -105.2056273 Eh     change       -0.8593398E-04 Eh
 * total energy  :  -105.2056593 Eh     change       -0.3204689E-04 Eh
 * total energy  :  -105.2056758 Eh     change       -0.1649994E-04 Eh
 * total energy  :  -105.2056877 Eh     change       -0.1190966E-04 Eh
 * total energy  :  -105.2056963 Eh     change       -0.8535636E-05 Eh
 * total energy  :  -105.2057013 Eh     change       -0.5051888E-05 Eh
 * total energy  :  -105.2057058 Eh     change       -0.4462498E-05 Eh
 * total energy  :  -105.2057251 Eh     change       -0.7389825E-06 Eh
 * total energy  :  -105.2057247 Eh     change        0.3515467E-06 Eh
 * total energy  :  -105.2057254 Eh     change       -0.6281020E-06 Eh
 * total energy  :  -105.2057256 Eh     change       -0.2469771E-06 Eh
 * total energy  :  -105.2057262 Eh     change       -0.5519201E-06 Eh
 * total energy  :  -105.2057266 Eh     change       -0.4571219E-06 Eh
 * total energy  :  -105.2057271 Eh     change       -0.4557865E-06 Eh
 * total energy  :  -105.2057273 Eh     change       -0.2623477E-06 Eh
 * total energy  :  -105.2057274 Eh     change       -0.2489243E-07 Eh
   *** GEOMETRY OPTIMIZATION CONVERGED AFTER 31 ITERATIONS ***

 final structure:
================
71
 xtb: 6.7.1 (edcfbbe)
C            1.27402871919332        5.61650142204274       -1.58271367045644
C            0.40754878848431        5.21187780012195       -0.39569058570107
C           -0.98149569354182        5.84071041828072       -0.47268938456180
C           -1.87718760479670        5.42172249352233        0.70758858606599
C           -2.15465825856435        3.96653403143021        0.69911995084477
C           -1.63082622276185        2.99668654514955        1.53810908342222
C           -2.02348637338307        1.71316261171933        1.22068810240433
C           -2.90877546455576        1.67679785409308        0.07350198997832
S           -3.19318269576038        3.28152992092349       -0.54528862798425
C           -3.34244093991754        0.43221676842035       -0.26431129902046
S           -4.42562649409900       -0.19817135178320       -1.47620454803922
C           -4.20500767405791       -1.82857607035537       -0.85379082138173
C           -4.94362776274734       -2.95659170442220       -1.46665117230088
C           -6.43793307188945       -2.91740007321924       -1.10058731373322
C           -7.20196431407786       -4.07906228840162       -1.72998237106011
C           -8.68256315858528       -4.03575543706199       -1.36962321987285
C           -3.34242957838708       -1.86502709215294        0.22935162682990
C           -2.83484521520775       -0.63115083592913        0.58018993367264
P           -1.68508136524312        0.03880715836456        1.79525970465382
O           -1.89530927729988       -0.28485879398131        3.22033069158011
C            0.00243361594885       -0.35286042470585        1.23284445787855
C            0.39350932437010       -0.09468168776982       -0.07690099097679
C            1.68367893306810       -0.36615603433592       -0.47899386370417
C            2.60474918261891       -0.89105412456640        0.43030262323124
N            3.91625666858358       -1.14777398062938        0.02405755221244
C            4.62205455063324       -2.31768496197015        0.24336300744667
C            4.21428413026589       -3.49775026612393        0.84943806223638
C            5.12099888465190       -4.53992197035169        0.90972831540329
C            6.40073928703300       -4.42289247435763        0.37230605904936
C            6.80272379524423       -3.26040278542767       -0.25714400445017
C            5.90956633470420       -2.19983579314103       -0.32847784007299
C            5.98101016351963       -0.88716417553311       -0.91124674403480
C            6.98066078339132       -0.19533335346136       -1.58201225116968
C            6.72616129997593        1.09769891449980       -1.99727486488293
C            5.50064358226587        1.70546970090927       -1.73461349088631
C            4.49045477555532        1.03605448346801       -1.06896312120664
C            4.72994471538676       -0.27316678790137       -0.67517961116186
C            2.20878137309173       -1.15141878190301        1.74223001316565
C            0.91255168229073       -0.88463559859590        2.13637616628451
H            1.39411989369882        6.69738937657493       -1.61754240112281
H            0.81786926560464        5.29209544237812       -2.51579803932061
H            2.26028604846854        5.16395845324103       -1.50620881562358
H            0.89447034876908        5.52213068050739        0.53220474940305
H            0.31180293691839        4.12339911023062       -0.36984781156852
H           -1.46642766536157        5.54429004698208       -1.40527548669652
H           -0.88919182616758        6.92829884888378       -0.47042960555749
H           -1.38982061549615        5.68500157252148        1.64844553515534
H           -2.81911117187814        5.97264475289344        0.63496617905846
H           -0.97449089004052        3.23836537540202        2.35711249176810
H           -4.85398005179678       -2.90892120399307       -2.55545749101706
H           -4.50938632240912       -3.89701988028928       -1.12135811490544
H           -6.54052142441796       -2.95598366117132       -0.01353769786152
H           -6.86173033791064       -1.97100045946429       -1.44369371692474
H           -7.09152881176034       -4.03766181850411       -2.81594888688768
H           -6.77251964859170       -5.02321524740012       -1.38688152375877
H           -9.13352584941134       -3.10922390821783       -1.71890838500673
H           -8.81584784182604       -4.09569723462654       -0.29130835129474
H           -9.21056179711141       -4.86902305273450       -1.82787942637984
H           -3.09452129056346       -2.78216594056433        0.73673858971849
H           -0.32233997138384        0.31213656754198       -0.77704042775061
H            1.98515103607302       -0.18979171990113       -1.50052835002770
H            3.21898663438998       -3.60815328547304        1.25224270712449
H            4.82789770379510       -5.46674781711977        1.38077225880772
H            7.08162153550125       -5.25831186497528        0.44193534926209
H            7.78827567915774       -3.17602514910351       -0.68955071998353
H            7.93718402675809       -0.65983519871822       -1.76811932520469
H            7.48924158676378        1.65234132877423       -2.52301777805478
H            5.33666768000834        2.72420799422836       -2.05402179042754
H            3.55279514476149        1.52517617722623       -0.85330148873900
H            2.92560109547293       -1.53814209590314        2.45083255069303
H            0.58778892433507       -1.07143956962951        3.15032107401210

          :  Hamiltonian                  GFN2-xTB          :
         :: gradient norm              0.000124545483 Eh/a0 ::
         :: HOMO-LUMO gap              0.935156690726 eV    ::
         :: SCC energy              -106.902359594588 Eh    ::
         :: -> dispersion             -0.092230341418 Eh    ::
         :: -> Gsolv                  -0.051582923144 Eh    ::
         :: repulsion energy           1.696632235606 Eh    ::

    * Orbital Energies and Occupations

         #    Occupation            Energy/Eh            Energy/eV
      -------------------------------------------------------------
         1        2.0000           -0.7366004             -20.0439
       ...           ...                  ...                  ...
        87        2.0000           -0.4275245             -11.6335
        88        2.0000           -0.4255761             -11.5805
        89        2.0000           -0.4238239             -11.5328
        90        2.0000           -0.4231336             -11.5141
        91        2.0000           -0.4193405             -11.4108
        92        2.0000           -0.4161012             -11.3227
        93        2.0000           -0.4107872             -11.1781
        94        2.0000           -0.4073363             -11.0842
        95        2.0000           -0.4052057             -11.0262
        96        2.0000           -0.3844932             -10.4626
        97        1.9805           -0.3705442             -10.0830
        98        1.0195           -0.3631018              -9.8805
        99        1.0000           -0.2985062              -8.1228 (HOMO)
       100                         -0.2641394              -7.1876 (LUMO)
       101                         -0.2492165              -6.7815
       102                         -0.2454863              -6.6800
       103                         -0.2289373              -6.2297
       104                         -0.2278475              -6.2000
       105                         -0.2230298              -6.0689
       106                         -0.2147825              -5.8445
       107                         -0.2136756              -5.8144
       108                         -0.1999081              -5.4398
       109                         -0.1916610              -5.2154
       110                         -0.1744106              -4.7460
       ...                                ...                  ...
       203                          1.1613707              31.6025
      -------------------------------------------------------------
                  HL-Gap            0.0343668 Eh            0.9352 eV

     #   Z          covCN         q      C6AA      α(0)
     1   6 C        3.752    -0.103    22.521     6.767
     2   6 C        3.800    -0.050    21.477     6.598
     3   6 C        3.804    -0.056    21.574     6.613
     4   6 C        3.825    -0.059    21.608     6.615
     5   6 C        2.985     0.035    27.206     8.556
     6   6 C        3.052    -0.039    28.905     8.817
     7   6 C        3.065    -0.021    28.471     8.750
     8   6 C        3.181     0.023    27.068     8.493
     9  16 S        2.203    -0.069   143.905    20.190
    10   6 C        3.181     0.023    27.069     8.493
    11  16 S        2.204    -0.070   143.980    20.195
    12   6 C        2.986     0.033    27.257     8.564
    13   6 C        3.825    -0.059    21.607     6.615
    14   6 C        3.804    -0.052    21.508     6.602
    15   6 C        3.801    -0.053    21.532     6.607
    16   6 C        3.752    -0.103    22.534     6.769
    17   6 C        3.052    -0.039    28.912     8.818
    18   6 C        3.065    -0.021    28.455     8.747
    19  15 P        4.119     0.035   158.681    22.628
    20   8 O        0.808    -0.381    21.317     6.189
    21   6 C        2.920     0.010    27.791     8.645
    22   6 C        2.987    -0.021    28.523     8.761
    23   6 C        2.921    -0.040    28.986     8.829
    24   6 C        2.913     0.072    26.390     8.424
    25   7 N        2.801    -0.035    21.913     6.952
    26   6 C        3.070     0.046    26.888     8.502
    27   6 C        2.910    -0.049    29.222     8.864
    28   6 C        2.923    -0.033    28.818     8.803
    29   6 C        2.920    -0.039    28.971     8.827
    30   6 C        2.912    -0.033    28.811     8.802
    31   6 C        3.066    -0.015    28.314     8.725
    32   6 C        3.066    -0.015    28.313     8.725
    33   6 C        2.912    -0.032    28.809     8.801
    34   6 C        2.920    -0.039    28.971     8.827
    35   6 C        2.924    -0.033    28.815     8.803
    36   6 C        2.910    -0.049    29.219     8.864
    37   6 C        3.070     0.046    26.889     8.503
    38   6 C        2.921    -0.040    28.989     8.829
    39   6 C        3.001    -0.017    28.412     8.744
    40   1 H        0.925     0.037     2.484     2.465
    41   1 H        0.925     0.037     2.492     2.468
    42   1 H        0.925     0.036     2.500     2.472
    43   1 H        0.924     0.032     2.556     2.500
    44   1 H        0.924     0.026     2.640     2.541
    45   1 H        0.924     0.045     2.377     2.411
    46   1 H        0.924     0.046     2.366     2.406
    47   1 H        0.924     0.055     2.258     2.350
    48   1 H        0.924     0.062     2.176     2.307
    49   1 H        0.926     0.046     2.373     2.409
    50   1 H        0.924     0.062     2.177     2.307
    51   1 H        0.924     0.055     2.263     2.353
    52   1 H        0.924     0.036     2.501     2.473
    53   1 H        0.924     0.042     2.416     2.431
    54   1 H        0.924     0.037     2.494     2.470
    55   1 H        0.924     0.035     2.520     2.482
    56   1 H        0.925     0.037     2.491     2.468
    57   1 H        0.925     0.035     2.512     2.479
    58   1 H        0.925     0.038     2.470     2.458
    59   1 H        0.926     0.046     2.369     2.407
    60   1 H        0.926     0.047     2.359     2.402
    61   1 H        0.926     0.058     2.225     2.333
    62   1 H        0.926     0.032     2.556     2.500
    63   1 H        0.926     0.034     2.526     2.485
    64   1 H        0.926     0.033     2.538     2.491
    65   1 H        0.926     0.036     2.497     2.471
    66   1 H        0.926     0.036     2.501     2.473
    67   1 H        0.926     0.034     2.535     2.490
    68   1 H        0.926     0.035     2.514     2.479
    69   1 H        0.926     0.033     2.537     2.491
    70   1 H        0.926     0.056     2.248     2.345
    71   1 H        0.926     0.057     2.240     2.340

molecular dipole:
                 x           y           z       tot (Debye)
 q only:        0.867       0.288      -1.974
   full:        0.994       0.120      -1.602       4.802

 projected vibrational frequencies (cm⁻¹)
eigval :       -0.00    -0.00     0.00     0.00     0.00     0.00
eigval :      -13.49     8.20    11.56    14.74    17.61    27.59
eigval :       30.43    36.36    48.61    49.29    68.12    75.19
eigval :       80.93    97.30   104.64   106.61   116.55   125.55
eigval :      134.09   142.40   151.65   163.89   183.12   197.04
eigval :      212.27   220.35   222.83   228.97   232.72   242.30
eigval :      269.66   272.99   276.96   285.06   297.80   316.02
eigval :      318.52   340.63   376.32   382.00   385.26   399.19
eigval :      403.10   410.76   412.79   418.91   428.41   439.65
eigval :      469.20   477.39   501.09   510.00   517.16   520.69
eigval :      536.42   538.39   541.20   555.97   568.77   579.95
eigval :      591.39   609.23   612.52   644.38   656.85   659.18
eigval :      674.57   678.11   710.25   740.80   757.81   770.13
eigval :      771.45   781.48   781.93   813.00   824.32   827.75
eigval :      835.15   836.81   849.25   858.21   867.57   874.49
eigval :      882.86   896.74   899.28   900.92   902.88   904.53
eigval :      920.46   923.06   929.56   930.42   935.22   936.60
eigval :      937.66   953.67  1006.98  1011.16  1014.33  1035.00
eigval :     1056.44  1058.30  1069.83  1072.88  1082.95  1090.15
eigval :     1095.22  1100.62  1111.16  1115.95  1118.47  1119.09
eigval :     1126.39  1149.58  1158.52  1162.06  1172.36  1176.32
eigval :     1178.02  1188.53  1198.05  1205.43  1218.16  1220.62
eigval :     1230.86  1232.42  1233.12  1241.78  1249.98  1254.11
eigval :     1262.86  1277.43  1278.73  1292.92  1295.52  1299.43
eigval :     1300.23  1314.69  1322.27  1352.31  1353.95  1357.03
eigval :     1357.53  1361.42  1396.29  1409.35  1411.23  1412.62
eigval :     1420.22  1422.20  1422.34  1430.90  1443.11  1452.72
eigval :     1457.14  1468.67  1471.96  1479.71  1483.82  1486.08
eigval :     1490.43  1494.99  1496.21  1498.06  1500.92  1502.11
eigval :     1536.41  1556.56  1571.75  1574.89  1585.81  1591.97
eigval :     1607.30  2950.31  2951.80  2957.74  2961.10  2971.80
eigval :     2974.27  2975.10  2977.85  2979.32  2983.76  2984.85
eigval :     2987.97  3026.42  3026.69  3028.21  3028.53  3034.93
eigval :     3035.02  3072.48  3074.97  3075.20  3075.56  3080.85
eigval :     3081.61  3088.48  3089.79  3094.19  3094.90  3095.40
eigval :     3096.15  3111.16  3112.62

   temp. (K)  partition function   enthalpy   heat capacity  entropy
                                   cal/mol     cal/K/mol   cal/K/mol   J/K/mol
 298.15  VIB  0.554E+19            21779.301    128.047    139.307
         ROT  0.712E+08              888.752      2.981     38.913
         INT  0.394E+27            22668.054    131.028    178.220
         TR   0.130E+29             1481.254      4.968     44.863
         TOT                       24149.3078   135.9961   223.0830   933.3795

       T/K    H(0)-H(T)+PV         H(T)/Eh          T*S/Eh         G(T)/Eh
   ------------------------------------------------------------------------
    298.15    0.384844E-01    0.595112E+00    0.105994E+00    0.489118E+00
   ------------------------------------------------------------------------

         :::::::::::::::::::::::::::::::::::::::::::::::::::::
         ::                  THERMODYNAMIC                  ::
         :::::::::::::::::::::::::::::::::::::::::::::::::::::
         :: total free energy        -104.716609620067 Eh   ::
         ::.................................................::
         :: total energy             -105.205727358334 Eh   ::
         :: zero point energy           0.556627320519 Eh   ::
         :: G(RRHO) w/o ZPVE           -0.067509582252 Eh   ::
         :: G(RRHO) contrib.            0.489117738267 Eh   ::
         :::::::::::::::::::::::::::::::::::::::::::::::::::::

           -------------------------------------------------
          | TOTAL ENERGY             -105.205727358334 Eh   |
          | TOTAL ENTHALPY           -104.610615666261 Eh   |
          | TOTAL FREE ENERGY        -104.716609620067 Eh   |
          | GRADIENT NORM               0.000124241151 Eh/α |
          | HOMO-LUMO GAP               0.935167807294 eV   |
           -------------------------------------------------

 * finished run on 2025/09/09 at 17:23:29.285
