   * xtb version 6.7.1 (edcfbbe) compiled by 'albert@albert-system' on 2024-07-22

   ID    Z sym.   atoms
    1    6 C      1-8, 10, 12-18, 21-24, 26-39
    2   16 S      9, 11
    3   15 P      19
    4    8 O      20
    5    7 N      25
    6    1 H      40-71

          program call               : xtb data2507/toluene/3ai/3ai_toluene_S0_crest.xyz --gfn 2 --gbsa toluene --ohess vtight --parallel 40 --molden --ceasefiles --namespace data2507/toluene/3ai/3ai_toluene_S0_finalOpt
      * Solvation model:               GBSA
        Solvent                        toluene
        Solvent mass                       9.2140E+01 g/mol
          :  Hamiltonian                  GFN2-xTB          :
 * total energy  :  -105.2774584 Eh     change       -0.3212321E-08 Eh
 * total energy  :  -105.2775573 Eh     change       -0.9888407E-04 Eh
 * total energy  :  -105.2776257 Eh     change       -0.6835461E-04 Eh
 * total energy  :  -105.2776722 Eh     change       -0.4655736E-04 Eh
 * total energy  :  -105.2777348 Eh     change       -0.6256654E-04 Eh
 * total energy  :  -105.2778555 Eh     change       -0.1207274E-03 Eh
 * total energy  :  -105.2779450 Eh     change       -0.8945647E-04 Eh
 * total energy  :  -105.2779966 Eh     change       -0.5163238E-04 Eh
 * total energy  :  -105.2780535 Eh     change       -0.5684943E-04 Eh
 * total energy  :  -105.2780935 Eh     change       -0.4005398E-04 Eh
 * total energy  :  -105.2792341 Eh     change       -0.3640103E-06 Eh
 * total energy  :  -105.2792345 Eh     change       -0.3798125E-06 Eh
 * total energy  :  -105.2792348 Eh     change       -0.3180220E-06 Eh
 * total energy  :  -105.2792350 Eh     change       -0.1917659E-06 Eh
 * total energy  :  -105.2792351 Eh     change       -0.1434975E-06 Eh
 * total energy  :  -105.2792353 Eh     change       -0.1269733E-06 Eh
 * total energy  :  -105.2792354 Eh     change       -0.1246192E-06 Eh
 * total energy  :  -105.2792355 Eh     change       -0.1112734E-06 Eh
 * total energy  :  -105.2792356 Eh     change       -0.9497724E-07 Eh
   *** GEOMETRY OPTIMIZATION CONVERGED AFTER 89 ITERATIONS ***

 final structure:
================
71
 xtb: 6.7.1 (edcfbbe)
C            1.26542968388534        5.58810974796001       -1.64389222186826
C            0.42947664528458        5.20721573550696       -0.42738370332859
C           -0.96348187737967        5.83045329825731       -0.48151143683033
C           -1.82930165279538        5.43583521449370        0.72480754014732
C           -2.10302483385812        3.97277547447858        0.75149597025625
C           -1.56928122060041        3.02648734950371        1.57741656742865
C           -2.02180781403560        1.72894262045675        1.28000425119599
C           -2.89510141511646        1.69712970219921        0.20659129399360
S           -3.18387270938488        3.26857308122318       -0.42430579005221
C           -3.35675437854427        0.39691348097910       -0.15313492612884
S           -4.43798988439969       -0.17907300164172       -1.35702329085432
C           -4.19260098985298       -1.82603463509608       -0.83409753115289
C           -4.93289639356507       -2.93198613508259       -1.50044257576687
C           -6.41677878642791       -2.93490077941421       -1.10754572798960
C           -7.18102093608906       -4.06616663431696       -1.79063482554605
C           -8.65571449351969       -4.06242939870012       -1.40478808009323
C           -3.32609622646444       -1.89823623151862        0.21781608036227
C           -2.84900078449076       -0.63659638537695        0.61533100310298
P           -1.68763457794115        0.03275532281127        1.84428924670917
O           -1.91902463592910       -0.29136714598519        3.26268074960618
C           -0.01489910478700       -0.34910880910814        1.25659083942003
C            0.36344683771500       -0.09959479932055       -0.05809973857468
C            1.65149136356299       -0.37198906844215       -0.46679748289281
C            2.58122941206128       -0.88725220285321        0.43925186349243
N            3.89030409525483       -1.14359737197587        0.02478593225257
C            4.60130755255490       -2.31019927579078        0.24693166950960
C            4.20049172488861       -3.48864964284404        0.86012160178725
C            5.11077498312874       -4.52737648750506        0.92136274095404
C            6.38828821515442       -4.40862435676733        0.37850762169544
C            6.78342039738621       -3.24812185223216       -0.25718849666354
C            5.88593840002521       -2.19053597069928       -0.33033139023687
C            5.95085982406931       -0.88113277102467       -0.91935641719399
C            6.94643666006513       -0.18921387210627       -1.59730144262170
C            6.68715845492066        1.10036791828786       -2.01770897429427
C            5.46025976453556        1.70537253678675       -1.75410661558160
C            4.45435681607638        1.03624106967989       -1.08210384825205
C            4.69904063745483       -0.26975870189994       -0.68184078261771
C            2.19590593954768       -1.13862958059451        1.75576426199713
C            0.90172669951412       -0.87228054414763        2.15798921567266
H            1.38222211602084        6.66824094472521       -1.70446889047031
H            0.78736478614631        5.24352973244028       -2.55864235156795
H            2.25440515731149        5.13916263250213       -1.58276138312224
H            0.93799076640038        5.53899378895270        0.48123490282477
H            0.33913327436430        4.11941666630069       -0.37556858589934
H           -1.46814126053598        5.51606675368731       -1.39794159031790
H           -0.87200718568385        6.91808298649529       -0.50457499270326
H           -1.31831632288869        5.71286089512682        1.64908198071400
H           -2.77314808477399        5.98409999653532        0.67465665477482
H           -0.88246655283842        3.25201414145981        2.37450031624282
H           -4.85492165209667       -2.82628302945909       -2.58536483467207
H           -4.47740974388625       -3.88201631668275       -1.21369223695187
H           -6.50011577156094       -3.03935404049426       -0.02301218339614
H           -6.86084173132126       -1.97617004939980       -1.38554282893303
H           -7.08968108555160       -3.95998696093810       -2.87409984746521
H           -6.73524343763018       -5.02374325024377       -1.51144638246190
H           -9.12382475869594       -3.12378157865602       -1.69418877939965
H           -8.76987259615006       -4.18399511568585       -0.32944308843871
H           -9.18180408325395       -4.87565973321648       -1.89982100978272
H           -3.04205731059517       -2.82145961890641        0.69209806699513
H           -0.35817564500682        0.29945131936000       -0.75639102575484
H            1.94542460185352       -0.20215774837684       -1.49154262175930
H            3.20738987220776       -3.60063519743131        1.26818311637032
H            4.82278922359150       -5.45314602154464        1.39788603805570
H            7.07222792812092       -5.24154382147565        0.44955369126228
H            7.76710186321278       -3.16177998180856       -0.69376126712223
H            7.90367673843588       -0.65223843767902       -1.78413299320050
H            7.44677743909267        1.65507627541920       -2.54856981767096
H            5.29211866394156        2.72205123693040       -2.07825213783069
H            3.51573967902489        1.52377598517642       -0.86658337875751
H            2.91841459356290       -1.52035040121786        2.46118239088534
H            0.58485666400310       -1.05328180081430        3.17564404013350

          :  Hamiltonian                  GFN2-xTB          :
         :: gradient norm              0.000047440973 Eh/a0 ::
         :: HOMO-LUMO gap              2.157454288776 eV    ::
         :: SCC energy              -106.989418182695 Eh    ::
         :: -> dispersion             -0.092390718475 Eh    ::
         :: -> Gsolv                  -0.050457752060 Eh    ::
         :: repulsion energy           1.710182600606 Eh    ::

    * Orbital Energies and Occupations

         #    Occupation            Energy/Eh            Energy/eV
      -------------------------------------------------------------
         1        2.0000           -0.7426409             -20.2083
       ...           ...                  ...                  ...
        86        2.0000           -0.4270162             -11.6197
        87        2.0000           -0.4256688             -11.5830
        88        2.0000           -0.4238416             -11.5333
        89        2.0000           -0.4219451             -11.4817
        90        2.0000           -0.4204558             -11.4412
        91        2.0000           -0.4188885             -11.3985
        92        2.0000           -0.4158577             -11.3161
        93        2.0000           -0.4090311             -11.1303
        94        2.0000           -0.4088375             -11.1250
        95        2.0000           -0.4079019             -11.0996
        96        2.0000           -0.3821512             -10.3989
        97        2.0000           -0.3729661             -10.1489
        98        2.0000           -0.3678529             -10.0098 (HOMO)
        99                         -0.2885678              -7.8523 (LUMO)
       100                         -0.2645397              -7.1985
       101                         -0.2473232              -6.7300
       102                         -0.2457893              -6.6883
       103                         -0.2289170              -6.2291
       104                         -0.2254248              -6.1341
       105                         -0.2207243              -6.0062
       106                         -0.2114361              -5.7535
       107                         -0.2092016              -5.6927
       108                         -0.1978291              -5.3832
       109                         -0.1894618              -5.1555
       ...                                ...                  ...
       203                          1.1639560              31.6729
      -------------------------------------------------------------
                  HL-Gap            0.0792850 Eh            2.1575 eV

     #   Z          covCN         q      C6AA      α(0)
     1   6 C        3.752    -0.102    22.517     6.767
     2   6 C        3.800    -0.051    21.495     6.601
     3   6 C        3.804    -0.057    21.605     6.617
     4   6 C        3.826    -0.060    21.634     6.619
     5   6 C        2.993     0.026    27.405     8.587
     6   6 C        3.093    -0.051    29.142     8.848
     7   6 C        3.127    -0.026    28.450     8.733
     8   6 C        3.241     0.017    26.709     8.378
     9  16 S        2.298    -0.015   141.667    20.033
    10   6 C        3.242     0.017    26.691     8.374
    11  16 S        2.299    -0.016   141.728    20.037
    12   6 C        2.993     0.024    27.456     8.595
    13   6 C        3.827    -0.060    21.636     6.619
    14   6 C        3.804    -0.054    21.549     6.609
    15   6 C        3.801    -0.054    21.536     6.607
    16   6 C        3.752    -0.103    22.531     6.769
    17   6 C        3.093    -0.051    29.147     8.849
    18   6 C        3.127    -0.025    28.431     8.731
    19  15 P        4.223     0.081   156.673    22.485
    20   8 O        0.808    -0.381    21.324     6.190
    21   6 C        2.921     0.007    27.856     8.655
    22   6 C        2.987    -0.022    28.546     8.764
    23   6 C        2.922    -0.040    28.988     8.829
    24   6 C        2.912     0.073    26.375     8.421
    25   7 N        2.801    -0.041    22.022     6.970
    26   6 C        3.070     0.046    26.892     8.503
    27   6 C        2.910    -0.051    29.267     8.871
    28   6 C        2.924    -0.034    28.839     8.807
    29   6 C        2.920    -0.041    29.016     8.833
    30   6 C        2.912    -0.034    28.839     8.806
    31   6 C        3.066    -0.016    28.346     8.730
    32   6 C        3.066    -0.016    28.344     8.730
    33   6 C        2.912    -0.034    28.837     8.806
    34   6 C        2.920    -0.041    29.016     8.833
    35   6 C        2.924    -0.034    28.836     8.806
    36   6 C        2.910    -0.051    29.264     8.870
    37   6 C        3.070     0.046    26.893     8.503
    38   6 C        2.921    -0.040    29.001     8.831
    39   6 C        3.013    -0.018    28.427     8.746
    40   1 H        0.925     0.036     2.499     2.472
    41   1 H        0.925     0.036     2.500     2.473
    42   1 H        0.925     0.035     2.517     2.481
    43   1 H        0.924     0.031     2.572     2.508
    44   1 H        0.924     0.026     2.639     2.541
    45   1 H        0.924     0.043     2.409     2.427
    46   1 H        0.924     0.044     2.399     2.422
    47   1 H        0.924     0.052     2.292     2.367
    48   1 H        0.924     0.055     2.254     2.348
    49   1 H        0.926     0.043     2.412     2.429
    50   1 H        0.924     0.056     2.241     2.341
    51   1 H        0.924     0.052     2.296     2.370
    52   1 H        0.924     0.034     2.525     2.485
    53   1 H        0.924     0.040     2.447     2.446
    54   1 H        0.924     0.035     2.513     2.479
    55   1 H        0.924     0.033     2.541     2.493
    56   1 H        0.925     0.036     2.500     2.473
    57   1 H        0.925     0.035     2.522     2.484
    58   1 H        0.925     0.037     2.490     2.468
    59   1 H        0.926     0.043     2.405     2.425
    60   1 H        0.926     0.048     2.339     2.392
    61   1 H        0.926     0.058     2.219     2.330
    62   1 H        0.926     0.030     2.586     2.515
    63   1 H        0.926     0.032     2.555     2.500
    64   1 H        0.926     0.031     2.573     2.508
    65   1 H        0.926     0.034     2.532     2.488
    66   1 H        0.926     0.034     2.536     2.490
    67   1 H        0.926     0.031     2.569     2.507
    68   1 H        0.926     0.033     2.542     2.493
    69   1 H        0.926     0.032     2.564     2.504
    70   1 H        0.926     0.056     2.250     2.346
    71   1 H        0.926     0.057     2.238     2.339

molecular dipole:
                 x           y           z       tot (Debye)
 q only:        0.224       0.516      -2.039
   full:        0.369       0.346      -1.689       4.482

 projected vibrational frequencies (cm⁻¹)
eigval :       -0.00    -0.00     0.00     0.00     0.00     0.00
eigval :       10.48    13.41    15.62    20.23    23.95    30.12
eigval :       37.02    48.72    50.33    63.28    69.74    77.68
eigval :       79.87   100.40   106.02   112.25   118.35   133.65
eigval :      135.44   143.58   153.63   165.19   188.52   202.60
eigval :      218.60   226.28   234.21   237.38   241.82   246.55
eigval :      273.84   276.01   281.21   295.91   302.06   323.37
eigval :      335.66   361.10   378.00   384.74   398.43   405.25
eigval :      409.85   415.78   417.31   430.01   440.50   451.55
eigval :      475.87   500.32   517.16   520.60   527.88   535.02
eigval :      542.29   549.51   575.10   580.03   589.09   591.11
eigval :      592.09   611.48   632.39   661.41   672.06   674.70
eigval :      679.03   688.26   710.32   744.72   758.88   769.97
eigval :      772.88   782.03   784.31   813.43   819.51   823.87
eigval :      826.88   859.53   864.49   867.46   871.23   874.79
eigval :      882.00   896.91   902.11   902.41   904.08   919.98
eigval :      921.98   929.22   930.47   935.30   940.67   942.66
eigval :      951.15   958.72  1007.87  1011.24  1020.32  1046.63
eigval :     1069.36  1069.96  1070.25  1073.72  1092.66  1097.75
eigval :     1109.68  1112.71  1116.64  1122.42  1122.83  1123.86
eigval :     1126.73  1151.46  1167.78  1171.97  1172.62  1176.80
eigval :     1179.12  1199.09  1207.88  1216.26  1233.39  1233.70
eigval :     1234.04  1243.54  1253.66  1254.61  1265.71  1280.31
eigval :     1281.11  1296.68  1297.65  1300.92  1305.21  1314.61
eigval :     1322.12  1322.43  1354.52  1358.30  1359.29  1363.76
eigval :     1365.27  1372.72  1386.22  1397.05  1413.27  1413.66
eigval :     1421.19  1421.43  1423.28  1426.05  1457.19  1460.09
eigval :     1472.69  1474.63  1481.31  1485.47  1488.36  1492.16
eigval :     1496.30  1500.10  1501.02  1502.40  1502.48  1524.37
eigval :     1531.30  1558.68  1574.23  1577.92  1587.56  1596.95
eigval :     1611.56  2958.53  2959.07  2964.10  2964.52  2972.76
eigval :     2972.99  2976.36  2977.20  2979.10  2984.30  2985.80
eigval :     2986.06  3025.93  3026.65  3028.02  3029.59  3034.88
eigval :     3035.86  3073.18  3073.31  3073.61  3074.91  3078.89
eigval :     3079.68  3086.48  3087.84  3093.00  3095.09  3095.87
eigval :     3097.04  3121.87  3122.37

   temp. (K)  partition function   enthalpy   heat capacity  entropy
                                   cal/mol     cal/K/mol   cal/K/mol   J/K/mol
 298.15  VIB  0.459E+18            21383.438    127.353    135.828
         ROT  0.709E+08              888.752      2.981     38.904
         INT  0.325E+26            22272.191    130.334    174.732
         TR   0.130E+29             1481.254      4.968     44.863
         TOT                       23753.4448   135.3024   219.5957   918.7882

       T/K    H(0)-H(T)+PV         H(T)/Eh          T*S/Eh         G(T)/Eh
   ------------------------------------------------------------------------
    298.15    0.378535E-01    0.597389E+00    0.104337E+00    0.493052E+00
   ------------------------------------------------------------------------

         :::::::::::::::::::::::::::::::::::::::::::::::::::::
         ::                  THERMODYNAMIC                  ::
         :::::::::::::::::::::::::::::::::::::::::::::::::::::
         :: total free energy        -104.786183138515 Eh   ::
         ::.................................................::
         :: total energy             -105.279235579298 Eh   ::
         :: zero point energy           0.559535900802 Eh   ::
         :: G(RRHO) w/o ZPVE           -0.066483460018 Eh   ::
         :: G(RRHO) contrib.            0.493052440783 Eh   ::
         :::::::::::::::::::::::::::::::::::::::::::::::::::::

           -------------------------------------------------
          | TOTAL ENERGY             -105.279235579298 Eh   |
          | TOTAL ENTHALPY           -104.681846154793 Eh   |
          | TOTAL FREE ENERGY        -104.786183138515 Eh   |
          | GRADIENT NORM               0.000047459654 Eh/α |
          | HOMO-LUMO GAP               2.157455163946 eV   |
           -------------------------------------------------

 * finished run on 2025/09/09 at 17:23:23.877
