   * xtb version 6.7.1 (edcfbbe) compiled by 'albert@albert-system' on 2024-07-22

   ID    Z sym.   atoms
    1    9 F      1, 3, 4
    2    6 C      2, 5-9, 11-24, 26-31, 33-44, 46-60
    3    7 N      10, 25, 32, 45
    4    1 H      61-93

          program call               : xtb data2507/gas/m-CF3PIBI/m-CF3PIBI_gas_S0_finalOpt.xtbopt.xyz --gfn 2 --spinpol --tblite --uhf 2 --ohess vtight --parallel 40 --molden --ceasefiles --namespace data2507/gas/m-CF3PIBI/m-CF3PIBI_gas_T1_preOpt
 * total energy  :  -156.2125489 Eh     change       -0.1876256E-07 Eh
 * total energy  :  -156.2179550 Eh     change       -0.5406070E-02 Eh
 * total energy  :  -156.2210783 Eh     change       -0.3123312E-02 Eh
 * total energy  :  -156.2220179 Eh     change       -0.9395841E-03 Eh
 * total energy  :  -156.2230931 Eh     change       -0.1075201E-02 Eh
 * total energy  :  -156.2236929 Eh     change       -0.5998607E-03 Eh
 * total energy  :  -156.2241110 Eh     change       -0.4180670E-03 Eh
 * total energy  :  -156.2244215 Eh     change       -0.3104607E-03 Eh
 * total energy  :  -156.2246776 Eh     change       -0.2561383E-03 Eh
 * total energy  :  -156.2248443 Eh     change       -0.1667146E-03 Eh
 * total energy  :  -156.2255676 Eh     change       -0.1459748E-05 Eh
 * total energy  :  -156.2255691 Eh     change       -0.1517049E-05 Eh
 * total energy  :  -156.2255701 Eh     change       -0.9644807E-06 Eh
 * total energy  :  -156.2255708 Eh     change       -0.7459208E-06 Eh
 * total energy  :  -156.2255714 Eh     change       -0.5781779E-06 Eh
 * total energy  :  -156.2255721 Eh     change       -0.6791073E-06 Eh
 * total energy  :  -156.2255728 Eh     change       -0.6876630E-06 Eh
 * total energy  :  -156.2255727 Eh     change        0.4877668E-07 Eh
 * total energy  :  -156.2255728 Eh     change       -0.5661175E-07 Eh
   *** GEOMETRY OPTIMIZATION CONVERGED AFTER 95 ITERATIONS ***

 final structure:
================
93
 xtb: 6.7.1 (edcfbbe)
F           -3.12619135062312       -3.48814937524915       -2.16636620535417
C           -3.02354232820510       -3.87274544349626       -0.88525906322803
F           -1.80579811122681       -3.46205419255841       -0.46980747723459
F           -2.97792366252969       -5.21362356765387       -0.89207471214663
C           -4.11772788290424       -3.32351712593360       -0.01734337450563
C           -4.56751787667399       -4.05417445562101        1.07757016488113
C           -5.54154371303671       -3.50475044875308        1.90008667361384
C           -6.04598512318329       -2.24570168692908        1.64804861464415
C           -5.58928580965661       -1.51244841869322        0.54701350870011
N           -6.04972461469975       -0.21962351199415        0.30767865424348
C           -5.21992792661095        0.91287400132029        0.13390845822650
C           -3.83048411358080        0.97854418178819        0.29373447423011
C           -3.02497811809783        0.01645277692662        0.97291148169638
C           -1.66882405754461        0.10919533038525        0.96695343831705
C           -0.98544098008815        1.17494239023846        0.32250143404870
C            0.44335401736186        1.21064611481836        0.25717436433193
C            1.20722157027768        0.02358317485216        0.33349483130390
C            2.57318398515675        0.04529065748903        0.24619594941198
C            3.28036427653089        1.25233249385339        0.11070295734958
C            4.73084432627786        1.26813577291404        0.03891910355648
C            5.43384467055233        0.21296687104357       -0.55873503822903
C            6.80811183306136        0.20914787459431       -0.61441747019657
C            7.54308112920862        1.25939260093331       -0.05631783267900
C            8.98944862033859        1.30622867651946       -0.08003643692609
N            9.66349742461942        2.42707836164716       -0.13453554546219
C           10.98073421005047        2.08041723263015       -0.19547668576577
C           12.12029015704835        2.87673831372666       -0.26402115615152
C           13.34296925319720        2.24232599992750       -0.29524381831889
C           13.44862867238889        0.84973715755458       -0.25072571167533
C           12.33261227413295        0.03946114947965       -0.18497835110442
C           11.09869297725399        0.66893552089765       -0.17319094067083
N            9.80977483269088        0.19202684515798       -0.09808498594868
C            9.45441069789473       -1.15383937713600        0.08634909968945
C            8.65342581644540       -1.52247485431040        1.16325554232816
C            8.31557671630780       -2.85024222399547        1.34303285233453
C            8.78171377458913       -3.81528551558423        0.46468451174804
C            9.58672865260075       -3.44876570746536       -0.60061594916428
C            9.92392473266957       -2.12140533552059       -0.79525455218886
C            6.84892176225086        2.33350943274151        0.51139814492954
C            5.47537960870624        2.33752292154614        0.55732981513041
C            2.52820188652387        2.43769172134360        0.04871186565941
C            1.15985175320151        2.41849327389923        0.10139776673378
C           -1.79711628439863        2.20365119440650       -0.23297957534995
C           -3.15164330366555        2.11516157339682       -0.24490936552553
N           -5.96092693173556        1.99484449080921       -0.16184408159629
C           -7.22925545828597        1.61272208680629       -0.13211979721714
C           -8.38551007462595        2.43002009563266       -0.30191238011728
C           -8.26297791747536        3.80871142375947       -0.48915992656272
C           -9.38549934797997        4.59719686214800       -0.60270790926986
C          -10.64111810177821        4.00681715257709       -0.51879108173928
C          -10.77160907565533        2.64448119321550       -0.34223474418243
C           -9.65289917596331        1.80836509619761       -0.24002215757427
C           -9.75378120864783        0.36256454451737       -0.10772711689492
C          -10.98656251968340       -0.28933234325909       -0.17162617190116
C          -11.09763734347620       -1.66275631118082       -0.10791527773008
C           -9.95241591816754       -2.44884245063676       -0.00417419471870
C           -8.72118128190532       -1.85210964892094        0.07339825586529
C           -8.58312540335729       -0.44732871574008        0.05381020115108
C           -7.34277936455729        0.21655032785786        0.13099002081003
C           -4.61998037299149       -2.06463958845433       -0.29456039414827
H           -4.16228549619046       -5.03247074081394        1.27952827105305
H           -5.89441147464159       -4.06166221304998        2.75406410983946
H           -6.78562093209290       -1.80843391795662        2.30221509926186
H           -3.49492129178189       -0.76152370209273        1.55309436975176
H           -1.09646628484763       -0.62274192006129        1.51609212871930
H            0.70203337478325       -0.92630135748893        0.41987401726577
H            3.12109727158571       -0.88330248171145        0.31115502589743
H            4.88731536121897       -0.59595134236066       -1.01997938433843
H            7.31442008035588       -0.60096992367518       -1.11794046147603
H           12.03368533184153        3.95098263570346       -0.28617214480150
H           14.24705979402566        2.83080432296145       -0.34856910136926
H           14.42889903201331        0.39677933918442       -0.26660222566048
H           12.41956363989871       -1.03601394749058       -0.13845580655838
H            8.29899585479908       -0.76533918973389        1.84692621622817
H            7.69094339141983       -3.13335891611823        2.17686481791832
H            8.51783254075657       -4.85172409407655        0.61075233468222
H            9.95027447082844       -4.19797611643792       -1.28805232172945
H           10.53631576506256       -1.82591089315443       -1.63434587365001
H            7.42078202026493        3.15182939952286        0.92010017649315
H            4.96368693764571        3.16075704504539        1.03281545266309
H            3.03929910457511        3.38114173461978       -0.07483952411415
H            0.62180998817513        3.35309021571181        0.05851431377412
H           -1.32270468576040        3.04972580339623       -0.70549615645712
H           -3.75911555696731        2.87901720534385       -0.70312265318261
H           -7.26906729888181        4.22569048656333       -0.53216747185208
H           -9.29523576346116        5.66313866841648       -0.74744636122375
H          -11.52806634551034        4.61911138641072       -0.59342860824595
H          -11.76725188076026        2.23534163563370       -0.27932340811493
H          -11.89124131582442        0.28493066299245       -0.28914402600866
H          -12.07042683549342       -2.12777423992534       -0.15965853156877
H          -10.03283372916069       -3.52552260959007        0.00792817452902
H           -7.83919549545489       -2.46925270912048        0.12123024485854
H           -4.26613360283469       -1.50764447027523       -1.14833478864447

 projected vibrational frequencies (cm⁻¹)
eigval :       -0.00     0.00     0.00     0.00     0.00     0.00
eigval :        4.65     7.26     8.22    15.92    17.03    19.93
eigval :       25.38    27.94    38.05    45.04    47.17    58.05
eigval :       61.03    65.91    69.51    74.97    83.64    85.32
eigval :       91.81    97.32   105.36   111.58   113.33   132.03
eigval :      147.95   171.17   185.68   193.51   200.84   208.25
eigval :      209.28   212.51   235.27   244.65   251.43   259.42
eigval :      263.71   268.77   293.86   306.82   315.77   328.69
eigval :      335.72   343.40   351.28   363.06   364.27   372.92
eigval :      378.67   380.90   385.67   392.83   395.98   399.52
eigval :      404.21   410.41   416.06   431.31   435.44   437.51
eigval :      458.10   462.28   470.68   478.40   491.72   499.03
eigval :      502.46   519.76   526.29   526.69   530.49   544.77
eigval :      560.77   580.07   581.63   587.62   592.06   593.62
eigval :      595.96   599.56   603.07   609.80   612.20   628.90
eigval :      639.12   652.24   655.18   657.85   663.82   668.13
eigval :      670.19   672.26   681.57   683.29   693.91   703.02
eigval :      709.16   714.53   725.26   729.43   756.80   763.57
eigval :      768.36   770.84   772.97   776.44   792.12   797.55
eigval :      811.50   815.22   817.12   829.47   840.73   853.55
eigval :      858.43   866.81   868.78   869.00   871.87   877.97
eigval :      885.16   890.15   897.75   900.19   903.50   911.08
eigval :      912.07   914.33   915.17   916.87   919.03   920.63
eigval :      921.20   921.35   924.25   926.85   929.44   929.79
eigval :      932.51   941.94   947.96   950.37   967.30   982.67
eigval :      995.27  1002.42  1023.07  1024.40  1038.05  1049.93
eigval :     1059.73  1065.05  1066.61  1079.88  1080.48  1086.59
eigval :     1092.97  1105.11  1115.99  1125.55  1129.77  1133.28
eigval :     1133.87  1136.10  1141.47  1156.62  1157.83  1160.24
eigval :     1173.91  1180.70  1180.82  1183.25  1185.36  1189.13
eigval :     1195.00  1198.29  1201.50  1207.71  1231.00  1238.19
eigval :     1247.70  1251.80  1259.55  1261.42  1263.04  1271.49
eigval :     1272.48  1276.59  1278.67  1286.33  1291.86  1301.32
eigval :     1305.21  1314.27  1316.65  1320.65  1324.98  1331.16
eigval :     1332.00  1334.96  1339.85  1358.20  1360.70  1374.19
eigval :     1387.05  1392.70  1398.04  1406.39  1411.54  1414.25
eigval :     1415.66  1425.18  1433.01  1436.10  1442.05  1446.89
eigval :     1448.99  1466.19  1472.66  1475.72  1479.68  1482.76
eigval :     1488.37  1493.75  1513.91  1515.21  1521.07  1533.20
eigval :     1537.14  1544.25  1557.95  1563.63  1568.33  1581.99
eigval :     1583.06  1586.01  1587.17  1594.51  1595.21  1610.88
eigval :     3074.94  3077.21  3077.33  3079.22  3080.79  3081.64
eigval :     3081.65  3082.40  3083.68  3087.04  3087.74  3089.93
eigval :     3090.49  3090.58  3090.85  3091.65  3092.22  3093.68
eigval :     3095.06  3096.46  3096.93  3100.16  3101.33  3101.97
eigval :     3104.27  3106.97  3107.26  3108.46  3109.42  3112.27
eigval :     3112.67  3115.23  3122.40

   temp. (K)  partition function   enthalpy   heat capacity  entropy
                                   cal/mol     cal/K/mol   cal/K/mol   J/K/mol
 298.15  VIB  0.717E+24            28304.426    175.521    179.503
         ROT  0.252E+09              888.752      2.981     41.422
         INT  0.180E+33            29193.178    178.502    220.925
         TR   0.212E+29             1481.254      4.968     45.831
         TOT                       30674.4321   183.4699   266.7564  1116.1087

       T/K    H(0)-H(T)+PV         H(T)/Eh          T*S/Eh         G(T)/Eh
   ------------------------------------------------------------------------
    298.15    0.488828E-01    0.739289E+00    0.126745E+00    0.612545E+00
   ------------------------------------------------------------------------

         :::::::::::::::::::::::::::::::::::::::::::::::::::::
         ::                  THERMODYNAMIC                  ::
         :::::::::::::::::::::::::::::::::::::::::::::::::::::
         :: total free energy        -155.613028174741 Eh   ::
         ::.................................................::
         :: total energy             -156.225572767965 Eh   ::
         :: zero point energy           0.690406335544 Eh   ::
         :: G(RRHO) w/o ZPVE           -0.077861742319 Eh   ::
         :: G(RRHO) contrib.            0.612544593225 Eh   ::
         :::::::::::::::::::::::::::::::::::::::::::::::::::::

           -------------------------------------------------
          | TOTAL ENERGY             -156.225572767965 Eh   |
          | TOTAL ENTHALPY           -155.486283613303 Eh   |
          | TOTAL FREE ENERGY        -155.613028174741 Eh   |
          | GRADIENT NORM               0.000059550618 Eh/α |
           -------------------------------------------------

 * finished run on 2025/07/18 at 15:37:21.504
