   * xtb version 6.7.1 (edcfbbe) compiled by 'albert@albert-system' on 2024-07-22

   ID    Z sym.   atoms
    1    9 F      1, 3, 4
    2    6 C      2, 5-9, 11-24, 26-31, 33-44, 46-60
    3    7 N      10, 25, 32, 45
    4    1 H      61-93

          program call               : xtb data2507/gas/m-CF3PIBI/m-CF3PIBI_gas_T1_crest.xyz --gfn 2 --spinpol --tblite --uhf 2 --ohess vtight --parallel 40 --molden --ceasefiles --namespace data2507/gas/m-CF3PIBI/m-CF3PIBI_gas_T1_finalOpt
 * total energy  :  -156.2255377 Eh     change       -0.1264817E-07 Eh
 * total energy  :  -156.2255574 Eh     change       -0.1973967E-04 Eh
 * total energy  :  -156.2255777 Eh     change       -0.2026116E-04 Eh
 * total energy  :  -156.2255840 Eh     change       -0.6344296E-05 Eh
 * total energy  :  -156.2255900 Eh     change       -0.5991408E-05 Eh
 * total energy  :  -156.2255927 Eh     change       -0.2686891E-05 Eh
 * total energy  :  -156.2255947 Eh     change       -0.2048763E-05 Eh
 * total energy  :  -156.2255955 Eh     change       -0.7541576E-06 Eh
 * total energy  :  -156.2255961 Eh     change       -0.6458465E-06 Eh
 * total energy  :  -156.2255969 Eh     change       -0.8002072E-06 Eh
 * total energy  :  -156.2255976 Eh     change       -0.6438380E-06 Eh
 * total energy  :  -156.2255986 Eh     change       -0.1043609E-05 Eh
 * total energy  :  -156.2255992 Eh     change       -0.6187932E-06 Eh
 * total energy  :  -156.2255993 Eh     change       -0.9571957E-07 Eh
   *** GEOMETRY OPTIMIZATION CONVERGED AFTER 14 ITERATIONS ***

 final structure:
================
93
 xtb: 6.7.1 (edcfbbe)
F           -3.28613848786936       -3.43777932224391       -2.25430739546827
C           -3.17652957611276       -3.84921905696715       -0.98223000461226
F           -1.93422545989051       -3.50032041474209       -0.58365488549325
F           -3.19094983008256       -5.19056133141648       -1.01264050799191
C           -4.22884971299833       -3.26827231451233       -0.08368396036399
C           -4.67964929758491       -3.99372973513447        1.01441163697425
C           -5.61356237453218       -3.41817225217375        1.86492201042439
C           -6.07824294640595       -2.13943806623350        1.63644007838903
C           -5.62102009225443       -1.41193495354916        0.53178895976886
N           -6.04303084305208       -0.10227897386171        0.31362104067270
C           -5.18088864697482        1.00388044807896        0.13134874725857
C           -3.78688804988827        1.02586693480834        0.26445782954782
C           -2.99742316537521        0.03604076230612        0.92153665190565
C           -1.63945750279800        0.09920592478302        0.90676860689801
C           -0.93674779781164        1.15839753251325        0.27218287108164
C            0.49244367782532        1.17360015685643        0.21223777882206
C            1.24271781572851       -0.02216585369978        0.29212029847052
C            2.60959706606543       -0.01593452059348        0.21785374619273
C            3.33225202569824        1.18320100027963        0.09157787910128
C            4.78313183139270        1.18626674498912        0.03633770156153
C            5.48650826081802        0.12257784089966       -0.54607672873162
C            6.86119698980847        0.11206007364014       -0.59077051724543
C            7.59681781936769        1.16424953750231       -0.03690462191972
C            9.04300711841670        1.21097090037030       -0.05573509443603
N            9.71481703301609        2.33348248566338       -0.10996004422555
C           11.03279094570499        1.99004252648563       -0.16782003541649
C           12.17047219270617        2.78924192482740       -0.23495746927177
C           13.39477935111987        2.15792335018539       -0.26312632640996
C           13.50378654612965        0.76562716018901       -0.21684234619386
C           12.38968141757699       -0.04742855613253       -0.15241381344084
C           11.15410717945419        0.57884434176514       -0.14389364122192
N            9.86613399401151        0.09878873394826       -0.07098487848767
C            9.51518324043127       -1.24807586877453        0.11432939956342
C            8.71340877124275       -1.61865724959823        1.18997043381650
C            8.38220614678715       -2.94784499927546        1.37171010937121
C            8.85568257784026       -3.91226384218109        0.49660233544471
C            9.66091903324061       -3.54366129757883       -0.56781268208321
C            9.99148006520355       -2.21493981420346       -0.76443116295636
C            6.90271093989970        2.24465388531551        0.51939613909757
C            5.52922547117762        2.25490954546813        0.55503760284664
C            2.59324210092212        2.37681212947200        0.02214226364352
C            1.22472128368767        2.37315187004890        0.06296971160695
C           -1.73012498492975        2.20610304506947       -0.27429387449017
C           -3.08626528362207        2.14827803304415       -0.27552627517673
N           -5.89227487040478        2.11207238749337       -0.13829024627746
C           -7.17162450007711        1.77129552978568       -0.08344621887562
C           -8.30386683652362        2.62781356530609       -0.21805220371095
C           -8.14046679707421        4.00381533261677       -0.39360211385265
C           -9.23879967950602        4.82980162065965       -0.47115017167641
C          -10.51083231780855        4.27995486189124       -0.36230274314076
C          -10.68190546501616        2.92069221968399       -0.19733281341092
C           -9.58920318795494        2.04727641518982       -0.13217802575206
C           -9.73436741928402        0.60409297346065       -0.01358144215810
C          -10.98890300681770       -0.00664322023040       -0.05850566203587
C          -11.14345188102546       -1.37633710962773       -0.00709668358387
C          -10.02267639464082       -2.20028139278674        0.06460554645379
C           -8.77119520346947       -1.64477022121361        0.12217623634090
C           -8.58769423579996       -0.24515628633920        0.11382811589290
C           -7.32482641954851        0.37733174012715        0.16970532034993
C           -4.69119203043573       -1.98924972463134       -0.33678629313728
H           -4.30591339920437       -4.98824765922211        1.19696976112058
H           -5.96653290548771       -3.97084329131886        2.72160977364863
H           -6.78695624002612       -1.68288788695163        2.31132042284897
H           -3.47950292262134       -0.74050079466127        1.49364297889172
H           -1.08018874513424       -0.65251086364140        1.44246284524169
H            0.72650653484156       -0.96661715922586        0.37256125998171
H            3.14589708130143       -0.95100606113474        0.28674688550993
H            4.94035936076080       -0.68770077030252       -1.00537884788637
H            7.36756375585463       -0.70460901893712       -1.08357668369738
H           12.08110629272345        3.86323374823891       -0.25848446919883
H           14.29749012471336        2.74860582291835       -0.31543086583272
H           14.48521521886079        0.31511292481944       -0.23025435560952
H           12.47942556467964       -1.12259995831056       -0.10437284984806
H            8.35337157894803       -0.86196633547190        1.87119953917151
H            7.75717428779209       -3.23256488490327        2.20469561301285
H            8.59735876622104       -4.94984381626627        0.64450125984408
H           10.03011523878084       -4.29234354488204       -1.25280619342369
H           10.60420470652814       -1.91791194279161       -1.60272631290343
H            7.47503547455672        3.06334962232323        0.92664841468501
H            5.01816250002886        3.08337281399024        1.02193813404342
H            3.11540991039297        3.31465642522983       -0.09720269248100
H            0.69845875925816        3.31415251767301        0.01607251652752
H           -1.24124559128394        3.04377796965291       -0.74695496347495
H           -3.67969866072022        2.92884105749991       -0.72387985599738
H           -7.13468132555360        4.38858276607492       -0.45628743488911
H           -9.11698053711381        5.89381363623386       -0.60670479187016
H          -11.37859483094134        4.92187419523626       -0.40800263846307
H          -11.68862825611017        2.54364348916178       -0.11353981337082
H          -11.87647251287145        0.59805863497269       -0.15126156993391
H          -12.13176589145582       -1.80894201552216       -0.04364394889686
H          -10.13797946368684       -3.27385191413429        0.06733712370618
H           -7.90911012994898       -2.29078243365346        0.14496759367804
H           -4.33672513938476       -1.43601575461695       -1.19276447778373

 projected vibrational frequencies (cm⁻¹)
eigval :       -0.00    -0.00    -0.00    -0.00     0.00     0.00
eigval :        5.96     7.09     8.80    16.06    17.03    22.69
eigval :       25.04    27.82    38.10    44.55    47.33    58.04
eigval :       60.69    66.07    69.23    75.05    83.72    85.33
eigval :       91.11    96.95   105.07   111.56   113.24   132.61
eigval :      147.20   171.11   185.97   193.32   200.98   208.15
eigval :      209.15   212.29   235.43   244.59   250.95   259.19
eigval :      263.93   268.97   293.67   306.85   315.72   328.73
eigval :      335.88   343.40   351.27   363.09   364.19   372.93
eigval :      378.63   380.79   385.12   392.75   395.90   399.13
eigval :      404.12   410.46   415.83   431.23   435.45   437.54
eigval :      457.84   462.27   470.51   478.14   491.49   499.03
eigval :      502.06   520.04   526.18   526.42   530.72   544.57
eigval :      561.06   580.08   581.74   587.81   592.17   593.71
eigval :      596.00   599.70   603.29   610.12   612.27   629.15
eigval :      639.25   651.96   655.17   657.82   663.80   668.12
eigval :      670.08   672.39   681.65   683.22   694.04   702.86
eigval :      709.19   714.79   726.11   729.51   756.76   763.49
eigval :      768.35   770.81   772.68   776.27   791.99   797.28
eigval :      811.27   815.03   817.14   829.09   839.57   853.51
eigval :      857.55   866.69   868.79   868.89   872.04   877.98
eigval :      885.01   890.06   897.58   900.17   903.41   911.26
eigval :      911.78   914.24   914.77   916.80   918.72   920.25
eigval :      920.94   921.09   924.18   926.42   929.15   929.72
eigval :      932.50   941.95   947.53   950.34   967.43   982.75
eigval :      995.34  1002.36  1022.89  1025.69  1037.39  1050.60
eigval :     1059.61  1065.64  1066.27  1079.86  1080.45  1086.54
eigval :     1092.93  1105.00  1115.93  1124.78  1129.75  1133.53
eigval :     1134.03  1136.23  1141.81  1156.48  1157.78  1160.49
eigval :     1173.95  1180.69  1181.01  1183.26  1185.48  1189.28
eigval :     1195.33  1198.50  1201.95  1207.91  1231.20  1239.10
eigval :     1247.89  1252.00  1259.94  1261.59  1263.30  1271.65
eigval :     1272.76  1276.87  1279.10  1286.39  1292.42  1302.15
eigval :     1305.58  1314.24  1316.71  1320.74  1325.07  1331.29
eigval :     1332.26  1335.07  1339.99  1358.04  1360.61  1374.40
eigval :     1387.23  1393.21  1398.30  1407.23  1412.00  1414.43
eigval :     1416.09  1425.46  1433.85  1436.24  1442.15  1447.04
eigval :     1448.89  1466.75  1472.76  1475.05  1479.75  1482.88
eigval :     1488.48  1493.35  1513.08  1515.53  1521.37  1532.63
eigval :     1536.84  1544.55  1558.28  1563.52  1568.50  1582.03
eigval :     1583.14  1585.93  1587.14  1594.55  1595.24  1610.68
eigval :     3075.12  3077.28  3077.46  3079.84  3080.92  3081.74
eigval :     3081.76  3082.33  3083.73  3087.43  3088.20  3090.00
eigval :     3090.63  3090.89  3091.11  3091.86  3092.39  3093.69
eigval :     3095.17  3096.71  3097.77  3100.50  3101.26  3102.14
eigval :     3104.39  3107.28  3107.36  3108.68  3109.56  3112.29
eigval :     3112.54  3115.36  3122.66

   temp. (K)  partition function   enthalpy   heat capacity  entropy
                                   cal/mol     cal/K/mol   cal/K/mol   J/K/mol
 298.15  VIB  0.491E+24            28303.214    175.526    179.159
         ROT  0.255E+09              888.752      2.981     41.446
         INT  0.125E+33            29191.967    178.507    220.605
         TR   0.212E+29             1481.254      4.968     45.831
         TOT                       30673.2206   183.4747   266.4360  1114.7682

       T/K    H(0)-H(T)+PV         H(T)/Eh          T*S/Eh         G(T)/Eh
   ------------------------------------------------------------------------
    298.15    0.488809E-01    0.739316E+00    0.126592E+00    0.612724E+00
   ------------------------------------------------------------------------

         :::::::::::::::::::::::::::::::::::::::::::::::::::::
         ::                  THERMODYNAMIC                  ::
         :::::::::::::::::::::::::::::::::::::::::::::::::::::
         :: total free energy        -155.612875769977 Eh   ::
         ::.................................................::
         :: total energy             -156.225599284383 Eh   ::
         :: zero point energy           0.690434959118 Eh   ::
         :: G(RRHO) w/o ZPVE           -0.077711444712 Eh   ::
         :: G(RRHO) contrib.            0.612723514406 Eh   ::
         :::::::::::::::::::::::::::::::::::::::::::::::::::::

           -------------------------------------------------
          | TOTAL ENERGY             -156.225599284383 Eh   |
          | TOTAL ENTHALPY           -155.486283436784 Eh   |
          | TOTAL FREE ENERGY        -155.612875769977 Eh   |
          | GRADIENT NORM               0.000091885790 Eh/α |
           -------------------------------------------------

 * finished run on 2025/07/18 at 15:43:52.375
