   * xtb version 6.7.1 (edcfbbe) compiled by 'albert@albert-system' on 2024-07-22

   ID    Z sym.   atoms
    1    9 F      1, 3, 4
    2    6 C      2, 5-9, 11-24, 26-31, 33-44, 46-60
    3    7 N      10, 25, 32, 45
    4    1 H      61-93

          program call               : xtb data2507/gas/m-CF3PIBI/m-CF3PIBI_gas_S0_crest.xyz --gfn 2 --ohess vtight --parallel 40 --molden --ceasefiles --namespace data2507/gas/m-CF3PIBI/m-CF3PIBI_gas_S0_finalOpt
          :  Hamiltonian                  GFN2-xTB          :
 * total energy  :  -156.3079116 Eh     change       -0.9576979E-09 Eh
 * total energy  :  -156.3079140 Eh     change       -0.2443533E-05 Eh
 * total energy  :  -156.3079168 Eh     change       -0.2767687E-05 Eh
 * total energy  :  -156.3079209 Eh     change       -0.4107928E-05 Eh
 * total energy  :  -156.3079238 Eh     change       -0.2895151E-05 Eh
 * total energy  :  -156.3079263 Eh     change       -0.2456986E-05 Eh
 * total energy  :  -156.3079281 Eh     change       -0.1831641E-05 Eh
 * total energy  :  -156.3079296 Eh     change       -0.1506715E-05 Eh
 * total energy  :  -156.3079312 Eh     change       -0.1573690E-05 Eh
 * total energy  :  -156.3079330 Eh     change       -0.1814746E-05 Eh
 * total energy  :  -156.3079421 Eh     change       -0.1544631E-05 Eh
 * total energy  :  -156.3079429 Eh     change       -0.8203220E-06 Eh
 * total energy  :  -156.3079435 Eh     change       -0.5282054E-06 Eh
 * total energy  :  -156.3079440 Eh     change       -0.5205837E-06 Eh
 * total energy  :  -156.3079446 Eh     change       -0.6397896E-06 Eh
 * total energy  :  -156.3079452 Eh     change       -0.5682339E-06 Eh
 * total energy  :  -156.3079455 Eh     change       -0.3483246E-06 Eh
 * total energy  :  -156.3079458 Eh     change       -0.2129830E-06 Eh
 * total energy  :  -156.3079458 Eh     change       -0.4867815E-08 Eh
   *** GEOMETRY OPTIMIZATION CONVERGED AFTER 22 ITERATIONS ***

 final structure:
================
93
 xtb: 6.7.1 (edcfbbe)
F           -2.70832640583507       -3.06265932314965       -2.11905265635054
C           -2.60998757632927       -3.42908287401559       -0.83376567274052
F           -1.45766528344793       -2.89305627888303       -0.37848756766160
F           -2.42868790765559       -4.75774621440825       -0.82556147255965
C           -3.78364572061427       -2.98998846951361       -0.00586523502700
C           -4.17529446070980       -3.74002129612500        1.09500142037786
C           -5.21809101023438       -3.28643632679605        1.88580202484794
C           -5.84491377264067       -2.08815371778112        1.59932089435758
C           -5.44788348665593       -1.33982229690993        0.49235792377901
N           -6.01792781370839       -0.08761020472560        0.23653300085039
C           -5.29372049760839        1.09071697458889        0.15263667099685
C           -3.84199546223855        1.15119203848489        0.23356338367788
C           -3.11211666849785        0.40859331497620        1.16099624962121
C           -1.73330573610157        0.44316940971078        1.14958191828255
C           -1.04487898279112        1.23247598721912        0.23014597850145
C            0.42258182665238        1.23212067557900        0.19763233294024
C            1.13068976446269        0.03714260442293        0.31129734088043
C            2.50988835142941        0.03047430959035        0.26683927835076
C            3.22611897093371        1.21763917261509        0.12356193112623
C            4.69373282030807        1.21114971156535        0.08246055670782
C            5.38163892404186        0.22499149134747       -0.62287337538492
C            6.76057936242578        0.21236794638372       -0.66463227859252
C            7.49318509423698        1.18598881836884        0.01277777710646
C            8.94621135582187        1.22580415719581       -0.01086708666134
N            9.62717610146816        2.33945723094828       -0.02024555265588
C           10.94416436762443        1.98238151458834       -0.09447431198317
C           12.09015949627415        2.76961968166759       -0.12933102938910
C           13.30726735487585        2.12532868118264       -0.18713140019404
C           13.39921382512166        0.73182656107948       -0.20017125589237
C           12.27525993521506       -0.06922822476510       -0.16821300751143
C           11.04748917273021        0.57149904924996       -0.13091276683333
N            9.75247596288386        0.10547473665259       -0.07574964213179
C            9.37354010866331       -1.24176268202714        0.03112318617657
C            8.54061366632914       -1.65217024928302        1.06773781215017
C            8.17699889712680       -2.98149030377359        1.16933481455234
C            8.64829819619753       -3.90733793474570        0.25256464054111
C            9.48394247369808       -3.49950925750888       -0.77340239516501
C            9.84680778627813       -2.16988302556959       -0.89010060043050
C            6.80929195760067        2.18728264608774        0.70215591683353
C            5.43139861439862        2.19754945548588        0.73675309708379
C            2.51607026884862        2.41221282489041        0.01671322507628
C            1.13662540155985        2.41859519141824        0.04477807468262
C           -1.78019126426287        2.01895671414702       -0.65527437384960
C           -3.15861838911298        1.97859883274969       -0.65633203090542
N           -6.06539229178538        2.12810064125614       -0.01606832091022
C           -7.34079918478344        1.65293660501986       -0.04184117082055
C           -8.54553749133196        2.39984628393576       -0.15915086551359
C           -8.52645175015553        3.79506771644647       -0.25790535731295
C           -9.70185012402567        4.49973440140691       -0.32890449505052
C          -10.91442700428879        3.81345368313449       -0.29643770575647
C          -10.94442298407622        2.44148406410492       -0.20704300288655
C           -9.76452451450469        1.68406699234802       -0.14454491191727
C           -9.75981876671991        0.23245904720902       -0.09604699311428
C          -10.94671053149956       -0.50955659665486       -0.17975614765654
C          -10.94867778016673       -1.88404223211093       -0.19487160148277
C           -9.74743528979233       -2.58452632806452       -0.14928509754391
C           -8.56314999971875       -1.89654517498267       -0.05489223893945
C           -8.54150123945918       -0.49529606799238        0.00086534827885
C           -7.34477476725075        0.26820041240350        0.10213564796942
C           -4.41768472162102       -1.79891116063581       -0.32236800308421
H           -3.67053860967133       -4.66476290591452        1.32607880583673
H           -5.53131073175905       -3.86320059333453        2.74191741009312
H           -6.64032113146329       -1.71905511126776        2.22974664073756
H           -3.62214450363033       -0.18448718344244        1.90637033569442
H           -1.17931793948358       -0.13613905735731        1.87313560736785
H            0.59080164357207       -0.89366880357217        0.40814890452305
H            3.04285091931478       -0.90428836540989        0.36320310356067
H            4.82676843346575       -0.52475689027812       -1.16761840556540
H            7.26705796692403       -0.54463829605932       -1.24518823935329
H           12.01412922167128        3.84470263504159       -0.10652423386900
H           14.21679537401428        2.70712763645597       -0.21616943465061
H           14.37495197770058        0.27008378770239       -0.23432976332339
H           12.35178410033923       -1.14652057679416       -0.16545163792853
H            8.18284802795212       -0.92638003588162        1.78290411941963
H            7.52814360290290       -3.29681977233211        1.97258809041565
H            8.36466530354743       -4.94535786203843        0.33799851156424
H            9.85153780921237       -4.21783498897941       -1.49102455259819
H           10.48295770070921       -1.84166688504311       -1.69877195143901
H            7.38287664541273        2.94872805333687        1.20712079480261
H            4.91589690731234        2.96566843012053        1.29431896606055
H            3.05296594810930        3.34055452937133       -0.11260113095706
H            0.60309903652733        3.35487710135523       -0.03210432113480
H           -1.26229486073831        2.64193479497718       -1.36938283659395
H           -3.72893634561821        2.57284180045793       -1.35337842340070
H           -7.56627533500608        4.28685122790848       -0.26744381339543
H           -9.69303517682645        5.57699879653668       -0.40334055671942
H          -11.84241366834901        4.36485606949250       -0.34264775835394
H          -11.90644641340818        1.95481883193036       -0.18206133172373
H          -11.89363703382448        0.00083009217396       -0.24763599433049
H          -11.88329487459458       -2.42097140650715       -0.26098338327381
H           -9.74481559568468       -3.66344013693622       -0.19450986370426
H           -7.63348379549969       -2.44401347400396       -0.04733822605317
H           -4.11002226122418       -1.22649767294309       -1.18390202934196

          :  Hamiltonian                  GFN2-xTB          :
         :: gradient norm              0.000043356377 Eh/a0 ::
         :: HOMO-LUMO gap              2.434232636891 eV    ::
         :: SCC energy              -158.983636115403 Eh    ::
         :: -> dispersion             -0.132777608181 Eh    ::
         :: repulsion energy           2.675690354633 Eh    ::

    * Orbital Energies and Occupations

         #    Occupation            Energy/Eh            Energy/eV
      -------------------------------------------------------------
         1        2.0000           -0.8837285             -24.0475
       ...           ...                  ...                  ...
       131        2.0000           -0.4131835             -11.2433
       132        2.0000           -0.4127844             -11.2324
       133        2.0000           -0.4082613             -11.1094
       134        2.0000           -0.4078639             -11.0985
       135        2.0000           -0.4070461             -11.0763
       136        2.0000           -0.4033458             -10.9756
       137        2.0000           -0.3893538             -10.5949
       138        2.0000           -0.3865892             -10.5196
       139        2.0000           -0.3841853             -10.4542
       140        2.0000           -0.3782537             -10.2928
       141        2.0000           -0.3742808             -10.1847
       142        2.0000           -0.3728246             -10.1451
       143        2.0000           -0.3686580             -10.0317 (HOMO)
       144                         -0.2792016              -7.5975 (LUMO)
       145                         -0.2740806              -7.4581
       146                         -0.2677294              -7.2853
       147                         -0.2580982              -7.0232
       148                         -0.2519748              -6.8566
       149                         -0.2484326              -6.7602
       150                         -0.2385543              -6.4914
       151                         -0.2382910              -6.4842
       152                         -0.2308390              -6.2815
       153                         -0.2269484              -6.1756
       154                         -0.2251202              -6.1258
       ...                                ...                  ...
       273                          0.7224407              19.6586
      -------------------------------------------------------------
                  HL-Gap            0.0894564 Eh            2.4342 eV

     #   Z          covCN         q      C6AA      α(0)
     1   9 F        0.791    -0.204    11.280     3.967
     2   6 C        3.337     0.486    17.269     6.579
     3   9 F        0.791    -0.211    11.351     3.980
     4   9 F        0.791    -0.204    11.281     3.967
     5   6 C        2.977    -0.022    28.553     8.765
     6   6 C        2.920    -0.026    28.663     8.779
     7   6 C        2.920    -0.022    28.561     8.764
     8   6 C        2.921    -0.032    28.786     8.798
     9   6 C        2.913     0.079    26.235     8.399
    10   7 N        2.841    -0.045    22.110     6.984
    11   6 C        3.186     0.129    24.760     8.119
    12   6 C        2.974    -0.002    28.069     8.690
    13   6 C        2.921    -0.035    28.878     8.812
    14   6 C        2.924    -0.033    28.826     8.805
    15   6 C        2.977     0.015    27.676     8.629
    16   6 C        2.978     0.009    27.817     8.651
    17   6 C        2.923    -0.034    28.853     8.809
    18   6 C        2.923    -0.033    28.832     8.806
    19   6 C        2.977     0.009    27.805     8.649
    20   6 C        2.976     0.012    27.743     8.640
    21   6 C        2.924    -0.034    28.847     8.808
    22   6 C        2.920    -0.033    28.812     8.802
    23   6 C        2.975     0.001    27.995     8.679
    24   6 C        3.180     0.135    24.668     8.108
    25   7 N        1.887    -0.291    28.404     7.901
    26   6 C        3.191     0.067    26.031     8.321
    27   6 C        2.910    -0.042    29.042     8.837
    28   6 C        2.923    -0.039    28.977     8.828
    29   6 C        2.927    -0.037    28.921     8.819
    30   6 C        2.908    -0.051    29.266     8.871
    31   6 C        3.087     0.034    27.138     8.539
    32   7 N        2.825    -0.052    22.239     7.004
    33   6 C        2.913     0.067    26.497     8.441
    34   6 C        2.922    -0.039    28.971     8.827
    35   6 C        2.920    -0.026    28.659     8.779
    36   6 C        2.919    -0.031    28.783     8.798
    37   6 C        2.920    -0.027    28.687     8.783
    38   6 C        2.922    -0.041    29.016     8.833
    39   6 C        2.925    -0.028    28.695     8.785
    40   6 C        2.923    -0.033    28.812     8.802
    41   6 C        2.923    -0.034    28.845     8.807
    42   6 C        2.923    -0.034    28.842     8.807
    43   6 C        2.923    -0.032    28.787     8.799
    44   6 C        2.925    -0.028    28.689     8.784
    45   7 N        1.893    -0.281    28.141     7.864
    46   6 C        3.207     0.058    26.109     8.321
    47   6 C        2.986     0.004    27.936     8.670
    48   6 C        2.921    -0.030    28.760     8.794
    49   6 C        2.917    -0.029    28.729     8.789
    50   6 C        2.917    -0.032    28.790     8.799
    51   6 C        2.921    -0.034    28.855     8.809
    52   6 C        2.979    -0.001    28.040     8.686
    53   6 C        2.980     0.003    27.952     8.672
    54   6 C        2.922    -0.033    28.821     8.804
    55   6 C        2.916    -0.032    28.808     8.802
    56   6 C        2.917    -0.031    28.780     8.797
    57   6 C        2.919    -0.041    29.010     8.832
    58   6 C        2.978    -0.002    28.073     8.691
    59   6 C        3.066     0.019    27.526     8.603
    60   6 C        2.924    -0.034    28.845     8.808
    61   1 H        0.926     0.064     2.150     2.293
    62   1 H        0.926     0.059     2.211     2.325
    63   1 H        0.926     0.061     2.187     2.312
    64   1 H        0.926     0.022     2.703     2.571
    65   1 H        0.926     0.038     2.481     2.463
    66   1 H        0.926     0.040     2.446     2.446
    67   1 H        0.926     0.034     2.534     2.489
    68   1 H        0.926     0.035     2.513     2.479
    69   1 H        0.926     0.028     2.609     2.526
    70   1 H        0.926     0.043     2.403     2.424
    71   1 H        0.926     0.031     2.571     2.507
    72   1 H        0.926     0.030     2.586     2.515
    73   1 H        0.926     0.026     2.649     2.545
    74   1 H        0.926     0.038     2.478     2.462
    75   1 H        0.926     0.038     2.469     2.457
    76   1 H        0.926     0.038     2.477     2.461
    77   1 H        0.926     0.039     2.466     2.456
    78   1 H        0.926     0.043     2.415     2.430
    79   1 H        0.926     0.053     2.279     2.361
    80   1 H        0.926     0.038     2.473     2.459
    81   1 H        0.926     0.035     2.512     2.478
    82   1 H        0.926     0.034     2.527     2.486
    83   1 H        0.926     0.041     2.429     2.437
    84   1 H        0.926     0.051     2.311     2.377
    85   1 H        0.926     0.052     2.289     2.366
    86   1 H        0.926     0.032     2.551     2.498
    87   1 H        0.926     0.030     2.584     2.514
    88   1 H        0.926     0.032     2.557     2.500
    89   1 H        0.926     0.037     2.495     2.470
    90   1 H        0.926     0.031     2.570     2.507
    91   1 H        0.926     0.029     2.603     2.523
    92   1 H        0.926     0.022     2.701     2.570
    93   1 H        0.926     0.064     2.150     2.293

molecular dipole:
                 x           y           z       tot (Debye)
 q only:       -1.165      -0.874       0.966
   full:       -1.116      -1.784       0.982       5.901

 projected vibrational frequencies (cm⁻¹)
eigval :       -0.00    -0.00    -0.00     0.00     0.00     0.00
eigval :        6.76     7.05     9.05    16.14    17.97    22.16
eigval :       26.65    28.56    39.26    43.83    46.48    57.90
eigval :       60.53    67.84    70.60    75.18    83.00    84.40
eigval :       92.53    93.68    99.15   110.62   116.47   128.82
eigval :      139.79   174.61   182.39   191.02   196.72   208.25
eigval :      210.40   223.15   234.39   242.68   253.94   262.66
eigval :      262.91   276.75   300.82   311.44   320.51   333.95
eigval :      340.14   344.52   351.08   370.43   372.69   378.67
eigval :      379.79   381.32   383.77   398.02   400.62   403.82
eigval :      413.54   421.45   435.61   436.73   440.39   445.44
eigval :      458.03   476.98   482.32   488.79   508.19   516.40
eigval :      518.75   524.95   534.31   536.24   547.08   549.82
eigval :      564.01   580.83   584.34   592.86   597.68   598.17
eigval :      599.51   606.53   609.88   614.43   636.90   645.37
eigval :      645.71   658.81   660.31   668.31   670.32   678.97
eigval :      681.14   684.95   690.76   699.08   702.25   709.90
eigval :      714.81   716.79   735.08   735.22   763.92   765.93
eigval :      770.25   774.83   783.16   789.16   802.96   805.12
eigval :      821.52   826.22   840.44   864.04   867.88   869.23
eigval :      870.58   872.92   875.85   878.11   879.42   883.68
eigval :      887.23   898.36   903.75   904.72   909.58   915.35
eigval :      915.73   920.38   921.99   924.49   925.04   926.80
eigval :      928.06   929.40   930.17   932.67   933.51   935.10
eigval :      938.75   950.49   956.28   970.71   987.77  1004.40
eigval :     1014.49  1026.67  1027.45  1030.64  1060.75  1067.56
eigval :     1070.13  1078.48  1080.27  1085.09  1085.40  1092.00
eigval :     1108.21  1116.68  1126.98  1133.86  1134.16  1134.97
eigval :     1136.48  1139.75  1148.25  1151.21  1171.16  1174.99
eigval :     1180.80  1182.60  1184.10  1185.51  1189.61  1195.11
eigval :     1200.03  1202.55  1206.82  1208.09  1235.39  1255.17
eigval :     1260.68  1260.81  1263.70  1268.62  1270.73  1274.37
eigval :     1275.75  1279.57  1283.47  1293.49  1298.86  1313.99
eigval :     1315.17  1316.83  1318.17  1320.42  1321.14  1324.67
eigval :     1331.42  1339.32  1346.49  1363.12  1370.98  1376.96
eigval :     1389.44  1399.43  1408.53  1411.64  1413.51  1416.89
eigval :     1427.93  1434.71  1436.56  1442.10  1459.27  1471.91
eigval :     1477.90  1481.72  1489.11  1505.14  1514.27  1519.12
eigval :     1534.90  1547.75  1554.07  1559.65  1565.11  1567.53
eigval :     1573.20  1577.75  1583.21  1587.75  1590.70  1591.02
eigval :     1594.66  1595.69  1597.29  1604.66  1605.57  1616.47
eigval :     3074.25  3074.39  3074.69  3075.69  3076.55  3078.09
eigval :     3079.00  3080.15  3081.26  3082.71  3083.37  3085.23
eigval :     3085.87  3087.86  3088.00  3088.78  3090.61  3090.70
eigval :     3091.58  3091.73  3092.99  3094.78  3098.47  3100.87
eigval :     3102.95  3103.03  3105.40  3106.00  3106.10  3106.38
eigval :     3108.85  3112.30  3112.53

   temp. (K)  partition function   enthalpy   heat capacity  entropy
                                   cal/mol     cal/K/mol   cal/K/mol   J/K/mol
 298.15  VIB  0.308E+24            28012.508    173.462    177.568
         ROT  0.238E+09              888.752      2.981     41.311
         INT  0.732E+32            28901.261    176.442    218.880
         TR   0.212E+29             1481.254      4.968     45.831
         TOT                       30382.5144   181.4106   264.7108  1107.5498

       T/K    H(0)-H(T)+PV         H(T)/Eh          T*S/Eh         G(T)/Eh
   ------------------------------------------------------------------------
    298.15    0.484176E-01    0.743207E+00    0.125773E+00    0.617434E+00
   ------------------------------------------------------------------------

         :::::::::::::::::::::::::::::::::::::::::::::::::::::
         ::                  THERMODYNAMIC                  ::
         :::::::::::::::::::::::::::::::::::::::::::::::::::::
         :: total free energy        -155.690511406158 Eh   ::
         ::.................................................::
         :: total energy             -156.307945760768 Eh   ::
         :: zero point energy           0.694789363051 Eh   ::
         :: G(RRHO) w/o ZPVE           -0.077355008440 Eh   ::
         :: G(RRHO) contrib.            0.617434354611 Eh   ::
         :::::::::::::::::::::::::::::::::::::::::::::::::::::

           -------------------------------------------------
          | TOTAL ENERGY             -156.307945760768 Eh   |
          | TOTAL ENTHALPY           -155.564738779030 Eh   |
          | TOTAL FREE ENERGY        -155.690511406158 Eh   |
          | GRADIENT NORM               0.000043358160 Eh/α |
          | HOMO-LUMO GAP               2.434232578264 eV   |
           -------------------------------------------------

 * finished run on 2025/07/18 at 15:37:01.070
