   * xtb version 6.7.1 (edcfbbe) compiled by 'albert@albert-system' on 2024-07-22

   ID    Z sym.   atoms
    1    9 F      1, 3, 4
    2    6 C      2, 5-9, 11-24, 26-31, 33-44, 46-60
    3    7 N      10, 25, 32, 45
    4    1 H      61-93

          program call               : xtb data2507/gas/m-CF3PIBI/m-CF3PIBI.xyz --gfn 2 --ohess vtight --parallel 40 --molden --ceasefiles --namespace data2507/gas/m-CF3PIBI/m-CF3PIBI_gas_S0_preOpt
          :  Hamiltonian                  GFN2-xTB          :
 * total energy  :  -156.2809520 Eh     change       -0.1308052E-08 Eh
 * total energy  :  -156.2960958 Eh     change       -0.1514378E-01 Eh
 * total energy  :  -156.3003588 Eh     change       -0.4263081E-02 Eh
 * total energy  :  -156.3018777 Eh     change       -0.1518852E-02 Eh
 * total energy  :  -156.3032476 Eh     change       -0.1369878E-02 Eh
 * total energy  :  -156.3041867 Eh     change       -0.9391428E-03 Eh
 * total energy  :  -156.3049673 Eh     change       -0.7806445E-03 Eh
 * total energy  :  -156.3056267 Eh     change       -0.6593646E-03 Eh
 * total energy  :  -156.3061295 Eh     change       -0.5027508E-03 Eh
 * total energy  :  -156.3065034 Eh     change       -0.3739459E-03 Eh
 * total energy  :  -156.3079391 Eh     change       -0.2778032E-06 Eh
 * total energy  :  -156.3079393 Eh     change       -0.2705564E-06 Eh
 * total energy  :  -156.3079396 Eh     change       -0.2851179E-06 Eh
 * total energy  :  -156.3079399 Eh     change       -0.3370268E-06 Eh
 * total energy  :  -156.3079404 Eh     change       -0.4154370E-06 Eh
 * total energy  :  -156.3079409 Eh     change       -0.5110042E-06 Eh
 * total energy  :  -156.3079415 Eh     change       -0.6322820E-06 Eh
 * total energy  :  -156.3079422 Eh     change       -0.6625976E-06 Eh
 * total energy  :  -156.3079422 Eh     change       -0.4669602E-08 Eh
   *** GEOMETRY OPTIMIZATION CONVERGED AFTER 122 ITERATIONS ***

 final structure:
================
93
 xtb: 6.7.1 (edcfbbe)
F           -2.78778562545131       -2.81232306387037       -2.53486621023820
C           -2.70307449000544       -3.33824747885587       -1.30541051550499
F           -1.56368843682381       -2.85310863489506       -0.76783678806023
F           -2.50580971741897       -4.65540742446829       -1.46331916152698
C           -3.89303413457389       -3.02092264634106       -0.44580037190569
C           -4.27232819487127       -3.89818307645764        0.56145723664650
C           -5.33085855835441       -3.56092208995200        1.38857242830157
C           -5.98581071914634       -2.35373863179307        1.23151214117220
C           -5.60146599221532       -1.47761179739156        0.21780074819785
N           -6.20126276452813       -0.21906143174350        0.09761391182749
C           -5.50480199806921        0.97799702596231        0.14551665073295
C           -4.05421716746928        1.05690743187239        0.23644946112250
C           -3.31685612595222        0.24244095318546        1.09501027458182
C           -1.93874819856615        0.29535277814088        1.09139217295808
C           -1.25850763230701        1.17179741388647        0.24767525954004
C            0.20884790262425        1.18695932157434        0.21675473736653
C            0.92558900765123       -0.00829231546748        0.23306045158334
C            2.30474361976530       -0.00161520995904        0.19257385770044
C            3.01293574000871        1.19822404285360        0.14890422991332
C            4.48066718952098        1.20302412768735        0.11473790187183
C            5.17725733914469        0.27530431687494       -0.65829820047225
C            6.55643966753556        0.26858536844932       -0.68878976507289
C            7.28060999284664        1.18932641727481        0.06708116224320
C            8.73385554529881        1.22903691814278        0.06213518451889
N            9.41696916806046        2.33866812773369        0.13818176912918
C           10.73408126809762        1.98374402574543        0.05462192964240
C           11.88199545810646        2.76817661558945        0.08863339504450
C           13.09842963362911        2.12601388303595        0.00057167380597
C           13.18770312686424        0.73660115139981       -0.10893074333581
C           12.06181989777905       -0.06151351475938       -0.14640613414443
C           10.83498941532129        0.57850603889956       -0.07878839793301
N            9.53844707255542        0.11352220968011       -0.07130420273800
C            9.15455288937875       -1.23648814080471       -0.05865273764523
C            8.30777088813170       -1.71117567272689        0.93858539362387
C            7.93893487468896       -3.04287993519855        0.94807745341291
C            8.41871354837421       -3.90815079672393       -0.02191739384708
C            9.26800205423532       -3.43678082847342       -1.00870087102149
C            9.63617607153438       -2.10369724233228       -1.03332394659150
C            6.58837231827696        2.13528938924798        0.82287529913924
C            5.21014436287471        2.13965564024222        0.84674423946248
C            2.29435159047913        2.39242373533791        0.13719155533103
C            0.91474996225043        2.38685766922772        0.16274687190415
C           -2.00216002539966        2.02664506403170       -0.56432922293754
C           -3.38024048885035        1.97054245634683       -0.57212790947248
N           -6.30006364673677        2.00944855270568        0.09170492552911
C           -7.56443470834048        1.51044546896818        0.01198911166457
C           -8.78653913592991        2.23735010791045       -0.02088827127367
C           -8.80041647681012        3.63481809975874        0.03966177100333
C           -9.99222512501024        4.31500469261833        0.05019273789312
C          -11.18833503991923        3.60109993471235        0.00501587163638
C          -11.18596662511700        2.22755211751203       -0.06253862725873
C           -9.98847561327238        1.49603995103362       -0.08726318690508
C           -9.94977275203220        0.04883052292974       -0.20379151130438
C          -11.11889978520573       -0.70646642240133       -0.37405975709423
C          -11.08849103459359       -2.07007759237356       -0.54465597945937
C           -9.87110246694101       -2.74295869709041       -0.57547590444343
C           -8.70330083603208       -2.04254396368220       -0.40102283469330
C           -8.71468617928213       -0.65647820011453       -0.18713780263204
C           -7.53612236312820        0.11862876619950        0.00147889272626
C           -4.55500154361553       -1.81798139878150       -0.63373222033331
H           -3.74586001432351       -4.83038617586945        0.69252495432864
H           -5.63464816893244       -4.23681727619691        2.17251736980923
H           -6.79377216492487       -2.07646609848295        1.89231137657353
H           -3.82156230975979       -0.42296691871923        1.78064929289858
H           -1.37897139223800       -0.33963687075679        1.76177070879510
H            0.39268766711299       -0.94788164900030        0.25071601725094
H            2.84393176160001       -0.93749078261701        0.21422704206681
H            4.62919047759322       -0.43214427300828       -1.26314525278446
H            7.07012800813010       -0.44153278641200       -1.32007228743058
H           11.80784964884528        3.83923259561730        0.18583766934576
H           14.00942107769947        2.70579265758448        0.02344643713145
H           14.16283387549747        0.27557830351144       -0.16385880241627
H           12.13619591037208       -1.13656185404016       -0.21817346245958
H            7.94365751624817       -1.03276077086517        1.69582296684075
H            7.27937894376371       -3.40789606992065        1.72101007786305
H            8.13106018064503       -4.94849505199108       -0.00839101468054
H            9.64216894697425       -4.10776815056960       -1.76757115017774
H           10.28304202711227       -1.72544683612837       -1.81104645150914
H            7.15553411220656        2.85784993916461        1.38860775326046
H            4.68805788313002        2.86227947746429        1.45653652546023
H            2.82457703311348        3.33206892105280        0.08490747675688
H            0.37495822659524        3.32270439482995        0.16159952757637
H           -1.49109689460999        2.71736317325426       -1.21852153118940
H           -3.95638584841982        2.61872850749736       -1.21420531831927
H           -7.85203713785068        4.14700008928765        0.08583730409951
H          -10.00888630270516        5.39362820707424        0.09926116319905
H          -12.12907569609091        4.13216470516971        0.02274945060352
H          -12.13621534084390        1.71852205896158       -0.09224670311614
H          -12.07754146644974       -0.21389537101944       -0.38650498151555
H          -12.01019134513813       -2.61780265619210       -0.67366909906031
H           -9.84313588943731       -3.80946122917948       -0.74252109137801
H           -7.76095226702455       -2.56533580497289       -0.45349495322126
H           -4.25700806099192       -1.14636453466409       -1.42406304802555

          :  Hamiltonian                  GFN2-xTB          :
         :: gradient norm              0.000046546336 Eh/a0 ::
         :: HOMO-LUMO gap              2.437741475870 eV    ::
         :: SCC energy              -158.983654555821 Eh    ::
         :: -> dispersion             -0.132886489542 Eh    ::
         :: repulsion energy           2.675712386978 Eh    ::

    * Orbital Energies and Occupations

         #    Occupation            Energy/Eh            Energy/eV
      -------------------------------------------------------------
         1        2.0000           -0.8837434             -24.0479
       ...           ...                  ...                  ...
       131        2.0000           -0.4132187             -11.2443
       132        2.0000           -0.4128551             -11.2344
       133        2.0000           -0.4082201             -11.1082
       134        2.0000           -0.4078659             -11.0986
       135        2.0000           -0.4070256             -11.0757
       136        2.0000           -0.4034290             -10.9779
       137        2.0000           -0.3892903             -10.5931
       138        2.0000           -0.3866363             -10.5209
       139        2.0000           -0.3842564             -10.4561
       140        2.0000           -0.3782437             -10.2925
       141        2.0000           -0.3742881             -10.1849
       142        2.0000           -0.3728568             -10.1459
       143        2.0000           -0.3687683             -10.0347 (HOMO)
       144                         -0.2791830              -7.5970 (LUMO)
       145                         -0.2739521              -7.4546
       146                         -0.2678031              -7.2873
       147                         -0.2579832              -7.0201
       148                         -0.2519663              -6.8564
       149                         -0.2485004              -6.7620
       150                         -0.2385319              -6.4908
       151                         -0.2382753              -6.4838
       152                         -0.2310056              -6.2860
       153                         -0.2269413              -6.1754
       154                         -0.2251264              -6.1260
       ...                                ...                  ...
       273                          0.7223670              19.6566
      -------------------------------------------------------------
                  HL-Gap            0.0895853 Eh            2.4377 eV

     #   Z          covCN         q      C6AA      α(0)
     1   9 F        0.791    -0.204    11.279     3.967
     2   6 C        3.337     0.486    17.269     6.579
     3   9 F        0.791    -0.211    11.352     3.980
     4   9 F        0.791    -0.205    11.282     3.968
     5   6 C        2.977    -0.022    28.555     8.765
     6   6 C        2.920    -0.026    28.662     8.779
     7   6 C        2.920    -0.022    28.561     8.764
     8   6 C        2.921    -0.032    28.787     8.799
     9   6 C        2.913     0.079    26.236     8.399
    10   7 N        2.841    -0.045    22.110     6.984
    11   6 C        3.186     0.129    24.755     8.118
    12   6 C        2.974    -0.002    28.068     8.690
    13   6 C        2.921    -0.035    28.876     8.812
    14   6 C        2.924    -0.033    28.829     8.805
    15   6 C        2.977     0.015    27.676     8.629
    16   6 C        2.978     0.009    27.817     8.651
    17   6 C        2.923    -0.034    28.854     8.809
    18   6 C        2.923    -0.033    28.832     8.806
    19   6 C        2.977     0.009    27.804     8.649
    20   6 C        2.976     0.012    27.743     8.640
    21   6 C        2.924    -0.034    28.847     8.808
    22   6 C        2.920    -0.033    28.811     8.802
    23   6 C        2.975     0.001    27.994     8.679
    24   6 C        3.180     0.135    24.666     8.108
    25   7 N        1.887    -0.291    28.403     7.901
    26   6 C        3.191     0.067    26.029     8.321
    27   6 C        2.910    -0.042    29.042     8.837
    28   6 C        2.923    -0.039    28.977     8.828
    29   6 C        2.927    -0.037    28.921     8.819
    30   6 C        2.908    -0.051    29.266     8.871
    31   6 C        3.087     0.034    27.138     8.539
    32   7 N        2.825    -0.052    22.240     7.004
    33   6 C        2.913     0.067    26.497     8.441
    34   6 C        2.922    -0.039    28.971     8.827
    35   6 C        2.920    -0.026    28.659     8.779
    36   6 C        2.919    -0.031    28.784     8.798
    37   6 C        2.920    -0.027    28.687     8.783
    38   6 C        2.922    -0.041    29.016     8.833
    39   6 C        2.925    -0.028    28.695     8.785
    40   6 C        2.923    -0.033    28.812     8.802
    41   6 C        2.923    -0.034    28.845     8.807
    42   6 C        2.922    -0.034    28.841     8.807
    43   6 C        2.923    -0.032    28.787     8.799
    44   6 C        2.925    -0.028    28.690     8.784
    45   7 N        1.893    -0.281    28.136     7.864
    46   6 C        3.208     0.058    26.107     8.320
    47   6 C        2.986     0.004    27.935     8.670
    48   6 C        2.921    -0.030    28.760     8.794
    49   6 C        2.917    -0.029    28.729     8.789
    50   6 C        2.917    -0.032    28.790     8.799
    51   6 C        2.921    -0.034    28.855     8.809
    52   6 C        2.979    -0.001    28.040     8.686
    53   6 C        2.980     0.003    27.952     8.672
    54   6 C        2.922    -0.033    28.821     8.804
    55   6 C        2.916    -0.032    28.808     8.802
    56   6 C        2.917    -0.031    28.780     8.797
    57   6 C        2.919    -0.041    29.010     8.832
    58   6 C        2.978    -0.002    28.073     8.691
    59   6 C        3.066     0.019    27.527     8.603
    60   6 C        2.924    -0.034    28.850     8.808
    61   1 H        0.926     0.064     2.152     2.294
    62   1 H        0.926     0.059     2.211     2.325
    63   1 H        0.926     0.061     2.186     2.312
    64   1 H        0.926     0.022     2.701     2.570
    65   1 H        0.926     0.038     2.480     2.463
    66   1 H        0.926     0.040     2.443     2.444
    67   1 H        0.926     0.034     2.533     2.489
    68   1 H        0.926     0.035     2.511     2.478
    69   1 H        0.926     0.028     2.609     2.526
    70   1 H        0.926     0.044     2.403     2.424
    71   1 H        0.926     0.031     2.570     2.507
    72   1 H        0.926     0.030     2.586     2.515
    73   1 H        0.926     0.026     2.649     2.545
    74   1 H        0.926     0.038     2.479     2.462
    75   1 H        0.926     0.038     2.469     2.457
    76   1 H        0.926     0.038     2.477     2.461
    77   1 H        0.926     0.039     2.466     2.456
    78   1 H        0.926     0.043     2.415     2.430
    79   1 H        0.926     0.053     2.281     2.362
    80   1 H        0.926     0.038     2.473     2.459
    81   1 H        0.926     0.035     2.512     2.479
    82   1 H        0.926     0.034     2.527     2.486
    83   1 H        0.926     0.042     2.428     2.437
    84   1 H        0.926     0.050     2.317     2.380
    85   1 H        0.926     0.053     2.289     2.366
    86   1 H        0.926     0.032     2.551     2.498
    87   1 H        0.926     0.030     2.584     2.514
    88   1 H        0.926     0.032     2.556     2.500
    89   1 H        0.926     0.037     2.495     2.470
    90   1 H        0.926     0.031     2.570     2.507
    91   1 H        0.926     0.029     2.603     2.523
    92   1 H        0.926     0.022     2.700     2.569
    93   1 H        0.926     0.064     2.149     2.293

molecular dipole:
                 x           y           z       tot (Debye)
 q only:       -1.173      -0.995       0.886
   full:       -1.113      -1.904       0.819       5.979

 projected vibrational frequencies (cm⁻¹)
eigval :       -0.00    -0.00    -0.00    -0.00     0.00     0.00
eigval :        6.84     7.24     9.06    16.43    17.92    22.47
eigval :       26.67    28.88    39.60    43.95    46.48    57.84
eigval :       60.51    68.01    70.72    75.33    82.82    84.39
eigval :       92.86    94.02    99.37   110.70   116.59   128.67
eigval :      139.75   174.87   182.00   191.09   196.82   208.13
eigval :      210.35   223.53   234.32   242.63   254.37   262.66
eigval :      262.88   276.98   300.70   311.87   320.50   334.05
eigval :      340.26   344.88   351.13   370.40   372.56   378.71
eigval :      379.75   381.28   383.75   398.05   400.66   403.81
eigval :      413.21   421.55   435.61   436.74   440.43   445.49
eigval :      458.14   477.15   482.39   488.57   508.02   516.54
eigval :      518.71   524.99   534.23   536.21   547.09   549.93
eigval :      563.98   580.87   584.36   592.83   597.69   598.15
eigval :      599.44   606.57   609.99   614.41   636.88   645.38
eigval :      645.71   658.92   660.25   668.33   670.35   679.19
eigval :      681.08   684.95   690.82   699.02   702.28   709.99
eigval :      714.84   716.87   735.08   735.22   763.93   765.95
eigval :      770.23   774.85   783.19   789.18   802.85   805.13
eigval :      821.48   826.25   840.49   864.16   867.86   869.13
eigval :      870.50   872.84   875.90   878.12   879.41   883.91
eigval :      887.30   898.38   903.75   904.67   909.65   915.36
eigval :      915.68   920.25   921.99   924.53   924.92   926.74
eigval :      928.06   929.37   930.12   932.65   933.59   935.17
eigval :      938.73   950.48   956.28   970.72   987.78  1004.38
eigval :     1014.49  1026.63  1027.39  1030.68  1060.76  1067.40
eigval :     1070.65  1078.39  1080.29  1084.99  1085.38  1091.86
eigval :     1108.18  1116.73  1126.93  1133.97  1134.13  1135.02
eigval :     1136.40  1139.68  1148.67  1151.23  1171.17  1174.99
eigval :     1180.81  1182.60  1184.04  1185.48  1189.64  1195.04
eigval :     1200.09  1202.44  1207.16  1208.17  1235.53  1255.17
eigval :     1260.69  1260.85  1263.63  1268.58  1270.79  1274.52
eigval :     1275.87  1279.46  1283.44  1293.17  1298.50  1314.19
eigval :     1314.86  1316.83  1317.86  1320.37  1321.26  1324.34
eigval :     1331.28  1339.34  1346.37  1363.11  1370.96  1376.88
eigval :     1389.35  1399.36  1408.61  1411.71  1413.48  1416.90
eigval :     1427.97  1434.70  1436.58  1442.28  1459.32  1471.99
eigval :     1477.90  1481.73  1489.10  1505.22  1514.33  1519.30
eigval :     1535.44  1548.40  1554.11  1559.70  1565.17  1567.58
eigval :     1573.45  1577.83  1583.22  1587.69  1590.73  1591.15
eigval :     1594.66  1595.71  1597.37  1604.69  1605.66  1616.57
eigval :     3074.29  3074.40  3074.62  3075.33  3076.71  3078.06
eigval :     3079.18  3080.17  3081.21  3082.78  3083.32  3085.29
eigval :     3085.88  3087.83  3088.36  3088.96  3090.63  3090.67
eigval :     3091.61  3091.96  3093.00  3094.75  3098.43  3100.82
eigval :     3102.52  3102.91  3105.21  3105.92  3106.29  3106.37
eigval :     3108.85  3112.18  3112.50

   temp. (K)  partition function   enthalpy   heat capacity  entropy
                                   cal/mol     cal/K/mol   cal/K/mol   J/K/mol
 298.15  VIB  0.278E+24            28007.573    173.477    177.470
         ROT  0.236E+09              888.752      2.981     41.294
         INT  0.656E+32            28896.325    176.458    218.763
         TR   0.212E+29             1481.254      4.968     45.831
         TOT                       30377.5793   181.4265   264.5944  1107.0632

       T/K    H(0)-H(T)+PV         H(T)/Eh          T*S/Eh         G(T)/Eh
   ------------------------------------------------------------------------
    298.15    0.484098E-01    0.743214E+00    0.125717E+00    0.617497E+00
   ------------------------------------------------------------------------

         :::::::::::::::::::::::::::::::::::::::::::::::::::::
         ::                  THERMODYNAMIC                  ::
         :::::::::::::::::::::::::::::::::::::::::::::::::::::
         :: total free energy        -155.690445601897 Eh   ::
         ::.................................................::
         :: total energy             -156.307942168845 Eh   ::
         :: zero point energy           0.694804171245 Eh   ::
         :: G(RRHO) w/o ZPVE           -0.077307604296 Eh   ::
         :: G(RRHO) contrib.            0.617496566949 Eh   ::
         :::::::::::::::::::::::::::::::::::::::::::::::::::::

           -------------------------------------------------
          | TOTAL ENERGY             -156.307942168845 Eh   |
          | TOTAL ENTHALPY           -155.564728243649 Eh   |
          | TOTAL FREE ENERGY        -155.690445601897 Eh   |
          | GRADIENT NORM               0.000046546555 Eh/α |
          | HOMO-LUMO GAP               2.437741173591 eV   |
           -------------------------------------------------

 * finished run on 2025/07/18 at 15:32:26.600
