   * xtb version 6.7.1 (edcfbbe) compiled by 'albert@albert-system' on 2024-07-22

   ID    Z sym.   atoms
    1    6 C      1-4, 6-24, 26-35, 37-40, 42-47, 49-62
    2    7 N      5, 25, 41
    3    8 O      36, 48
    4    1 H      63-101

          program call               : xtb data2507/gas/CDBP-BP-PXZ/CDBP-BP-PXZ_gas_T1_crest.xyz --gfn 2 --spinpol --tblite --uhf 2 --ohess vtight --parallel 40 --molden --ceasefiles --namespace data2507/gas/CDBP-BP-PXZ/CDBP-BP-PXZ_gas_T1_finalOpt
 * total energy  :  -158.8747998 Eh     change       -0.3190436E-07 Eh
 * total energy  :  -158.8748571 Eh     change       -0.5734897E-04 Eh
 * total energy  :  -158.8748769 Eh     change       -0.1977750E-04 Eh
 * total energy  :  -158.8748794 Eh     change       -0.2458351E-05 Eh
 * total energy  :  -158.8748820 Eh     change       -0.2587440E-05 Eh
 * total energy  :  -158.8748843 Eh     change       -0.2321017E-05 Eh
 * total energy  :  -158.8748868 Eh     change       -0.2516512E-05 Eh
 * total energy  :  -158.8748885 Eh     change       -0.1669520E-05 Eh
 * total energy  :  -158.8748897 Eh     change       -0.1224167E-05 Eh
 * total energy  :  -158.8748906 Eh     change       -0.9098219E-06 Eh
 * total energy  :  -158.8749019 Eh     change       -0.3073555E-06 Eh
 * total energy  :  -158.8749021 Eh     change       -0.2129744E-06 Eh
 * total energy  :  -158.8749024 Eh     change       -0.2563634E-06 Eh
 * total energy  :  -158.8749025 Eh     change       -0.1606071E-06 Eh
 * total energy  :  -158.8749028 Eh     change       -0.2146976E-06 Eh
 * total energy  :  -158.8749030 Eh     change       -0.2653200E-06 Eh
 * total energy  :  -158.8749033 Eh     change       -0.2917334E-06 Eh
 * total energy  :  -158.8749035 Eh     change       -0.2280342E-06 Eh
 * total energy  :  -158.8749036 Eh     change       -0.6995950E-07 Eh
   *** GEOMETRY OPTIMIZATION CONVERGED AFTER 44 ITERATIONS ***

 final structure:
================
101
 xtb: 6.7.1 (edcfbbe)
C            5.51871190531185       -1.34664768612857       -1.84958999336433
C            6.34838595749417       -0.66653183680923       -0.80329410759481
C            7.70063310735229       -0.94362448070844       -0.68503288783627
C            8.47870720525102       -0.32216228033912        0.28631717448458
N            9.84397378915792       -0.62327472831790        0.39096653588021
C           10.87199884877744        0.29640722410951        0.43587475390942
C           10.82491288698198        1.68012154857903        0.34204181016973
C           12.02045053982750        2.37095335707546        0.39001325613150
C           13.23912261281042        1.70834243271051        0.51940075987595
C           13.29421583651662        0.33060226267611        0.58920396700803
C           12.10587021487644       -0.38607037061823        0.54309941181050
C           11.79526021464457       -1.78793746128044        0.56873543475566
C           12.56844388751107       -2.93625703239567        0.67612031574276
C           11.93366527949718       -4.16215489887099        0.69180615315321
C           10.54531396040367       -4.25101886453642        0.61700190619717
C            9.75460751574979       -3.12314621592873        0.50957459421145
C           10.38829963536002       -1.88922571645216        0.46942915404854
C            7.89446537447575        0.59847159665127        1.14930365518675
C            6.55011493990323        0.88998171337765        1.02532932251297
C            5.76901071338582        0.26577595212558        0.06155658680579
C            4.32824398308892        0.59187752983287       -0.03941133715196
C            3.38722550739377       -0.25795338904801        0.52789113964571
C            2.03806837475195        0.02723623640974        0.45871528316250
C            1.61238333997542        1.17638392327727       -0.20036201126403
N            0.24824561531384        1.47694695052067       -0.28717323660684
C           -0.33309862154053        2.69227345146827        0.01205763071128
C            0.24548430706003        3.85176703770455        0.50907698695104
C           -0.58096706064480        4.93218198169102        0.75496644047795
C           -1.95242106784245        4.86591476980577        0.52385306335655
C           -2.53795712746992        3.70592784424315        0.05238260624629
C           -1.72886326907071        2.60915721033054       -0.20335362949052
C           -1.99270666283404        1.27085912915839       -0.66054794162425
C           -3.14883215638939        0.62147890457594       -1.05455234631125
C           -3.06591892411271       -0.71586854872834       -1.45126149178442
C           -4.24453438488026       -1.47223923485636       -1.88884231785743
O           -4.09246352074874       -2.34247070832130       -2.80039034789529
C           -5.53241501893919       -1.23330430839268       -1.30727142061252
C           -6.67044039370250       -1.76834782232938       -1.96394809109399
C           -7.92866701083539       -1.58981609946147       -1.45993144597933
C           -8.11212065101519       -0.89207204911265       -0.25925243918266
N           -9.41435565070250       -0.69200835149100        0.26556961159492
C          -10.15146327084986       -1.76223375042666        0.74276402119602
C           -9.64333496855214       -3.06057275678213        0.76045262898084
C          -10.40934461955617       -4.10760767453286        1.23739283336386
C          -11.69119135126939       -3.88255604676871        1.71216994661143
C          -12.20559888371950       -2.59660092729977        1.72258567663196
C          -11.44541907850201       -1.54122775073680        1.24779937879533
O          -11.99990209138907       -0.29307740224242        1.30310441333355
C          -11.25623076144207        0.75455061982909        0.83721201353861
C          -11.82725566056700        2.01481809116232        0.89300556727609
C          -11.13252016902597        3.11376602789297        0.41559278134319
C           -9.86991471397890        2.94644770117738       -0.12924248580546
C           -9.29147283036094        1.69249019500930       -0.18806855356044
C           -9.96634537842339        0.57686516918781        0.30578760063337
C           -6.99781192334444       -0.41004809967228        0.43607112175717
C           -5.73487576829762       -0.58399442723713       -0.06858560770610
C           -1.80452356975648       -1.33667114778928       -1.54669740944914
C           -0.64681265078849       -0.69772732614909       -1.16867511512145
C           -0.74433374859220        0.60615011468072       -0.69385114936461
C            2.55250038881935        2.02503354067982       -0.77757710596486
C            3.90760077858693        1.75022170850711       -0.69863407677517
C            4.91042963578381        2.67486776240184       -1.31963335612284
H            6.14817944922694       -1.88890796467930       -2.55056341865442
H            4.83100181569534       -2.05304288445935       -1.38540324187687
H            4.91940605152471       -0.62151629143553       -2.39781313306813
H            8.16705629816271       -1.64193004932192       -1.36484904877162
H            9.88676373350819        2.20133227317920        0.22413649686167
H           12.01022536095620        3.44891949174428        0.32211198735451
H           14.15157953262480        2.28472879994486        0.55603804772998
H           14.23963404663231       -0.18380482521158        0.67360347900467
H           13.64325893448390       -2.86635609086651        0.74997348246063
H           12.51658419786711       -5.06761555914993        0.77225854079021
H           10.07619089063068       -5.22347361380156        0.64725853046147
H            8.67856247843624       -3.20129112059449        0.47019417444267
H            8.49018368601904        1.06800270606756        1.91722196356537
H            6.09006541736318        1.60163730072406        1.69578502797148
H            3.72325050213854       -1.14607528091090        1.04346950956617
H            1.31402244472129       -0.62410779112388        0.92374656423695
H            1.30479823320314        3.90791729202161        0.70922595047288
H           -0.15329512852500        5.84677561672492        1.13871238047402
H           -2.56468005882960        5.73199020146381        0.72689065062429
H           -3.60381644187746        3.64847510872419       -0.10995791289288
H           -4.08724906873222        1.15283349209842       -1.08578750501913
H           -6.50920084426413       -2.30168093620226       -2.88822298948488
H           -8.79307116567323       -1.97142243038846       -1.98473096490290
H           -8.64206681366901       -3.23707532383110        0.40175324866026
H           -9.99804726494000       -5.10486237512974        1.23936105151527
H          -12.28875558292898       -4.70064272269618        2.08158071350284
H          -13.19406748632411       -2.38741467798114        2.09880733676475
H          -12.81701758996350        2.11065692362070        1.30954617112371
H          -11.58200111439939        4.09280315595213        0.46313686101673
H           -9.32963078930084        3.79660879901763       -0.51545351642830
H           -8.31342956524587        1.56263406154717       -0.62271610261890
H           -7.14467364862422        0.08333245804150        1.38708112622212
H           -4.88538948951390       -0.25428971820127        0.50957370529589
H           -1.76949713162694       -2.34913447055794       -1.91830411908317
H            0.30845246628687       -1.19430936113824       -1.24879721473666
H            2.21274841712483        2.90111933033716       -1.31071620263482
H            5.46089965699930        3.20883890937728       -0.54532403808741
H            4.41977829294736        3.40471780306528       -1.95862076404778
H            5.63584172427039        2.11687290173466       -1.90940627667856

 projected vibrational frequencies (cm⁻¹)
eigval :       -0.00    -0.00    -0.00    -0.00     0.00     0.00
eigval :        4.88     7.36     7.80    12.50    15.62    17.14
eigval :       31.10    35.44    39.39    43.22    46.21    51.48
eigval :       62.17    62.55    67.10    71.66    78.36    89.64
eigval :       93.40   101.00   104.42   113.84   118.66   129.48
eigval :      134.83   142.45   154.72   164.87   178.19   182.50
eigval :      193.75   210.18   213.08   217.64   230.56   236.39
eigval :      242.61   246.56   259.63   270.18   271.83   278.88
eigval :      295.11   301.20   309.56   332.87   335.16   358.92
eigval :      365.17   380.99   385.00   388.67   395.25   398.38
eigval :      402.00   407.60   414.53   419.93   422.90   427.06
eigval :      429.82   431.58   437.84   445.38   457.88   465.77
eigval :      471.04   483.29   490.44   500.18   504.48   513.34
eigval :      519.35   528.55   529.41   537.70   539.28   541.00
eigval :      542.08   550.42   566.48   575.00   583.43   588.25
eigval :      591.33   597.29   600.30   608.04   619.02   622.93
eigval :      628.89   650.40   657.07   667.21   670.27   671.55
eigval :      673.83   679.32   692.28   694.90   698.75   703.64
eigval :      708.99   717.20   734.61   756.06   769.44   773.47
eigval :      776.88   778.73   780.56   789.97   794.39   806.40
eigval :      815.12   834.14   836.05   838.01   841.54   841.98
eigval :      855.69   865.51   867.46   867.75   868.35   873.79
eigval :      874.61   883.90   891.86   892.07   898.84   898.90
eigval :      900.57   902.49   902.67   903.94   905.09   905.58
eigval :      908.62   913.88   917.39   918.46   919.60   921.24
eigval :      922.63   922.99   924.99   926.89   946.66   991.37
eigval :      995.28   996.13   997.91  1011.41  1019.01  1024.42
eigval :     1028.22  1030.84  1033.98  1070.05  1071.63  1073.36
eigval :     1083.44  1084.90  1113.40  1114.34  1118.38  1120.32
eigval :     1127.35  1129.62  1144.04  1150.95  1152.43  1154.88
eigval :     1163.27  1171.68  1173.08  1173.44  1176.72  1181.43
eigval :     1181.72  1183.88  1188.57  1205.30  1207.83  1215.14
eigval :     1219.59  1230.28  1236.58  1236.93  1239.06  1243.19
eigval :     1245.57  1252.24  1253.24  1254.74  1256.76  1269.71
eigval :     1291.58  1301.35  1303.11  1304.32  1305.78  1311.34
eigval :     1313.13  1313.73  1318.88  1331.25  1344.27  1347.87
eigval :     1353.02  1357.74  1361.13  1364.15  1376.92  1405.31
eigval :     1409.25  1410.09  1413.09  1413.72  1417.53  1418.26
eigval :     1420.02  1427.91  1432.22  1440.61  1441.89  1442.63
eigval :     1444.28  1455.59  1465.47  1473.92  1475.53  1477.11
eigval :     1477.45  1478.87  1479.48  1486.35  1487.19  1488.58
eigval :     1509.96  1532.28  1553.99  1555.34  1560.36  1560.80
eigval :     1563.94  1573.39  1574.63  1575.39  1584.04  1585.86
eigval :     1588.75  1594.37  1597.54  1598.81  1600.44  1612.93
eigval :     3004.34  3005.91  3025.16  3025.48  3044.35  3045.03
eigval :     3065.10  3070.55  3075.74  3076.00  3076.29  3077.44
eigval :     3078.35  3080.91  3081.35  3082.05  3082.97  3083.42
eigval :     3083.92  3088.06  3088.79  3089.62  3089.67  3093.34
eigval :     3094.91  3095.29  3095.91  3096.06  3096.25  3096.75
eigval :     3097.57  3097.81  3103.99  3104.66  3105.01  3113.89
eigval :     3114.29  3116.31  3116.45

   temp. (K)  partition function   enthalpy   heat capacity  entropy
                                   cal/mol     cal/K/mol   cal/K/mol   J/K/mol
 298.15  VIB  0.786E+25            29978.626    186.603    189.725
         ROT  0.290E+09              888.752      2.981     41.704
         INT  0.228E+34            30867.379    189.584    231.429
         TR   0.218E+29             1481.254      4.968     45.888
         TOT                       32348.6325   194.5519   277.3169  1160.2941

       T/K    H(0)-H(T)+PV         H(T)/Eh          T*S/Eh         G(T)/Eh
   ------------------------------------------------------------------------
    298.15    0.515508E-01    0.824966E+00    0.131762E+00    0.693203E+00
   ------------------------------------------------------------------------

         :::::::::::::::::::::::::::::::::::::::::::::::::::::
         ::                  THERMODYNAMIC                  ::
         :::::::::::::::::::::::::::::::::::::::::::::::::::::
         :: total free energy        -158.181700224085 Eh   ::
         ::.................................................::
         :: total energy             -158.874903600178 Eh   ::
         :: zero point energy           0.773414776234 Eh   ::
         :: G(RRHO) w/o ZPVE           -0.080211400140 Eh   ::
         :: G(RRHO) contrib.            0.693203376094 Eh   ::
         :::::::::::::::::::::::::::::::::::::::::::::::::::::

           -------------------------------------------------
          | TOTAL ENERGY             -158.874903600178 Eh   |
          | TOTAL ENTHALPY           -158.049937996632 Eh   |
          | TOTAL FREE ENERGY        -158.181700224085 Eh   |
          | GRADIENT NORM               0.000072082529 Eh/α |
           -------------------------------------------------

 * finished run on 2025/09/09 at 06:43:33.149
