   * xtb version 6.7.1 (edcfbbe) compiled by 'albert@albert-system' on 2024-07-22

   ID    Z sym.   atoms
    1    6 C      1-4, 6-24, 26-35, 37-40, 42-47, 49-62
    2    7 N      5, 25, 41
    3    8 O      36, 48
    4    1 H      63-101

          program call               : xtb data2507/gas/CDBP-BP-PXZ/CDBP-BP-PXZ_gas_S0_finalOpt.xtbopt.xyz --gfn 2 --spinpol --tblite --uhf 2 --ohess vtight --parallel 40 --molden --ceasefiles --namespace data2507/gas/CDBP-BP-PXZ/CDBP-BP-PXZ_gas_T1_preOpt
 * total energy  :  -158.8676045 Eh     change       -0.2529859E-07 Eh
 * total energy  :  -158.8714295 Eh     change       -0.3825023E-02 Eh
 * total energy  :  -158.8725359 Eh     change       -0.1106351E-02 Eh
 * total energy  :  -158.8727394 Eh     change       -0.2035764E-03 Eh
 * total energy  :  -158.8729380 Eh     change       -0.1986020E-03 Eh
 * total energy  :  -158.8730938 Eh     change       -0.1557865E-03 Eh
 * total energy  :  -158.8732301 Eh     change       -0.1363075E-03 Eh
 * total energy  :  -158.8733074 Eh     change       -0.7725463E-04 Eh
 * total energy  :  -158.8733561 Eh     change       -0.4874408E-04 Eh
 * total energy  :  -158.8734082 Eh     change       -0.5210885E-04 Eh
 * total energy  :  -158.8748939 Eh     change       -0.8404728E-06 Eh
 * total energy  :  -158.8748945 Eh     change       -0.6114026E-06 Eh
 * total energy  :  -158.8748951 Eh     change       -0.5978253E-06 Eh
 * total energy  :  -158.8748956 Eh     change       -0.4814473E-06 Eh
 * total energy  :  -158.8748961 Eh     change       -0.4675423E-06 Eh
 * total energy  :  -158.8748966 Eh     change       -0.5549603E-06 Eh
 * total energy  :  -158.8748971 Eh     change       -0.5097982E-06 Eh
 * total energy  :  -158.8748979 Eh     change       -0.7996229E-06 Eh
 * total energy  :  -158.8748980 Eh     change       -0.3518491E-07 Eh
   *** GEOMETRY OPTIMIZATION CONVERGED AFTER 94 ITERATIONS ***

 final structure:
================
101
 xtb: 6.7.1 (edcfbbe)
C            5.50818207848673       -1.58367900961049       -1.67499480539438
C            6.34489566040381       -0.78646587868046       -0.72097630029596
C            7.69724171136037       -1.05214420494179       -0.57846676790777
C            8.48324447839774       -0.32194758326337        0.30690930605483
N            9.84808756937902       -0.61394466663528        0.44009624284903
C           10.87971483744707        0.30000693647640        0.36965418857215
C           10.83777350781148        1.66155120479832        0.10483641249614
C           12.03607104050823        2.34813497200253        0.06512241549028
C           13.25239108606506        1.70181196826238        0.27446267973603
C           13.30229879896789        0.34320043896513        0.51486349992201
C           12.11113314460281       -0.36885283381776        0.55934200040160
C           11.79510158027047       -1.75540490492613        0.75919122130667
C           12.56393156324340       -2.88450425404310        1.00813546230915
C           11.92440468414365       -4.09639971546907        1.17653328501683
C           10.53566583660177       -4.18841655938603        1.11368293493441
C            9.74921645908715       -3.07949476119845        0.86737165222083
C           10.38760901213694       -1.86256647711640        0.67440527004562
C            7.90707695312109        0.69778430050784        1.05657663725165
C            6.56263992707409        0.97636857104517        0.90741009843591
C            5.77311211419174        0.24363281501066        0.03052981477903
C            4.33227826420294        0.55975353235673       -0.09757211358074
C            3.39223000863428       -0.22802319972872        0.55479546010801
C            2.04313312389963        0.05143148232739        0.46371387315947
C            1.61615573991476        1.13122398954729       -0.30300369504247
N            0.25237123711590        1.42633180835485       -0.41234700418927
C           -0.32282299692525        2.66781874975110       -0.23199185036732
C            0.26203526944069        3.86752803591269        0.14862519430285
C           -0.55904749663453        4.97062440759132        0.28942470471669
C           -1.93129655906194        4.88863433986049        0.06828190513410
C           -2.52303557662393        3.69099557059977       -0.28693983949527
C           -1.71935896369785        2.57082526493660       -0.43599773361472
C           -1.99020520351469        1.19584143020067       -0.76093561079721
C           -3.15006634800755        0.51783497600125       -1.09020728674775
C           -3.07465460820556       -0.85179232196069       -1.35713792496733
C           -4.25687153874010       -1.63951764180266       -1.72307936143199
O           -4.10833545791787       -2.59611821427080       -2.54425387286966
C           -5.54574916633487       -1.33567443434687       -1.17440580029375
C           -6.68481790116729       -1.92183190178191       -1.78384906037973
C           -7.94415996223245       -1.68529537610304       -1.30726703840749
C           -8.12812146717369       -0.87421348913489       -0.18007179381337
N           -9.43164188814012       -0.61474753484547        0.31461819437437
C          -10.18219970358399       -1.63022941255108        0.88213005656852
C           -9.68494687410922       -2.92487238753587        1.02661973991754
C          -10.46446828129108       -3.91732983926841        1.59040927964639
C          -11.74946480498440       -3.63986430925410        2.02743543638863
C          -12.25314912772588       -2.35474636548913        1.91267918826341
C          -11.47920985639118       -1.35363464068665        1.35062336811917
O          -12.02348047765088       -0.10152407978194        1.28436648527786
C          -11.26598464100511        0.89289230013947        0.73210990841670
C          -11.82624066933534        2.15751854629633        0.66647236914028
C          -11.11762478338565        3.20233746354884        0.09685973682495
C           -9.85195369397099        2.97538455537583       -0.41846414572093
C           -9.28413111757193        1.71673626806612       -0.35619036005653
C           -9.97293483118957        0.65675931859228        0.23200060079409
C           -7.01335385559929       -0.33742604137248        0.47310202972733
C           -5.74922351052493       -0.56938482118551       -0.00468611395455
C           -1.81648163286131       -1.48563878667835       -1.39151735614468
C           -0.65507360041704       -0.81947340201020       -1.07708083628739
C           -0.74508923583138        0.52484763356989       -0.73098055362092
C            2.55507047538510        1.91619459099251       -0.96598518603469
C            3.91007542907691        1.64747719024787       -0.86707464100615
C            4.91048563092036        2.50207727694024       -1.58482666324428
H            4.84488515039039       -2.25243875789299       -1.12695617370322
H            4.88346129468611       -0.92883393464870       -2.28013140751145
H            6.13446567302978       -2.18297146513032       -2.33098732981534
H            8.15733583206522       -1.82824370426328       -1.17289708786683
H            9.90133562651951        2.16777886263625       -0.07555149464957
H           12.02997512058874        3.40932573623207       -0.13627593940247
H           14.16714174006707        2.27458233213295        0.23816722198025
H           14.24586379039069       -0.16051171671012        0.66157215109259
H           13.63908779440938       -2.81023231750544        1.07218576204811
H           12.50388298852441       -4.98709217207839        1.36890419458263
H           10.06284031836682       -5.14774798921827        1.26460718621307
H            8.67284712350695       -3.15765608893078        0.83819656754063
H            8.50928825921030        1.25441554410442        1.75841947662127
H            6.10892270415723        1.76420982326858        1.49139713231083
H            3.72905148780634       -1.06137257540885        1.15439758734856
H            1.32031468688562       -0.54982755054962        0.99359762571518
H            1.32204391997274        3.93799952941083        0.34041286811339
H           -0.12645120663276        5.91627400576417        0.58139560534393
H           -2.53920610792777        5.77324042164911        0.18700934047255
H           -3.58947176282846        3.62287086626012       -0.44118918055497
H           -4.08543070730856        1.04912245678406       -1.17236489352834
H           -6.52328561758231       -2.54257698143638       -2.65178287851381
H           -8.80901890625631       -2.10818740425935       -1.79860509811283
H           -8.68143104031800       -3.14129691897749        0.69727895552400
H          -10.06132676197296       -4.91294287702848        1.68998456683774
H          -12.35777517759124       -4.41572795663700        2.46424639062095
H          -13.24374107736304       -2.10426776610791        2.25671388812047
H          -12.81879318584808        2.29913304532281        1.06284394542579
H          -11.55877508122868        4.18519493789610        0.05008157737473
H           -9.30089767083123        3.78197109890537       -0.87628415263685
H           -8.30362627597233        1.53962915422515       -0.76799374992985
H           -7.16089283607314        0.24557657379169        1.37185719185065
H           -4.90001974948411       -0.19327015162584        0.54485662747427
H           -1.78701653961530       -2.52938075958372       -1.66382374954561
H            0.29738578559083       -1.32677999333191       -1.10896213027022
H            2.21418101954195        2.73589850936970       -1.58168795181964
H            5.46320291536341        3.11496664816482       -0.87314724832084
H            4.41721149124339        3.16045948347471       -2.29542794373926
H            5.63401886095342        1.88501743024070       -2.11505778702533

 projected vibrational frequencies (cm⁻¹)
eigval :       -0.00    -0.00    -0.00    -0.00     0.00     0.00
eigval :        5.05     7.22     7.64    12.49    15.59    17.12
eigval :       31.11    35.42    39.17    43.13    46.19    50.73
eigval :       62.01    62.62    66.63    72.18    78.59    90.62
eigval :       93.48   100.82   104.31   113.95   118.56   129.75
eigval :      134.93   142.36   154.95   164.84   178.31   182.91
eigval :      193.48   210.23   213.02   217.67   230.56   236.41
eigval :      242.68   246.61   259.70   270.07   271.74   278.88
eigval :      295.16   301.41   309.08   333.08   334.98   359.25
eigval :      365.40   381.04   385.00   388.69   395.25   398.74
eigval :      402.11   407.41   414.49   419.73   423.03   426.94
eigval :      429.61   431.59   437.79   445.29   457.93   465.91
eigval :      470.99   483.66   490.71   500.15   504.43   513.28
eigval :      519.32   528.42   529.39   537.68   539.13   540.96
eigval :      542.10   550.39   566.62   575.14   583.45   588.24
eigval :      591.29   597.34   600.27   607.93   618.82   622.99
eigval :      628.83   650.51   656.85   667.20   670.13   671.54
eigval :      673.79   679.29   692.13   694.64   698.96   703.62
eigval :      708.97   716.87   734.46   756.04   769.28   773.36
eigval :      776.79   778.64   780.41   789.94   794.45   806.29
eigval :      814.99   834.14   835.98   837.93   841.48   841.93
eigval :      855.66   865.38   867.38   867.62   868.21   873.62
eigval :      874.56   883.93   891.75   892.01   898.78   898.92
eigval :      900.48   902.38   902.59   903.81   904.90   905.40
eigval :      908.62   913.87   917.29   918.36   919.55   921.11
eigval :      922.69   922.78   924.76   926.77   946.66   991.27
eigval :      995.20   996.06   997.80  1011.41  1018.99  1024.52
eigval :     1028.13  1030.81  1033.79  1069.93  1071.52  1073.23
eigval :     1083.38  1084.88  1113.25  1114.31  1118.43  1120.12
eigval :     1127.18  1129.68  1144.05  1150.84  1152.38  1154.78
eigval :     1162.75  1171.86  1173.21  1173.30  1176.67  1181.31
eigval :     1181.66  1183.76  1188.38  1205.27  1207.66  1216.01
eigval :     1219.54  1230.24  1236.51  1236.90  1238.97  1243.33
eigval :     1245.46  1252.29  1253.67  1254.83  1256.69  1269.61
eigval :     1291.48  1301.28  1302.97  1304.26  1305.49  1311.32
eigval :     1312.98  1313.67  1318.78  1331.29  1344.10  1348.53
eigval :     1352.97  1357.69  1361.16  1364.12  1376.87  1405.21
eigval :     1409.11  1409.75  1413.11  1413.62  1417.22  1418.27
eigval :     1419.72  1427.92  1432.03  1440.34  1441.65  1442.57
eigval :     1444.35  1455.92  1465.27  1473.84  1475.54  1477.12
eigval :     1477.33  1479.16  1479.42  1486.07  1486.95  1488.62
eigval :     1509.88  1532.08  1553.97  1555.21  1560.11  1560.68
eigval :     1563.95  1573.09  1574.62  1575.47  1583.88  1586.16
eigval :     1588.75  1594.10  1597.43  1598.65  1600.26  1612.96
eigval :     3004.59  3005.32  3025.34  3026.25  3044.18  3044.57
eigval :     3065.05  3070.58  3075.68  3075.98  3076.26  3077.42
eigval :     3078.50  3080.83  3081.30  3081.98  3082.92  3083.34
eigval :     3083.85  3087.97  3088.77  3089.62  3089.69  3093.43
eigval :     3094.86  3095.26  3095.89  3095.97  3096.23  3096.75
eigval :     3097.58  3097.76  3103.83  3104.69  3105.01  3113.92
eigval :     3114.31  3116.37  3116.57

   temp. (K)  partition function   enthalpy   heat capacity  entropy
                                   cal/mol     cal/K/mol   cal/K/mol   J/K/mol
 298.15  VIB  0.799E+25            29978.995    186.593    189.711
         ROT  0.290E+09              888.752      2.981     41.701
         INT  0.231E+34            30867.748    189.574    231.412
         TR   0.218E+29             1481.254      4.968     45.888
         TOT                       32349.0014   194.5421   277.2995  1160.2213

       T/K    H(0)-H(T)+PV         H(T)/Eh          T*S/Eh         G(T)/Eh
   ------------------------------------------------------------------------
    298.15    0.515514E-01    0.824942E+00    0.131754E+00    0.693188E+00
   ------------------------------------------------------------------------

         :::::::::::::::::::::::::::::::::::::::::::::::::::::
         ::                  THERMODYNAMIC                  ::
         :::::::::::::::::::::::::::::::::::::::::::::::::::::
         :: total free energy        -158.181710117957 Eh   ::
         ::.................................................::
         :: total energy             -158.874897951242 Eh   ::
         :: zero point energy           0.773390381542 Eh   ::
         :: G(RRHO) w/o ZPVE           -0.080202548257 Eh   ::
         :: G(RRHO) contrib.            0.693187833285 Eh   ::
         :::::::::::::::::::::::::::::::::::::::::::::::::::::

           -------------------------------------------------
          | TOTAL ENERGY             -158.874897951242 Eh   |
          | TOTAL ENTHALPY           -158.049956154508 Eh   |
          | TOTAL FREE ENERGY        -158.181710117957 Eh   |
          | GRADIENT NORM               0.000069672512 Eh/α |
           -------------------------------------------------

 * finished run on 2025/09/09 at 06:29:13.224
