   * xtb version 6.7.1 (edcfbbe) compiled by 'albert@albert-system' on 2024-07-22

   ID    Z sym.   atoms
    1    6 C      1-4, 6-24, 26-35, 37-40, 42-47, 49-62
    2    7 N      5, 25, 41
    3    8 O      36, 48
    4    1 H      63-101

          program call               : xtb data2507/gas/CDBP-BP-PXZ/CDBP-BP-PXZ_gas_S0_crest.xyz --gfn 2 --ohess vtight --parallel 40 --molden --ceasefiles --namespace data2507/gas/CDBP-BP-PXZ/CDBP-BP-PXZ_gas_S0_finalOpt
          :  Hamiltonian                  GFN2-xTB          :
 * total energy  :  -158.9550703 Eh     change       -0.2193218E-08 Eh
 * total energy  :  -158.9550711 Eh     change       -0.8371673E-06 Eh
 * total energy  :  -158.9550732 Eh     change       -0.2091433E-05 Eh
 * total energy  :  -158.9550765 Eh     change       -0.3321214E-05 Eh
 * total energy  :  -158.9550795 Eh     change       -0.2967428E-05 Eh
 * total energy  :  -158.9550815 Eh     change       -0.2031603E-05 Eh
 * total energy  :  -158.9550833 Eh     change       -0.1783647E-05 Eh
 * total energy  :  -158.9550857 Eh     change       -0.2394786E-05 Eh
 * total energy  :  -158.9550889 Eh     change       -0.3168758E-05 Eh
 * total energy  :  -158.9550918 Eh     change       -0.2909512E-05 Eh
 * total energy  :  -158.9551205 Eh     change       -0.3330760E-06 Eh
 * total energy  :  -158.9551208 Eh     change       -0.3640943E-06 Eh
 * total energy  :  -158.9551212 Eh     change       -0.3905644E-06 Eh
 * total energy  :  -158.9551216 Eh     change       -0.3875978E-06 Eh
 * total energy  :  -158.9551220 Eh     change       -0.3452839E-06 Eh
 * total energy  :  -158.9551223 Eh     change       -0.3865572E-06 Eh
 * total energy  :  -158.9551228 Eh     change       -0.4948404E-06 Eh
 * total energy  :  -158.9551234 Eh     change       -0.5143227E-06 Eh
 * total energy  :  -158.9551234 Eh     change       -0.6252918E-08 Eh
   *** GEOMETRY OPTIMIZATION CONVERGED AFTER 44 ITERATIONS ***

 final structure:
================
101
 xtb: 6.7.1 (edcfbbe)
C            5.52684589174226       -1.74443573707345       -1.54775731696726
C            6.33714114592934       -0.84236373352832       -0.66688454777546
C            7.69855734312154       -1.04638469299574       -0.51078296960187
C            8.45960359316986       -0.21934415635991        0.30899837264045
N            9.83410953009638       -0.44911105500467        0.45669337950331
C           10.83059139018156        0.49454895253391        0.30759662927570
C           10.73599651172113        1.82914439835449       -0.06004935895819
C           11.90743500791053        2.55428932977189       -0.16366714345976
C           13.14844722231230        1.97108026954590        0.08272397857416
C           13.25066173587748        0.63784577833502        0.42565159440704
C           12.08716310731652       -0.11214756312222        0.53584897939702
C           11.82481702263330       -1.49016760667147        0.84300380036200
C           12.63745147500632       -2.56795137366573        1.16920785346815
C           12.04547518664670       -3.78643645340357        1.43445026071767
C           10.66080914625065       -3.93440185397463        1.39219678704118
C            9.83146013111518       -2.87728950684831        1.07037701412539
C           10.42205340912673       -1.65583244575461        0.77958784121859
C            7.84795626689656        0.83545859881033        0.97784811804674
C            6.49397519136761        1.05252730164316        0.81374142383005
C            5.73043732022466        0.22368501986301        0.00213332801313
C            4.27829551259300        0.47576119075736       -0.14229730743622
C            3.37271215228281       -0.27634823044574        0.59435311291256
C            2.01337004892309       -0.05306244493387        0.49167395846711
C            1.54554759991122        0.93025681144298       -0.37200356565884
N            0.16674127444466        1.16885865625084       -0.49311810814560
C           -0.45091967783087        2.40029977677291       -0.38014797176860
C            0.09752726115970        3.64040463785630       -0.08757416069039
C           -0.76025999888484        4.72095448367830       -0.00936520197945
C           -2.13190659575985        4.57797238354275       -0.20717155536516
C           -2.68591079339221        3.34253984598739       -0.47672052936330
C           -1.84335165448224        2.24228636765115       -0.56236762874757
C           -2.06585478807291        0.84255799315792       -0.79768728791178
C           -3.20184004873005        0.09266506495441       -1.04816908462549
C           -3.06715289123085       -1.27672292832021       -1.25504594721772
C           -4.23103713179181       -2.13669248693193       -1.55496676930099
O           -4.12932629268135       -3.16484682048020       -2.19826261554260
C           -5.54893061037674       -1.68491104633422       -1.03377401927633
C           -6.68918115957255       -1.90827945916382       -1.80269881671386
C           -7.93049295746128       -1.50936492476503       -1.35223319582851
C           -8.05602056510722       -0.90493310405705       -0.10331328612712
N           -9.31985636018362       -0.49161891107037        0.36369709027094
C          -10.34341750883602       -1.42160181517860        0.56713855130435
C          -10.15511857582225       -2.78560015698480        0.38333063837422
C          -11.19249140137782       -3.68078985771174        0.59624001256236
C          -12.43030519844321       -3.23034066184432        1.00745520490293
C          -12.62488158060586       -1.87483918779384        1.22814511652913
C          -11.59344440236555       -0.97858194087626        1.01932681558129
O          -11.85343780029403        0.34181424025733        1.29225923201012
C          -10.83502068938538        1.24076852966018        1.09811490345938
C          -11.11194105299724        2.56744502273866        1.37046474806482
C          -10.14535635327078        3.54143946646200        1.16773055004868
C           -8.90938271605749        3.17862673811632        0.67339131640713
C           -8.62592519193774        1.84887717750721        0.40063665248014
C           -9.57124298126299        0.85680704289343        0.62935296443829
C           -6.92362221878345       -0.71390867434024        0.68555670860028
C           -5.68056395677459       -1.09356809843881        0.22137826302197
C           -1.79382870253534       -1.86900238952993       -1.24561156907736
C           -0.65401258538723       -1.14240350179742       -0.98679736966914
C           -0.79385776870138        0.21976061950832       -0.74353958572787
C            2.44798533733329        1.67969151451210       -1.11824587003315
C            3.81307401858849        1.46864001932326       -1.00865005998936
C            4.77770479994517        2.28680097380602       -1.81188439889366
H            4.87349079595186       -2.37394598849288       -0.94409589440096
H            4.89359608014376       -1.16377837090929       -2.21663345310161
H            6.17234736011362       -2.38767347432516       -2.14032461974158
H            8.18520581598972       -1.85087848943610       -1.04292317907073
H            9.78017758246131        2.28542171448843       -0.26992136130166
H           11.86018939907265        3.59594862740194       -0.44560927059371
H           14.04082568084065        2.57266167200758       -0.00607027358007
H           14.21334237855205        0.18182824100953        0.60121242756315
H           13.70940025833113       -2.44902872939243        1.21740192594627
H           12.65941578634403       -4.63792513532293        1.68774786788647
H           10.22551409193167       -4.89642783129062        1.61969392430789
H            8.75858589684765       -2.99749395340527        1.05787101997962
H            8.43077717717875        1.46795616735014        1.62990057563498
H            6.01295493432473        1.86794068195735        1.33467829315270
H            3.74353821195693       -1.03563911795006        1.26751923599155
H            1.31580607923231       -0.62516063188374        1.08430041063270
H            1.15666733465508        3.75764002889056        0.08445246483535
H           -0.35855150680303        5.69817783828392        0.21396246415243
H           -2.76781961023989        5.44786680778237       -0.13948193696629
H           -3.75037135134294        3.22839405255618       -0.61568948688430
H           -4.16690655883010        0.57196173490488       -1.11304032309862
H           -6.57994647626311       -2.38295914343286       -2.76625886174456
H           -8.80974049129952       -1.65925525434193       -1.96116432979340
H           -9.18821477786067       -3.15442081189211        0.07923916853768
H          -11.01855145051481       -4.73420603460465        0.43977706114256
H          -13.24191884636662       -3.92184867826536        1.16961969081618
H          -13.57290190095612       -1.49098720969334        1.56966619688468
H          -12.09479898559213        2.81843617618139        1.73601202098698
H          -10.36984004535984        4.57347068762532        1.38616197670710
H           -8.15306392766409        3.92659293042174        0.49093657899185
H           -7.66146265733806        1.58222409635903       -0.00215653775581
H           -7.02906685387736       -0.26939817360633        1.66438786457480
H           -4.81028807667949       -0.95734728931066        0.84638641995218
H           -1.73272718332745       -2.92813769651769       -1.44574284979505
H            0.31756978419301       -1.61243775265841       -0.98772918904987
H            2.07280578460840        2.42728810953653       -1.80214590402955
H            5.31165196265122        2.98234605726396       -1.16482696659090
H            4.25764088817975        2.85816622253716       -2.57657596146140
H            5.52060357292374        1.64899604697486       -2.28783648513041

          :  Hamiltonian                  GFN2-xTB          :
         :: gradient norm              0.000056530070 Eh/a0 ::
         :: HOMO-LUMO gap              1.652809792886 eV    ::
         :: SCC energy              -161.827448070171 Eh    ::
         :: -> dispersion             -0.141671908120 Eh    ::
         :: repulsion energy           2.872324710656 Eh    ::

    * Orbital Energies and Occupations

         #    Occupation            Energy/Eh            Energy/eV
      -------------------------------------------------------------
         1        2.0000           -0.7260027             -19.7555
       ...           ...                  ...                  ...
       135        2.0000           -0.4140605             -11.2672
       136        2.0000           -0.4124664             -11.2238
       137        2.0000           -0.4108477             -11.1797
       138        2.0000           -0.4079833             -11.1018
       139        2.0000           -0.4045493             -11.0083
       140        2.0000           -0.4038837             -10.9902
       141        2.0000           -0.3887645             -10.5788
       142        2.0000           -0.3883147             -10.5666
       143        2.0000           -0.3842263             -10.4553
       144        2.0000           -0.3776570             -10.2766
       145        2.0000           -0.3723851             -10.1331
       146        2.0000           -0.3616896              -9.8421
       147        2.0000           -0.3416666              -9.2972 (HOMO)
       148                         -0.2809270              -7.6444 (LUMO)
       149                         -0.2550538              -6.9404
       150                         -0.2466688              -6.7122
       151                         -0.2426339              -6.6024
       152                         -0.2387156              -6.4958
       153                         -0.2374600              -6.4616
       154                         -0.2369942              -6.4489
       155                         -0.2363458              -6.4313
       156                         -0.2333710              -6.3503
       157                         -0.2325417              -6.3278
       158                         -0.2278161              -6.1992
       ...                                ...                  ...
       287                          0.7471171              20.3301
      -------------------------------------------------------------
                  HL-Gap            0.0607396 Eh            1.6528 eV

     #   Z          covCN         q      C6AA      α(0)
     1   6 C        3.758    -0.107    22.602     6.778
     2   6 C        2.969     0.015    27.681     8.630
     3   6 C        2.927    -0.054    29.343     8.883
     4   6 C        2.912     0.061    26.625     8.461
     5   7 N        2.803    -0.044    22.093     6.981
     6   6 C        3.076     0.046    26.878     8.500
     7   6 C        2.910    -0.051    29.274     8.872
     8   6 C        2.924    -0.034    28.842     8.807
     9   6 C        2.920    -0.041    29.022     8.834
    10   6 C        2.913    -0.033    28.819     8.803
    11   6 C        3.068    -0.017    28.369     8.734
    12   6 C        3.068    -0.017    28.370     8.734
    13   6 C        2.913    -0.033    28.819     8.803
    14   6 C        2.920    -0.041    29.021     8.834
    15   6 C        2.924    -0.034    28.840     8.807
    16   6 C        2.910    -0.051    29.274     8.872
    17   6 C        3.076     0.047    26.876     8.500
    18   6 C        2.921    -0.048    29.203     8.862
    19   6 C        2.924    -0.034    28.848     8.808
    20   6 C        2.982    -0.001    28.039     8.686
    21   6 C        2.982     0.002    27.967     8.675
    22   6 C        2.924    -0.033    28.829     8.805
    23   6 C        2.921    -0.048    29.188     8.860
    24   6 C        2.913     0.059    26.680     8.470
    25   7 N        2.804    -0.037    21.956     6.959
    26   6 C        3.079     0.047    26.857     8.496
    27   6 C        2.910    -0.049    29.222     8.864
    28   6 C        2.924    -0.032    28.801     8.801
    29   6 C        2.920    -0.039    28.972     8.827
    30   6 C        2.912    -0.032    28.791     8.799
    31   6 C        3.067    -0.016    28.348     8.731
    32   6 C        3.068    -0.016    28.343     8.730
    33   6 C        2.914    -0.031    28.763     8.794
    34   6 C        2.972    -0.025    28.624     8.776
    35   6 C        2.829     0.224    23.296     7.909
    36   8 O        0.858    -0.380    21.279     6.185
    37   6 C        2.972    -0.013    28.343     8.733
    38   6 C        2.924    -0.019    28.486     8.753
    39   6 C        2.920    -0.040    29.003     8.831
    40   6 C        2.921     0.069    26.452     8.434
    41   7 N        2.751    -0.070    22.603     7.061
    42   6 C        2.922     0.042    27.051     8.529
    43   6 C        2.924    -0.060    29.485     8.905
    44   6 C        2.919    -0.038    28.953     8.824
    45   6 C        2.919    -0.040    28.996     8.830
    46   6 C        2.920    -0.056    29.396     8.891
    47   6 C        2.884     0.124    25.269     8.241
    48   8 O        1.709    -0.255    18.230     5.765
    49   6 C        2.884     0.125    25.258     8.239
    50   6 C        2.920    -0.056    29.401     8.892
    51   6 C        2.919    -0.040    29.006     8.832
    52   6 C        2.919    -0.039    28.969     8.826
    53   6 C        2.924    -0.060    29.496     8.906
    54   6 C        2.922     0.042    27.049     8.529
    55   6 C        2.920    -0.041    29.014     8.833
    56   6 C        2.921    -0.027    28.684     8.783
    57   6 C        2.929    -0.023    28.590     8.769
    58   6 C        2.907    -0.050    29.229     8.865
    59   6 C        3.077     0.052    26.752     8.480
    60   6 C        2.927    -0.053    29.324     8.881
    61   6 C        2.969     0.016    27.658     8.626
    62   6 C        3.758    -0.108    22.610     6.779
    63   1 H        0.925     0.049     2.332     2.388
    64   1 H        0.925     0.045     2.379     2.412
    65   1 H        0.925     0.045     2.388     2.417
    66   1 H        0.926     0.041     2.431     2.438
    67   1 H        0.926     0.026     2.648     2.545
    68   1 H        0.926     0.028     2.616     2.529
    69   1 H        0.926     0.027     2.623     2.533
    70   1 H        0.926     0.031     2.578     2.511
    71   1 H        0.926     0.030     2.579     2.511
    72   1 H        0.926     0.028     2.622     2.532
    73   1 H        0.926     0.028     2.610     2.527
    74   1 H        0.926     0.027     2.633     2.537
    75   1 H        0.926     0.041     2.442     2.444
    76   1 H        0.926     0.033     2.543     2.494
    77   1 H        0.926     0.036     2.500     2.473
    78   1 H        0.926     0.040     2.445     2.445
    79   1 H        0.926     0.031     2.574     2.509
    80   1 H        0.926     0.032     2.555     2.499
    81   1 H        0.926     0.031     2.567     2.506
    82   1 H        0.926     0.032     2.557     2.500
    83   1 H        0.926     0.036     2.502     2.474
    84   1 H        0.926     0.057     2.233     2.337
    85   1 H        0.926     0.046     2.371     2.408
    86   1 H        0.926     0.037     2.490     2.467
    87   1 H        0.926     0.037     2.488     2.467
    88   1 H        0.926     0.038     2.475     2.460
    89   1 H        0.926     0.050     2.319     2.381
    90   1 H        0.926     0.050     2.318     2.381
    91   1 H        0.926     0.038     2.482     2.464
    92   1 H        0.926     0.035     2.520     2.482
    93   1 H        0.926     0.033     2.550     2.497
    94   1 H        0.926     0.044     2.400     2.423
    95   1 H        0.926     0.041     2.429     2.437
    96   1 H        0.926     0.056     2.244     2.343
    97   1 H        0.926     0.035     2.511     2.478
    98   1 H        0.926     0.041     2.431     2.438
    99   1 H        0.925     0.050     2.317     2.381
   100   1 H        0.925     0.045     2.390     2.417
   101   1 H        0.925     0.047     2.351     2.398

molecular dipole:
                 x           y           z       tot (Debye)
 q only:        0.984       1.056       0.250
   full:        1.017       1.169       0.331       4.027

 projected vibrational frequencies (cm⁻¹)
eigval :       -0.00    -0.00    -0.00    -0.00     0.00     0.00
eigval :        4.86     6.87     7.86    12.60    14.94    16.42
eigval :       28.59    35.56    38.93    41.45    44.79    51.78
eigval :       54.71    64.63    67.78    71.43    77.88    89.38
eigval :       89.63    93.01   104.40   116.77   119.51   130.52
eigval :      134.14   142.50   159.41   164.42   178.13   183.67
eigval :      191.19   207.44   211.71   217.54   226.74   235.45
eigval :      240.97   249.75   267.37   271.93   274.27   280.58
eigval :      288.20   301.45   308.43   336.89   340.71   364.56
eigval :      376.16   380.27   382.12   388.85   396.18   399.56
eigval :      403.56   416.67   417.39   420.37   425.10   429.54
eigval :      430.75   432.76   438.47   445.76   457.63   470.33
eigval :      472.48   484.35   510.19   511.15   516.39   519.04
eigval :      523.16   527.19   536.98   539.21   541.26   542.14
eigval :      547.85   559.84   574.65   584.67   588.12   589.38
eigval :      594.41   602.42   609.09   620.26   627.57   634.47
eigval :      655.01   661.01   661.55   667.74   673.75   680.02
eigval :      688.28   695.48   696.83   700.31   708.96   710.95
eigval :      723.00   731.37   735.16   756.19   769.45   776.06
eigval :      778.09   779.55   780.74   796.09   811.37   824.79
eigval :      829.36   836.26   838.28   841.89   845.73   855.32
eigval :      862.85   866.18   868.39   871.08   873.93   876.61
eigval :      885.66   890.38   892.33   893.81   896.90   898.33
eigval :      898.97   902.44   905.08   906.10   913.47   913.80
eigval :      914.93   917.59   919.46   919.73   923.05   924.14
eigval :      926.06   927.11   927.90   935.42   964.25   992.09
eigval :      996.68   998.47  1011.51  1019.00  1024.81  1025.12
eigval :     1030.54  1032.05  1034.12  1070.26  1071.33  1073.66
eigval :     1090.57  1091.74  1108.47  1116.14  1120.47  1121.37
eigval :     1130.54  1132.39  1148.33  1151.59  1153.53  1164.05
eigval :     1171.84  1173.33  1175.69  1175.84  1181.46  1181.61
eigval :     1182.85  1184.12  1190.42  1201.73  1205.65  1218.23
eigval :     1221.56  1231.48  1236.72  1239.13  1243.19  1244.53
eigval :     1251.53  1252.35  1255.90  1262.01  1263.09  1281.92
eigval :     1292.53  1302.87  1304.67  1310.39  1311.27  1313.12
eigval :     1313.35  1314.68  1315.77  1339.16  1355.47  1356.11
eigval :     1357.38  1360.53  1362.73  1365.85  1378.78  1402.32
eigval :     1405.57  1410.04  1414.65  1419.09  1424.44  1425.57
eigval :     1428.75  1439.36  1443.05  1445.66  1472.36  1474.39
eigval :     1475.68  1476.01  1477.25  1478.20  1484.98  1486.29
eigval :     1488.09  1488.66  1488.91  1506.08  1511.05  1557.07
eigval :     1559.75  1563.62  1567.75  1568.20  1575.35  1580.91
eigval :     1581.57  1583.23  1589.45  1591.13  1591.61  1598.63
eigval :     1598.89  1600.04  1603.70  1611.76  1615.83  1684.34
eigval :     3005.04  3005.65  3024.85  3027.08  3045.07  3045.77
eigval :     3075.25  3075.79  3077.32  3079.26  3080.07  3080.35
eigval :     3080.59  3081.72  3082.89  3084.15  3084.30  3086.65
eigval :     3087.61  3087.75  3087.79  3089.09  3089.26  3090.05
eigval :     3091.55  3092.13  3094.77  3096.29  3096.45  3097.22
eigval :     3098.27  3098.39  3098.65  3099.35  3100.44  3105.57
eigval :     3107.35  3112.74  3113.41

   temp. (K)  partition function   enthalpy   heat capacity  entropy
                                   cal/mol     cal/K/mol   cal/K/mol   J/K/mol
 298.15  VIB  0.105E+26            29828.384    185.090    189.197
         ROT  0.278E+09              888.752      2.981     41.621
         INT  0.291E+34            30717.136    188.070    230.818
         TR   0.218E+29             1481.254      4.968     45.888
         TOT                       32198.3900   193.0386   276.7062  1157.7389

       T/K    H(0)-H(T)+PV         H(T)/Eh          T*S/Eh         G(T)/Eh
   ------------------------------------------------------------------------
    298.15    0.513114E-01    0.827914E+00    0.131472E+00    0.696442E+00
   ------------------------------------------------------------------------

         :::::::::::::::::::::::::::::::::::::::::::::::::::::
         ::                  THERMODYNAMIC                  ::
         :::::::::::::::::::::::::::::::::::::::::::::::::::::
         :: total free energy        -158.258681829176 Eh   ::
         ::.................................................::
         :: total energy             -158.955123359517 Eh   ::
         :: zero point energy           0.776602195319 Eh   ::
         :: G(RRHO) w/o ZPVE           -0.080160664978 Eh   ::
         :: G(RRHO) contrib.            0.696441530341 Eh   ::
         :::::::::::::::::::::::::::::::::::::::::::::::::::::

           -------------------------------------------------
          | TOTAL ENERGY             -158.955123359517 Eh   |
          | TOTAL ENTHALPY           -158.127209763621 Eh   |
          | TOTAL FREE ENERGY        -158.258681829176 Eh   |
          | GRADIENT NORM               0.000056531095 Eh/α |
          | HOMO-LUMO GAP               1.652808806531 eV   |
           -------------------------------------------------

 * finished run on 2025/09/09 at 06:28:42.984
