   * xtb version 6.7.1 (edcfbbe) compiled by 'albert@albert-system' on 2024-07-22

   ID    Z sym.   atoms
    1    6 C      1-4, 6-24, 26-35, 37-40, 42-47, 49-62
    2    7 N      5, 25, 41
    3    8 O      36, 48
    4    1 H      63-101

          program call               : xtb data2507/gas/CDBP-BP-PXZ/CDBP-BP-PXZ.xyz --gfn 2 --ohess vtight --parallel 40 --molden --ceasefiles --namespace data2507/gas/CDBP-BP-PXZ/CDBP-BP-PXZ_gas_S0_preOpt
          :  Hamiltonian                  GFN2-xTB          :
 * total energy  :  -158.9270856 Eh     change       -0.3640224E-08 Eh
 * total energy  :  -158.9451264 Eh     change       -0.1804080E-01 Eh
 * total energy  :  -158.9498955 Eh     change       -0.4769102E-02 Eh
 * total energy  :  -158.9511449 Eh     change       -0.1249416E-02 Eh
 * total energy  :  -158.9522204 Eh     change       -0.1075455E-02 Eh
 * total energy  :  -158.9527583 Eh     change       -0.5378662E-03 Eh
 * total energy  :  -158.9531085 Eh     change       -0.3502055E-03 Eh
 * total energy  :  -158.9533785 Eh     change       -0.2700705E-03 Eh
 * total energy  :  -158.9535823 Eh     change       -0.2037564E-03 Eh
 * total energy  :  -158.9537167 Eh     change       -0.1344028E-03 Eh
 * total energy  :  -158.9550104 Eh     change       -0.1757681E-05 Eh
 * total energy  :  -158.9550116 Eh     change       -0.1201685E-05 Eh
 * total energy  :  -158.9550126 Eh     change       -0.9846970E-06 Eh
 * total energy  :  -158.9550137 Eh     change       -0.1190744E-05 Eh
 * total energy  :  -158.9550154 Eh     change       -0.1654528E-05 Eh
 * total energy  :  -158.9550172 Eh     change       -0.1800503E-05 Eh
 * total energy  :  -158.9550185 Eh     change       -0.1264700E-05 Eh
 * total energy  :  -158.9550191 Eh     change       -0.6831747E-06 Eh
 * total energy  :  -158.9550192 Eh     change       -0.7991389E-08 Eh
   *** GEOMETRY OPTIMIZATION CONVERGED AFTER 68 ITERATIONS ***

 final structure:
================
101
 xtb: 6.7.1 (edcfbbe)
C            4.96500531748831       -2.11491369391317       -0.46952705660425
C            5.91121814336501       -0.98171124325177       -0.21084339055147
C            7.28106759271932       -1.18598135863403       -0.23824536557322
C            8.16784754271564       -0.14263224817105        0.00748764908483
N            9.54972843721716       -0.37372944279418       -0.02800442258393
C           10.23841934005408       -0.99994796216372       -1.04738545417201
C            9.77304772529818       -1.48409981336616       -2.26165335031396
C           10.69102722999339       -2.05066883829922       -3.12489967122487
C           12.04332233441145       -2.13010835987190       -2.79944545705590
C           12.51609468130616       -1.62835446243253       -1.60350062431615
C           11.61270031070397       -1.05381568883750       -0.71914388857197
C           11.74927941962261       -0.43117745160056        0.56758824635088
C           12.83069470585339       -0.20109383892154        1.40784300929973
C           12.60617320170790        0.41992174945602        2.62002065803978
C           11.32125252436936        0.79691413067259        3.00458315049911
C           10.22974033025811        0.57918897498755        2.18602705978240
C           10.45245949258204       -0.02325778338941        0.95611220338121
C            7.67397119843774        1.12638666925570        0.28936824296594
C            6.30874954955899        1.33342643334025        0.32694588438554
C            5.42173783158861        0.29457138191028        0.07820754232884
C            3.96278691526898        0.54418030542967        0.13356242148731
C            3.26099339882216        0.25149261393687        1.29534366292258
C            1.90133633015814        0.48020550277581        1.38099576470354
C            1.22468201095608        0.99714637295087        0.28257411366242
N           -0.15975497559654        1.22523496253839        0.34882870599757
C           -0.79937907430406        2.40920248295586        0.03295733616435
C           -0.26369474597147        3.61895332283408       -0.38379959588198
C           -1.13775147448756        4.66391614388383       -0.61528530136501
C           -2.51121306813510        4.51866317932407       -0.43246225195919
C           -3.04759393657382        3.32369558478729        0.00379875600386
C           -2.18861072467645        2.25988192887265        0.24526252564256
C           -2.38660631666767        0.91407891562975        0.70808150695281
C           -3.51136872860365        0.18971251982610        1.06360511827204
C           -3.35624905065135       -1.13509763185073        1.45987524645062
C           -4.50135609028234       -1.96260664703565        1.89308776828820
O           -4.36890451115201       -2.89598442160278        2.66323729223665
C           -5.83880235484635       -1.60334496920292        1.35042131743820
C           -6.01326330890187       -1.17776856324627        0.03486620439135
C           -7.27516862505427       -0.88087866444474       -0.43927130216959
C           -8.38363103522894       -0.99310635581646        0.39703361768042
N           -9.66749275471777       -0.66398905703760       -0.08305637505277
C          -10.67198476650024       -1.63324682495339       -0.15122720745800
C          -10.44319043211130       -2.96346353730082        0.17703111135631
C          -11.46213914564480       -3.90037884467644        0.09435563198584
C          -12.72160805500140       -3.52682419063933       -0.32798707872089
C          -12.95763972331097       -2.20882066884259       -0.69038099342303
C          -11.94483987637790       -1.27144704535512       -0.61182697702068
O          -12.24627027074099        0.00489336166037       -1.01908904151545
C          -11.24592842312717        0.94228318724000       -0.95644795175151
C          -11.56390677020762        2.22441859715054       -1.36361651758644
C          -10.61656074269924        3.23569744271234       -1.29944391460108
C           -9.35766167835135        2.95661650253572       -0.80866482950117
C           -9.03291646465924        1.67154254989176       -0.40098206017503
C           -9.95986191534333        0.64047648574309       -0.48816454843852
C           -8.21568339134471       -1.43584741662057        1.70710066494573
C           -6.95539287137080       -1.75053796711567        2.17094417587273
C           -2.07671029544408       -1.71285282518710        1.50205699966018
C           -0.94786943808062       -1.01185658591153        1.14469114807921
C           -1.10310326542922        0.31513794851216        0.75848572215863
C            1.92253186226724        1.28736237130913       -0.88453001568946
C            3.28898063576851        1.07383534675210       -0.97006668395804
C            4.03640630304635        1.39740157032435       -2.22766965141491
H            4.19939025189560       -1.82311806176840       -1.18674619655806
H            5.49618051593512       -2.98302459411603       -0.85139201071491
H            4.45734646443933       -2.39931842025412        0.45183357700264
H            7.67270715379989       -2.17284760933454       -0.43805914176645
H            8.72987746506830       -1.41124744871768       -2.53060406215597
H           10.35307636075785       -2.43766496482454       -4.07507041983411
H           12.72867558875587       -2.58344227976429       -3.50008835670787
H           13.56631234247794       -1.67546963863119       -1.35784045248366
H           13.82395662389616       -0.50770711071729        1.11634727240272
H           13.43357893093693        0.61020473138794        3.28733717901300
H           11.17441146763780        1.26681487865857        3.96600858286407
H            9.23553150984747        0.85912828153780        2.50048601156852
H            8.35830131598244        1.94248421768033        0.46428571521561
H            5.91947831821482        2.31629106964164        0.55099692739744
H            3.79386358127767       -0.14883176813833        2.14561207039640
H            1.36534974990936        0.27318847576714        2.29466891649568
H            0.80047615993400        3.74515731817997       -0.51301226228340
H           -0.74684814826844        5.61583340869476       -0.94279751793652
H           -3.16074816313849        5.35868421702740       -0.62777288966445
H           -4.11025115084006        3.21509892438161        0.15993671959168
H           -4.48396603240391        0.65788610042517        1.05695072673528
H           -5.16184250748379       -1.10755185898053       -0.62599635845805
H           -7.41398121789868       -0.56337034412310       -1.46238489261665
H           -9.45930279154514       -3.27319654068123        0.49251737000175
H          -11.25684970494029       -4.92566552051302        0.36093418794722
H          -13.51881735389333       -4.25061685991926       -0.38949660472196
H          -13.92434649320683       -1.88712363226814       -1.04351393631493
H          -12.56302286103925        2.41220815765458       -1.72297277762556
H          -10.87339181565152        4.23231241331981       -1.62193147954044
H           -8.61536681288619        3.73646945804361       -0.73383431612067
H           -8.05054569009230        1.47145157959542       -0.00286398404527
H           -9.07717944743061       -1.52728213162757        2.35193011676417
H           -6.81239570021445       -2.09914274187162        3.18273577125461
H           -2.00241766079739       -2.74200173865789        1.81966439572981
H            0.02493358377471       -1.47910695077451        1.15942521414206
H            1.38406683516773        1.67240579682681       -1.73848896210433
H            4.71842095144640        2.22989830994741       -2.05738051681214
H            3.35161412868684        1.66814342638751       -3.02725185678134
H            4.63658018793049        0.54717431383107       -2.54793023907754

          :  Hamiltonian                  GFN2-xTB          :
         :: gradient norm              0.000065579416 Eh/a0 ::
         :: HOMO-LUMO gap              1.644315147929 eV    ::
         :: SCC energy              -161.827328195761 Eh    ::
         :: -> dispersion             -0.141618818992 Eh    ::
         :: repulsion energy           2.872309040266 Eh    ::

    * Orbital Energies and Occupations

         #    Occupation            Energy/Eh            Energy/eV
      -------------------------------------------------------------
         1        2.0000           -0.7258859             -19.7524
       ...           ...                  ...                  ...
       135        2.0000           -0.4139912             -11.2653
       136        2.0000           -0.4125973             -11.2273
       137        2.0000           -0.4108103             -11.1787
       138        2.0000           -0.4078774             -11.0989
       139        2.0000           -0.4045088             -11.0072
       140        2.0000           -0.4039987             -10.9934
       141        2.0000           -0.3887830             -10.5793
       142        2.0000           -0.3882926             -10.5660
       143        2.0000           -0.3842929             -10.4571
       144        2.0000           -0.3776214             -10.2756
       145        2.0000           -0.3724538             -10.1350
       146        2.0000           -0.3617287              -9.8431
       147        2.0000           -0.3415622              -9.2944 (HOMO)
       148                         -0.2811348              -7.6501 (LUMO)
       149                         -0.2550339              -6.9398
       150                         -0.2459212              -6.6919
       151                         -0.2425845              -6.6011
       152                         -0.2386312              -6.4935
       153                         -0.2374685              -6.4618
       154                         -0.2369366              -6.4474
       155                         -0.2362755              -6.4294
       156                         -0.2340196              -6.3680
       157                         -0.2330356              -6.3412
       158                         -0.2277538              -6.1975
       ...                                ...                  ...
       287                          0.7471528              20.3311
      -------------------------------------------------------------
                  HL-Gap            0.0604275 Eh            1.6443 eV

     #   Z          covCN         q      C6AA      α(0)
     1   6 C        3.758    -0.107    22.600     6.778
     2   6 C        2.969     0.015    27.680     8.630
     3   6 C        2.927    -0.054    29.340     8.883
     4   6 C        2.912     0.061    26.624     8.461
     5   7 N        2.803    -0.044    22.094     6.981
     6   6 C        3.076     0.047    26.877     8.500
     7   6 C        2.910    -0.051    29.277     8.872
     8   6 C        2.924    -0.034    28.845     8.808
     9   6 C        2.920    -0.041    29.023     8.834
    10   6 C        2.913    -0.033    28.818     8.803
    11   6 C        3.068    -0.017    28.369     8.734
    12   6 C        3.068    -0.017    28.370     8.734
    13   6 C        2.913    -0.033    28.819     8.803
    14   6 C        2.920    -0.041    29.020     8.834
    15   6 C        2.924    -0.034    28.837     8.806
    16   6 C        2.910    -0.051    29.270     8.871
    17   6 C        3.076     0.047    26.876     8.500
    18   6 C        2.921    -0.048    29.203     8.862
    19   6 C        2.924    -0.034    28.852     8.809
    20   6 C        2.982    -0.001    28.035     8.685
    21   6 C        2.982     0.002    27.965     8.674
    22   6 C        2.924    -0.033    28.830     8.805
    23   6 C        2.921    -0.048    29.184     8.859
    24   6 C        2.913     0.059    26.683     8.470
    25   7 N        2.804    -0.037    21.958     6.960
    26   6 C        3.079     0.047    26.856     8.496
    27   6 C        2.910    -0.049    29.223     8.864
    28   6 C        2.924    -0.032    28.801     8.801
    29   6 C        2.920    -0.039    28.972     8.827
    30   6 C        2.912    -0.032    28.792     8.799
    31   6 C        3.067    -0.016    28.349     8.731
    32   6 C        3.067    -0.016    28.343     8.730
    33   6 C        2.914    -0.031    28.765     8.795
    34   6 C        2.972    -0.025    28.622     8.776
    35   6 C        2.829     0.224    23.301     7.910
    36   8 O        0.858    -0.380    21.287     6.186
    37   6 C        2.972    -0.013    28.340     8.732
    38   6 C        2.920    -0.027    28.687     8.783
    39   6 C        2.920    -0.041    29.012     8.833
    40   6 C        2.922     0.069    26.449     8.434
    41   7 N        2.751    -0.071    22.608     7.062
    42   6 C        2.922     0.042    27.050     8.529
    43   6 C        2.924    -0.060    29.484     8.905
    44   6 C        2.919    -0.038    28.953     8.824
    45   6 C        2.919    -0.040    28.997     8.831
    46   6 C        2.920    -0.056    29.397     8.891
    47   6 C        2.884     0.124    25.270     8.241
    48   8 O        1.709    -0.255    18.232     5.765
    49   6 C        2.884     0.125    25.259     8.240
    50   6 C        2.920    -0.056    29.401     8.892
    51   6 C        2.919    -0.041    29.007     8.832
    52   6 C        2.919    -0.039    28.969     8.826
    53   6 C        2.924    -0.060    29.498     8.907
    54   6 C        2.922     0.043    27.047     8.529
    55   6 C        2.920    -0.040    28.998     8.831
    56   6 C        2.924    -0.019    28.483     8.752
    57   6 C        2.929    -0.023    28.589     8.769
    58   6 C        2.907    -0.050    29.231     8.865
    59   6 C        3.078     0.052    26.750     8.480
    60   6 C        2.927    -0.054    29.329     8.881
    61   6 C        2.969     0.016    27.660     8.627
    62   6 C        3.758    -0.108    22.608     6.779
    63   1 H        0.925     0.045     2.382     2.413
    64   1 H        0.925     0.044     2.392     2.418
    65   1 H        0.925     0.049     2.332     2.388
    66   1 H        0.926     0.041     2.430     2.438
    67   1 H        0.926     0.026     2.648     2.545
    68   1 H        0.926     0.028     2.617     2.530
    69   1 H        0.926     0.027     2.623     2.533
    70   1 H        0.926     0.031     2.578     2.511
    71   1 H        0.926     0.031     2.579     2.511
    72   1 H        0.926     0.028     2.621     2.532
    73   1 H        0.926     0.028     2.609     2.526
    74   1 H        0.926     0.026     2.637     2.539
    75   1 H        0.926     0.041     2.442     2.444
    76   1 H        0.926     0.033     2.542     2.493
    77   1 H        0.926     0.037     2.494     2.470
    78   1 H        0.926     0.042     2.425     2.435
    79   1 H        0.926     0.031     2.572     2.508
    80   1 H        0.926     0.032     2.554     2.499
    81   1 H        0.926     0.031     2.567     2.506
    82   1 H        0.926     0.032     2.557     2.500
    83   1 H        0.926     0.036     2.497     2.471
    84   1 H        0.926     0.042     2.426     2.436
    85   1 H        0.926     0.044     2.400     2.423
    86   1 H        0.926     0.037     2.494     2.469
    87   1 H        0.926     0.037     2.489     2.467
    88   1 H        0.926     0.038     2.476     2.460
    89   1 H        0.926     0.050     2.319     2.382
    90   1 H        0.926     0.050     2.318     2.381
    91   1 H        0.926     0.037     2.483     2.464
    92   1 H        0.926     0.035     2.521     2.483
    93   1 H        0.926     0.032     2.553     2.499
    94   1 H        0.926     0.046     2.371     2.408
    95   1 H        0.926     0.058     2.228     2.334
    96   1 H        0.926     0.056     2.246     2.343
    97   1 H        0.926     0.035     2.510     2.478
    98   1 H        0.926     0.041     2.438     2.442
    99   1 H        0.925     0.050     2.315     2.379
   100   1 H        0.925     0.044     2.396     2.420
   101   1 H        0.925     0.047     2.353     2.399

molecular dipole:
                 x           y           z       tot (Debye)
 q only:        0.926       0.899      -0.876
   full:        0.962       1.014      -0.921       4.255

 projected vibrational frequencies (cm⁻¹)
eigval :       -0.00    -0.00     0.00     0.00     0.00     0.00
eigval :        4.57     7.26     8.14    12.57    14.95    15.81
eigval :       28.85    35.50    39.91    40.88    44.53    53.26
eigval :       54.85    64.58    66.62    71.47    74.46    85.27
eigval :       88.59    92.63   104.19   116.49   119.72   130.09
eigval :      133.32   142.47   159.22   169.08   173.04   183.88
eigval :      190.86   206.21   211.78   216.87   226.69   234.55
eigval :      246.58   249.74   268.13   271.95   274.35   280.82
eigval :      284.06   298.91   314.77   327.40   345.05   371.27
eigval :      374.59   377.34   382.40   385.22   394.99   399.14
eigval :      411.13   414.94   416.06   420.44   424.85   427.17
eigval :      430.76   432.09   442.42   445.36   458.29   464.74
eigval :      471.67   489.42   509.25   510.32   516.72   517.80
eigval :      522.86   529.07   534.49   539.05   541.25   542.22
eigval :      553.90   561.00   569.05   584.94   588.00   588.62
eigval :      594.22   602.35   608.94   624.53   626.03   634.51
eigval :      654.43   660.82   661.47   668.08   673.76   680.08
eigval :      688.34   695.25   697.32   699.82   708.95   710.94
eigval :      723.25   731.50   735.66   756.17   769.45   776.03
eigval :      777.97   779.47   780.75   795.96   811.63   824.75
eigval :      827.47   835.58   841.16   841.83   845.69   855.20
eigval :      862.66   865.97   868.39   871.02   874.04   876.09
eigval :      886.77   890.33   892.42   893.77   896.78   898.18
eigval :      898.98   902.61   905.02   906.07   913.26   913.66
eigval :      914.91   917.72   919.42   919.75   922.90   924.15
eigval :      926.81   927.21   927.86   935.86   964.73   992.39
eigval :      997.05   998.47  1011.48  1018.95  1024.42  1025.08
eigval :     1030.36  1031.90  1033.95  1070.26  1071.39  1073.62
eigval :     1090.43  1091.57  1108.43  1116.05  1120.37  1121.29
eigval :     1130.22  1132.20  1148.93  1151.69  1153.63  1164.04
eigval :     1171.92  1173.30  1175.62  1175.83  1181.48  1181.67
eigval :     1182.69  1184.12  1190.19  1201.61  1205.58  1218.12
eigval :     1221.49  1231.55  1236.72  1239.07  1243.17  1244.79
eigval :     1251.89  1252.07  1255.96  1262.21  1262.93  1281.94
eigval :     1292.43  1302.91  1304.52  1310.46  1311.29  1313.09
eigval :     1313.27  1314.74  1315.88  1339.54  1355.42  1356.33
eigval :     1357.38  1360.37  1362.64  1365.96  1378.70  1402.23
eigval :     1405.39  1410.67  1414.83  1418.77  1424.49  1425.60
eigval :     1428.67  1439.57  1443.09  1445.53  1472.52  1474.37
eigval :     1475.62  1475.71  1477.46  1477.91  1484.97  1486.39
eigval :     1488.14  1488.71  1489.13  1506.18  1510.82  1557.25
eigval :     1559.72  1563.86  1567.71  1567.99  1575.34  1580.95
eigval :     1581.59  1583.28  1589.44  1591.15  1591.34  1598.76
eigval :     1599.08  1600.27  1603.75  1611.58  1615.84  1682.55
eigval :     3005.26  3007.25  3024.32  3025.37  3045.42  3045.61
eigval :     3075.19  3075.79  3077.06  3079.29  3080.26  3080.52
eigval :     3080.69  3081.73  3082.41  3084.14  3084.39  3086.69
eigval :     3087.60  3087.69  3087.73  3089.19  3089.53  3089.99
eigval :     3091.56  3092.20  3094.72  3096.44  3097.15  3097.56
eigval :     3098.32  3098.44  3098.55  3099.22  3100.50  3105.40
eigval :     3107.07  3112.73  3113.38

   temp. (K)  partition function   enthalpy   heat capacity  entropy
                                   cal/mol     cal/K/mol   cal/K/mol   J/K/mol
 298.15  VIB  0.114E+26            29841.594    185.073    189.403
         ROT  0.276E+09              888.752      2.981     41.604
         INT  0.315E+34            30730.347    188.054    231.007
         TR   0.218E+29             1481.254      4.968     45.888
         TOT                       32211.6007   193.0224   276.8951  1158.5293

       T/K    H(0)-H(T)+PV         H(T)/Eh          T*S/Eh         G(T)/Eh
   ------------------------------------------------------------------------
    298.15    0.513325E-01    0.827910E+00    0.131562E+00    0.696348E+00
   ------------------------------------------------------------------------

         :::::::::::::::::::::::::::::::::::::::::::::::::::::
         ::                  THERMODYNAMIC                  ::
         :::::::::::::::::::::::::::::::::::::::::::::::::::::
         :: total free energy        -158.258671240172 Eh   ::
         ::.................................................::
         :: total energy             -158.955019155496 Eh   ::
         :: zero point energy           0.776577280469 Eh   ::
         :: G(RRHO) w/o ZPVE           -0.080229365145 Eh   ::
         :: G(RRHO) contrib.            0.696347915324 Eh   ::
         :::::::::::::::::::::::::::::::::::::::::::::::::::::

           -------------------------------------------------
          | TOTAL ENERGY             -158.955019155496 Eh   |
          | TOTAL ENTHALPY           -158.127109421907 Eh   |
          | TOTAL FREE ENERGY        -158.258671240172 Eh   |
          | GRADIENT NORM               0.000065580592 Eh/α |
          | HOMO-LUMO GAP               1.644315873436 eV   |
           -------------------------------------------------

 * finished run on 2025/09/09 at 06:18:41.025
