   * xtb version 6.7.1 (edcfbbe) compiled by 'albert@albert-system' on 2024-07-22

   ID    Z sym.   atoms
    1    8 O      1, 18
    2    6 C      2-10, 12-17, 19-26, 28, 30-35
    3    7 N      11, 27, 29
    4    1 H      36-56

          program call               : xtb data2507/gas/MPA/MPA_gas_T1_crest.xyz --gfn 2 --spinpol --tblite --uhf 2 --ohess vtight --parallel 40 --molden --ceasefiles --namespace data2507/gas/MPA/MPA_gas_T1_finalOpt
 * total energy  :   -91.7854583 Eh     change       -0.2160267E-07 Eh
 * total energy  :   -91.7855012 Eh     change       -0.4288146E-04 Eh
 * total energy  :   -91.7855166 Eh     change       -0.1534907E-04 Eh
 * total energy  :   -91.7855189 Eh     change       -0.2312027E-05 Eh
 * total energy  :   -91.7855219 Eh     change       -0.3039137E-05 Eh
 * total energy  :   -91.7855243 Eh     change       -0.2348299E-05 Eh
 * total energy  :   -91.7855270 Eh     change       -0.2775737E-05 Eh
 * total energy  :   -91.7855287 Eh     change       -0.1701020E-05 Eh
 * total energy  :   -91.7855295 Eh     change       -0.7973890E-06 Eh
 * total energy  :   -91.7855301 Eh     change       -0.5741651E-06 Eh
 * total energy  :   -91.7855316 Eh     change       -0.3506632E-06 Eh
 * total energy  :   -91.7855316 Eh     change       -0.6016951E-07 Eh
 * total energy  :   -91.7855319 Eh     change       -0.2297876E-06 Eh
 * total energy  :   -91.7855322 Eh     change       -0.3478174E-06 Eh
 * total energy  :   -91.7855324 Eh     change       -0.1586706E-06 Eh
 * total energy  :   -91.7855325 Eh     change       -0.1372674E-06 Eh
 * total energy  :   -91.7855326 Eh     change       -0.1023413E-06 Eh
 * total energy  :   -91.7855327 Eh     change       -0.1308041E-06 Eh
 * total energy  :   -91.7855327 Eh     change       -0.1505516E-07 Eh
   *** GEOMETRY OPTIMIZATION CONVERGED AFTER 22 ITERATIONS ***

 final structure:
================
56
 xtb: 6.7.1 (edcfbbe)
O            4.76237443897247        0.72931686363657        2.45189873718728
C            5.33969740619385        0.82054871116213        1.38296435518691
C            5.08318199257509        2.02202188106969        0.47806045414180
C            4.00870731456026        1.55930212468541       -0.46021525304057
C            2.72329653133403        1.35673619952743       -0.03395760959088
C            1.76957475779569        0.88318751135507       -0.97014942396135
C            0.39633985352061        0.64675051678707       -0.69057011406898
C           -0.19224002659931        0.87408922412001        0.57421914648214
C           -1.52391397525672        0.62811787916814        0.78976555947275
C           -2.33116967758113        0.14115902322451       -0.24205685789078
N           -3.70713740488724       -0.11217966593315       -0.01186789870968
C           -4.19298743428567       -1.40895317375168       -0.02586693022620
C           -3.36017139955123       -2.50903498370386       -0.22635461245402
C           -3.87981704623196       -3.78979575818127       -0.23943279815075
C           -5.23528588550557       -4.00136342111565       -0.04628761493209
C           -6.07516548036863       -2.92318762448132        0.17702767038279
C           -5.56348875609872       -1.63646964533320        0.19346573837111
O           -6.43799316786860       -0.61644566122349        0.44206343096041
C           -5.94191038684198        0.65641163778229        0.46403497010845
C           -6.83614657435013        1.68329272991184        0.71636106356872
C           -6.39903783267050        2.99724552502429        0.72847053984790
C           -5.06746823992255        3.28211991019761        0.47331384597442
C           -4.16729282877626        2.26375534943851        0.22204697562529
C           -4.58313350665098        0.93298559222336        0.22870448776051
C           -1.77056102122315       -0.09431807017015       -1.50261208287558
C           -0.44229403879941        0.15192595390041       -1.71991519262903
N            2.22127996618141        0.62124586277040       -2.23591255115594
C            3.46091798201929        0.81037136471723       -2.55996426683772
N            4.37695043527820        1.28690910775632       -1.73981370856326
C            6.26017213997514       -0.22155473234023        0.89558630307855
C            6.67626015873400       -1.19388819029295        1.81131904442454
C            7.55664604124995       -2.18696732125113        1.43630704601905
C            8.03128189185550       -2.23454555181397        0.13411744236022
C            7.61466656687173       -1.28520135201835       -0.78595676588260
C            6.74225783899895       -0.27992525734518       -0.41412441685110
H            5.97073031354684        2.32684619320741       -0.07137488144428
H            4.71978606534452        2.84361304239045        1.09673643400852
H            2.45767002101318        1.54817490854298        0.99238882134118
H            0.40784538675713        1.23885623285215        1.39197834703643
H           -1.96084225547495        0.79731316567017        1.76389475429542
H           -2.30299754520459       -2.34937294569206       -0.36502790412299
H           -3.21791048477859       -4.62658225068230       -0.39849682138387
H           -5.63974301373727       -5.00083959166174       -0.05943671098292
H           -7.13158256412034       -3.05635239117475        0.34595279178102
H           -7.86867377249736        1.43049017600642        0.89595913439483
H           -7.09957859261502        3.79236611399912        0.92778427441385
H           -4.72381628599248        4.30463494682572        0.46626263531543
H           -3.13412912442997        2.48983325866854        0.01265707401981
H           -2.40178120183166       -0.46049497840042       -2.29996222087246
H           -0.00083455552357       -0.01874136315962       -2.68971464670927
H            3.76768050872951        0.57736696066217       -3.57079255077236
H            6.29234859634958       -1.14180341407040        2.81940325784897
H            7.87455923292782       -2.92766706416140        2.15564298746307
H            8.72059301655512       -3.01119141415032       -0.16374642300931
H            7.97600428109737       -1.32849116992525       -1.80336951274187
H            6.41385519223796        0.43382062775110       -1.15370908591288

 projected vibrational frequencies (cm⁻¹)
eigval :       -0.00    -0.00     0.00     0.00     0.00     0.00
eigval :        8.48    10.17    20.48    27.60    33.69    43.86
eigval :       56.13    58.71    77.00    87.14   100.13   112.15
eigval :      135.69   150.58   167.88   173.47   201.18   217.49
eigval :      244.10   258.27   270.70   289.53   312.29   360.71
eigval :      366.26   373.44   377.04   380.58   387.46   388.63
eigval :      415.51   419.59   431.91   435.45   452.35   465.87
eigval :      470.10   498.18   499.92   526.98   530.32   544.85
eigval :      572.58   579.13   585.04   586.87   606.62   626.79
eigval :      627.25   652.41   660.06   667.32   671.80   677.35
eigval :      686.12   734.55   745.91   769.30   776.94   778.74
eigval :      789.34   801.22   822.47   835.91   856.17   862.00
eigval :      867.00   867.36   870.66   883.63   895.62   900.52
eigval :      902.45   903.23   909.06   909.45   914.80   918.03
eigval :      918.49   927.20   930.38   940.80   968.06   979.70
eigval :      994.02  1026.69  1041.60  1082.36  1083.62  1084.89
eigval :     1105.75  1113.50  1121.02  1121.91  1125.61  1168.25
eigval :     1171.99  1173.07  1179.03  1179.95  1191.24  1194.72
eigval :     1201.28  1208.42  1214.89  1223.54  1237.09  1243.28
eigval :     1249.64  1253.48  1279.74  1282.48  1301.23  1311.35
eigval :     1315.41  1318.50  1324.17  1328.00  1331.91  1347.54
eigval :     1383.75  1416.44  1420.59  1428.51  1436.82  1441.34
eigval :     1442.30  1445.49  1458.51  1464.09  1480.33  1480.99
eigval :     1522.67  1554.87  1558.43  1562.00  1570.13  1574.90
eigval :     1585.40  1587.11  1665.85  2991.36  3025.21  3053.16
eigval :     3070.72  3071.05  3072.84  3076.24  3086.33  3094.16
eigval :     3094.93  3095.28  3097.09  3097.23  3104.23  3105.43
eigval :     3105.61  3112.89  3114.12  3114.62  3116.54  3116.65

   temp. (K)  partition function   enthalpy   heat capacity  entropy
                                   cal/mol     cal/K/mol   cal/K/mol   J/K/mol
 298.15  VIB  0.106E+14            16064.219    101.337    100.450
         ROT  0.412E+08              888.752      2.981     37.825
         INT  0.436E+21            16952.972    104.318    138.275
         TR   0.941E+28             1481.254      4.968     44.218
         TOT                       18434.2255   109.2859   182.4924   763.5481

       T/K    H(0)-H(T)+PV         H(T)/Eh          T*S/Eh         G(T)/Eh
   ------------------------------------------------------------------------
    298.15    0.293768E-01    0.448987E+00    0.867080E-01    0.362279E+00
   ------------------------------------------------------------------------

         :::::::::::::::::::::::::::::::::::::::::::::::::::::
         ::                  THERMODYNAMIC                  ::
         :::::::::::::::::::::::::::::::::::::::::::::::::::::
         :: total free energy         -91.423253902961 Eh   ::
         ::.................................................::
         :: total energy              -91.785532748833 Eh   ::
         :: zero point energy           0.419610058304 Eh   ::
         :: G(RRHO) w/o ZPVE           -0.057331212431 Eh   ::
         :: G(RRHO) contrib.            0.362278845872 Eh   ::
         :::::::::::::::::::::::::::::::::::::::::::::::::::::

           -------------------------------------------------
          | TOTAL ENERGY              -91.785532748833 Eh   |
          | TOTAL ENTHALPY            -91.336545882357 Eh   |
          | TOTAL FREE ENERGY         -91.423253902961 Eh   |
          | GRADIENT NORM               0.000166821339 Eh/α |
           -------------------------------------------------

 * finished run on 2025/07/20 at 12:50:31.994
