   * xtb version 6.7.1 (edcfbbe) compiled by 'albert@albert-system' on 2024-07-22

   ID    Z sym.   atoms
    1    8 O      1, 18
    2    6 C      2-10, 12-17, 19-26, 28, 30-35
    3    7 N      11, 27, 29
    4    1 H      36-56

          program call               : xtb data2507/gas/MPA/MPA_gas_S0_finalOpt.xtbopt.xyz --gfn 2 --spinpol --tblite --uhf 2 --ohess vtight --parallel 40 --molden --ceasefiles --namespace data2507/gas/MPA/MPA_gas_T1_preOpt
 * total energy  :   -91.7778046 Eh     change       -0.2093866E-07 Eh
 * total energy  :   -91.7820877 Eh     change       -0.4283080E-02 Eh
 * total energy  :   -91.7832871 Eh     change       -0.1199378E-02 Eh
 * total energy  :   -91.7834205 Eh     change       -0.1334419E-03 Eh
 * total energy  :   -91.7835663 Eh     change       -0.1457375E-03 Eh
 * total energy  :   -91.7836614 Eh     change       -0.9513462E-04 Eh
 * total energy  :   -91.7837781 Eh     change       -0.1167418E-03 Eh
 * total energy  :   -91.7838755 Eh     change       -0.9732647E-04 Eh
 * total energy  :   -91.7839390 Eh     change       -0.6354527E-04 Eh
 * total energy  :   -91.7839896 Eh     change       -0.5063556E-04 Eh
 * total energy  :   -91.7855276 Eh     change       -0.4408956E-06 Eh
 * total energy  :   -91.7855279 Eh     change       -0.3183799E-06 Eh
 * total energy  :   -91.7855281 Eh     change       -0.2721439E-06 Eh
 * total energy  :   -91.7855284 Eh     change       -0.2056449E-06 Eh
 * total energy  :   -91.7855286 Eh     change       -0.2911084E-06 Eh
 * total energy  :   -91.7855289 Eh     change       -0.2876593E-06 Eh
 * total energy  :   -91.7855292 Eh     change       -0.2398047E-06 Eh
 * total energy  :   -91.7855294 Eh     change       -0.2252758E-06 Eh
 * total energy  :   -91.7855294 Eh     change       -0.4508905E-08 Eh
   *** GEOMETRY OPTIMIZATION CONVERGED AFTER 94 ITERATIONS ***

 final structure:
================
56
 xtb: 6.7.1 (edcfbbe)
O            4.80723391852668        1.78134868028005        1.78332541404407
C            5.37800111820384        1.36418006136141        0.79123931796598
C            5.08322329651906        1.97951192262222       -0.57387472541110
C            4.00425508814135        1.11222981753904       -1.15028744458997
C            2.72145279714073        1.15060376010499       -0.67277826224642
C            1.76277051091599        0.27671236455383       -1.24508911991830
C            0.38957168020270        0.21860724986215       -0.88336448665562
C           -0.19521561440036        1.05411583773748        0.09528032093956
C           -1.52835615555624        0.95910845214258        0.40215432258605
C           -2.34064671864766        0.02535240739771       -0.24712193589654
N           -3.71909271992684       -0.06550285471800        0.07306366269015
C           -4.21765639614632       -1.18672483880226        0.71485095090128
C           -3.39539410556811       -2.24332060439510        1.10391820463673
C           -3.92749986600517       -3.34999653913945        1.73850714519255
C           -5.28514842895777       -3.42371061087628        2.00448316988654
C           -6.11477080776837       -2.37453217145716        1.64570932939371
C           -5.59062523965284       -1.26102211622664        1.01085602130431
O           -6.45549913416556       -0.24910637732902        0.70243779732814
C           -5.94746774207236        0.85413670912192        0.07669225078208
C           -6.83255352783273        1.87248760086065       -0.23538127967637
C           -6.38291832473288        3.00667270544450       -0.89047880062302
C           -5.04783419253284        3.11328731175322       -1.24473485726492
C           -4.15674310894097        2.10270712620734       -0.93615097864410
C           -4.58551695308268        0.96307000006641       -0.25700526809181
C           -1.78340088629617       -0.81665184867446       -1.21622151745922
C           -0.45382368125739       -0.72188828507039       -1.52515324920383
N            2.20841676868847       -0.58326950642451       -2.21295329664065
C            3.44609946333358       -0.58277332100025       -2.59472364573350
N            4.36538790036495        0.23869723224416       -2.12709152056976
C            6.33160285320925        0.24235694206976        0.84594179240467
C            6.79920227339523       -0.14607245580486        2.10584898843958
C            7.71522710992543       -1.16897666156432        2.23475090757438
C            8.17415658572785       -1.83241483324100        1.10670917661523
C            7.70559877865850       -1.46709767756470       -0.14561835844618
C            6.79740562668570       -0.43458235229334       -0.28357574379693
H            5.95676530717037        1.99162551901402       -1.22140552185421
H            4.71228226404575        2.99330355307880       -0.41796375121204
H            2.46110844348602        1.82723982792207        0.12405449732104
H            0.40861567768284        1.77657470888889        0.62002148628688
H           -1.96281970572222        1.59849709485455        1.15772860017288
H           -2.33664319160363       -2.18420135918338        0.90918463603427
H           -3.27372165342047       -4.15733096611231        2.02904917787726
H           -5.69931403264307       -4.28879256985511        2.49724697863605
H           -7.17264336295803       -2.39550015837433        1.85248659002967
H           -7.86798075982130        1.75326766312440        0.04021343594118
H           -7.07646315634706        3.79708522323547       -1.12911783665890
H           -4.69433159627322        3.98767017196438       -1.76835542054562
H           -3.12072777915238        2.18388732267041       -1.22333240976395
H           -2.41827591503693       -1.53019004674768       -1.72227381279155
H           -0.01503184006705       -1.36007277064392       -2.27663173163268
H            3.74790324657679       -1.28950227934076       -3.35603171016500
H            6.42705726840842        0.38039910573683        2.97225474057124
H            8.07332430767676       -1.45398278029815        3.21335992554718
H            8.89151962244030       -2.63432011699533        1.20359080171137
H            8.05437502007335       -1.99156787187070       -1.02360247134046
H            6.42792599889957       -0.18388766516869       -1.26595340657355

 projected vibrational frequencies (cm⁻¹)
eigval :       -0.00    -0.00     0.00     0.00     0.00     0.00
eigval :        8.09    10.23    20.68    27.83    34.96    43.18
eigval :       55.99    58.93    77.39    87.11    99.93   112.04
eigval :      135.33   150.94   167.82   173.85   201.34   216.76
eigval :      244.27   258.17   270.72   289.08   312.51   360.84
eigval :      366.39   373.43   377.13   380.72   386.57   389.22
eigval :      413.80   419.51   432.06   435.68   452.48   466.76
eigval :      470.02   497.75   500.16   526.70   530.36   544.75
eigval :      572.60   579.13   584.97   586.91   606.58   626.60
eigval :      627.10   652.78   660.13   667.33   671.76   676.90
eigval :      686.38   735.23   745.86   769.61   777.17   778.94
eigval :      789.46   801.10   822.01   835.41   856.20   861.55
eigval :      867.21   867.66   870.80   884.07   895.76   900.78
eigval :      902.64   903.35   908.66   909.48   914.85   918.23
eigval :      918.62   927.33   930.54   940.38   967.75   979.90
eigval :      993.45  1026.16  1041.63  1082.30  1083.79  1084.94
eigval :     1106.16  1113.59  1120.96  1122.00  1126.20  1168.36
eigval :     1171.93  1173.21  1179.58  1180.36  1191.19  1195.06
eigval :     1201.35  1208.65  1214.93  1222.71  1237.21  1243.28
eigval :     1251.01  1253.78  1279.70  1282.68  1301.28  1311.53
eigval :     1315.98  1318.54  1324.34  1327.88  1331.86  1347.70
eigval :     1384.01  1416.30  1420.54  1428.12  1436.67  1441.08
eigval :     1442.43  1445.90  1458.77  1464.26  1480.32  1481.76
eigval :     1522.71  1554.87  1559.01  1562.03  1570.02  1575.40
eigval :     1585.11  1586.10  1666.24  2992.94  3025.25  3053.33
eigval :     3070.91  3071.37  3072.90  3076.46  3086.70  3093.28
eigval :     3094.96  3095.41  3096.88  3097.21  3104.14  3105.30
eigval :     3105.47  3113.07  3114.34  3114.79  3116.59  3116.73

   temp. (K)  partition function   enthalpy   heat capacity  entropy
                                   cal/mol     cal/K/mol   cal/K/mol   J/K/mol
 298.15  VIB  0.106E+14            16063.472    101.349    100.474
         ROT  0.413E+08              888.752      2.981     37.831
         INT  0.438E+21            16952.224    104.330    138.305
         TR   0.941E+28             1481.254      4.968     44.218
         TOT                       18433.4781   109.2978   182.5224   763.6737

       T/K    H(0)-H(T)+PV         H(T)/Eh          T*S/Eh         G(T)/Eh
   ------------------------------------------------------------------------
    298.15    0.293756E-01    0.449005E+00    0.867223E-01    0.362283E+00
   ------------------------------------------------------------------------

         :::::::::::::::::::::::::::::::::::::::::::::::::::::
         ::                  THERMODYNAMIC                  ::
         :::::::::::::::::::::::::::::::::::::::::::::::::::::
         :: total free energy         -91.423246195113 Eh   ::
         ::.................................................::
         :: total energy              -91.785529405009 Eh   ::
         :: zero point energy           0.419629866536 Eh   ::
         :: G(RRHO) w/o ZPVE           -0.057346656640 Eh   ::
         :: G(RRHO) contrib.            0.362283209895 Eh   ::
         :::::::::::::::::::::::::::::::::::::::::::::::::::::

           -------------------------------------------------
          | TOTAL ENERGY              -91.785529405009 Eh   |
          | TOTAL ENTHALPY            -91.336523921261 Eh   |
          | TOTAL FREE ENERGY         -91.423246195113 Eh   |
          | GRADIENT NORM               0.000046539042 Eh/α |
           -------------------------------------------------

 * finished run on 2025/07/20 at 12:47:30.787
