   * xtb version 6.7.1 (edcfbbe) compiled by 'albert@albert-system' on 2024-07-22

   ID    Z sym.   atoms
    1    8 O      1, 18
    2    6 C      2-10, 12-17, 19-26, 28, 30-35
    3    7 N      11, 27, 29
    4    1 H      36-56

          program call               : xtb data2507/gas/MPA/MPA.xyz --gfn 2 --ohess vtight --parallel 40 --molden --ceasefiles --namespace data2507/gas/MPA/MPA_gas_S0_preOpt
          :  Hamiltonian                  GFN2-xTB          :
 * total energy  :   -91.8411974 Eh     change       -0.7445209E-09 Eh
 * total energy  :   -91.8501185 Eh     change       -0.8921024E-02 Eh
 * total energy  :   -91.8525212 Eh     change       -0.2402782E-02 Eh
 * total energy  :   -91.8532527 Eh     change       -0.7314748E-03 Eh
 * total energy  :   -91.8537285 Eh     change       -0.4757680E-03 Eh
 * total energy  :   -91.8538612 Eh     change       -0.1326713E-03 Eh
 * total energy  :   -91.8539289 Eh     change       -0.6777281E-04 Eh
 * total energy  :   -91.8539903 Eh     change       -0.6133227E-04 Eh
 * total energy  :   -91.8540521 Eh     change       -0.6188180E-04 Eh
 * total energy  :   -91.8541332 Eh     change       -0.8105990E-04 Eh
 * total energy  :   -91.8550942 Eh     change       -0.5068860E-06 Eh
 * total energy  :   -91.8550949 Eh     change       -0.6930772E-06 Eh
 * total energy  :   -91.8550956 Eh     change       -0.7284575E-06 Eh
 * total energy  :   -91.8550961 Eh     change       -0.5537145E-06 Eh
 * total energy  :   -91.8550965 Eh     change       -0.3952322E-06 Eh
 * total energy  :   -91.8550969 Eh     change       -0.3662329E-06 Eh
 * total energy  :   -91.8550973 Eh     change       -0.3731262E-06 Eh
 * total energy  :   -91.8550977 Eh     change       -0.4543464E-06 Eh
 * total energy  :   -91.8550977 Eh     change       -0.5730399E-08 Eh
   *** GEOMETRY OPTIMIZATION CONVERGED AFTER 94 ITERATIONS ***

 final structure:
================
56
 xtb: 6.7.1 (edcfbbe)
O            4.28703113974626       -0.88900872076465       -0.40650567257093
C            5.14862405741540       -0.15727767338532        0.02188994788449
C            4.86426785818339        1.28534539063342        0.42976356054340
C            3.59496056244189        1.79005561712381       -0.18336982059479
C            2.36239816047059        1.21508578118078        0.09678084694483
C            1.24851862306839        1.73478686798208       -0.56515869218297
C           -0.11055114675171        1.21862998987211       -0.38402230796523
C           -0.46711378342856        0.41528878494232        0.69883915529786
C           -1.75844277409767       -0.05207691629055        0.83105080878239
C           -2.72398885750144        0.26964157624903       -0.11951229033923
N           -4.04109917661713       -0.21356182991799        0.01599877768656
C           -4.30042083975754       -1.58621721379301       -0.01153221252281
C           -3.30128522513655       -2.52652234593946       -0.22955574185969
C           -3.59415614524320       -3.88172351728148       -0.25420234415282
C           -4.89019363004117       -4.31942056332701       -0.07324216173296
C           -5.90442820365232       -3.39165097617373        0.11327392692346
C           -5.61814130460120       -2.03954371246449        0.13663681565331
O           -6.67936146379197       -1.18268818149399        0.29275174196999
C           -6.40943723670177        0.16328509772716        0.30616541486670
C           -7.48572684688734        1.01498681792825        0.47017652591824
C           -7.29091156826175        2.38717094814664        0.52806242388748
C           -6.01128515269647        2.89575531696379        0.43907185054235
C           -4.92830581252460        2.04592081844942        0.27207936407009
C           -5.10957135657598        0.67162760473235        0.17980768181844
C           -2.37682215536218        1.07643058303182       -1.20101645815237
C           -1.08752921911996        1.54644978690189       -1.32628197353832
N            1.38997077873114        2.75067629474558       -1.42467357040606
C            2.60128626291362        3.22377443356910       -1.61056862997864
N            3.71395703128072        2.80116232991148       -1.03937688633709
C            6.54972469500306       -0.61595809544656        0.18660939617801
C            6.93310691027485       -1.77304523991159       -0.49313032190226
C            8.22124301561994       -2.25883719246496       -0.38516390950863
C            9.14165136551211       -1.60162647225264        0.41537432697340
C            8.76692306555484       -0.46028329234504        1.10666165460457
C            7.48160836028985        0.03609491160735        0.99283188141848
H            5.68404869897732        1.93245568557903        0.11799281217069
H            4.78518434379194        1.30164107122694        1.52062916186058
H            2.28995341948302        0.38179246556024        0.77422711876742
H            0.25718078047713        0.16869673730633        1.45967657632369
H           -2.03240197778427       -0.66501556955897        1.67734132161585
H           -2.28657006634772       -2.19812085594257       -0.39075662678751
H           -2.79657418136657       -4.58929064335534       -0.42084356168140
H           -5.12283763482980       -5.37249934651900       -0.08718838162401
H           -6.93084627476185       -3.69792509075634        0.23740225789955
H           -8.46976170209273        0.58259037807662        0.55653750348902
H           -8.13716646433991        3.04401856353982        0.65327356218049
H           -5.84037990624228        3.95942683548888        0.50220192187289
H           -3.93219719844872        2.45660705415929        0.22100375079778
H           -3.12441920504367        1.32285372198698       -1.94055039870425
H           -0.80579911223900        2.16916387051975       -2.16053656097782
H            2.69894165738099        4.04767980628530       -2.30708044649650
H            6.19966422578810       -2.27289442339332       -1.10814881722564
H            8.50879236279816       -3.15046410955975       -0.92192202454138
H           10.14948970167942       -1.97914710403218        0.50418849036162
H            9.48223877615399        0.04621366660896        1.73770517157759
H            7.20696076920600        0.91949127833278        1.54833206088774

          :  Hamiltonian                  GFN2-xTB          :
         :: gradient norm              0.000049343623 Eh/a0 ::
         :: HOMO-LUMO gap              1.383616478860 eV    ::
         :: SCC energy               -93.406565893926 Eh    ::
         :: -> dispersion             -0.069746366906 Eh    ::
         :: repulsion energy           1.551468154581 Eh    ::

    * Orbital Energies and Occupations

         #    Occupation            Energy/Eh            Energy/eV
      -------------------------------------------------------------
         1        2.0000           -0.7242058             -19.7066
       ...           ...                  ...                  ...
        72        2.0000           -0.4301566             -11.7052
        73        2.0000           -0.4252297             -11.5711
        74        2.0000           -0.4240649             -11.5394
        75        2.0000           -0.4233682             -11.5204
        76        2.0000           -0.4158632             -11.3162
        77        2.0000           -0.4122009             -11.2166
        78        2.0000           -0.4088747             -11.1260
        79        2.0000           -0.4055219             -11.0348
        80        2.0000           -0.4035511             -10.9812
        81        2.0000           -0.3963604             -10.7855
        82        2.0000           -0.3864022             -10.5145
        83        2.0000           -0.3649192              -9.9300
        84        2.0000           -0.3396200              -9.2415 (HOMO)
        85                         -0.2887731              -7.8579 (LUMO)
        86                         -0.2786218              -7.5817
        87                         -0.2495302              -6.7901
        88                         -0.2419583              -6.5840
        89                         -0.2354298              -6.4064
        90                         -0.2340804              -6.3697
        91                         -0.2258622              -6.1460
        92                         -0.2192066              -5.9649
        93                         -0.2084095              -5.6711
        94                         -0.2075833              -5.6486
        95                         -0.1913210              -5.2061
       ...                                ...                  ...
       161                          0.6803991              18.5146
      -------------------------------------------------------------
                  HL-Gap            0.0508469 Eh            1.3836 eV

     #   Z          covCN         q      C6AA      α(0)
     1   8 O        0.857    -0.361    20.915     6.132
     2   6 C        2.822     0.236    23.067     7.870
     3   6 C        3.811    -0.095    22.298     6.721
     4   6 C        2.981     0.123    25.287     8.249
     5   6 C        2.911    -0.055    29.363     8.885
     6   6 C        2.978     0.111    25.539     8.290
     7   6 C        2.978     0.003    27.948     8.672
     8   6 C        2.922    -0.030    28.748     8.793
     9   6 C        2.920    -0.041    29.017     8.834
    10   6 C        2.921     0.068    26.469     8.437
    11   7 N        2.751    -0.070    22.594     7.060
    12   6 C        2.922     0.042    27.049     8.529
    13   6 C        2.924    -0.060    29.491     8.906
    14   6 C        2.919    -0.039    28.961     8.825
    15   6 C        2.919    -0.040    29.005     8.832
    16   6 C        2.920    -0.056    29.403     8.892
    17   6 C        2.884     0.124    25.268     8.241
    18   8 O        1.709    -0.256    18.237     5.766
    19   6 C        2.884     0.125    25.267     8.241
    20   6 C        2.920    -0.056    29.403     8.892
    21   6 C        2.919    -0.040    29.006     8.832
    22   6 C        2.919    -0.039    28.963     8.825
    23   6 C        2.924    -0.060    29.496     8.906
    24   6 C        2.922     0.042    27.048     8.529
    25   6 C        2.919    -0.040    28.985     8.829
    26   6 C        2.926    -0.025    28.618     8.773
    27   7 N        1.842    -0.254    27.462     7.766
    28   6 C        2.910     0.153    24.693     8.148
    29   7 N        1.840    -0.260    27.622     7.789
    30   6 C        2.971    -0.015    28.372     8.737
    31   6 C        2.927    -0.016    28.404     8.740
    32   6 C        2.917    -0.025    28.632     8.775
    33   6 C        2.920    -0.020    28.518     8.757
    34   6 C        2.918    -0.026    28.658     8.779
    35   6 C        2.920    -0.028    28.701     8.785
    36   1 H        0.925     0.078     1.999     2.211
    37   1 H        0.924     0.072     2.068     2.249
    38   1 H        0.926     0.049     2.337     2.391
    39   1 H        0.926     0.041     2.437     2.441
    40   1 H        0.926     0.043     2.409     2.427
    41   1 H        0.926     0.036     2.504     2.474
    42   1 H        0.926     0.036     2.501     2.473
    43   1 H        0.926     0.037     2.484     2.465
    44   1 H        0.926     0.050     2.324     2.384
    45   1 H        0.926     0.050     2.323     2.383
    46   1 H        0.926     0.037     2.484     2.465
    47   1 H        0.926     0.036     2.505     2.475
    48   1 H        0.926     0.036     2.505     2.475
    49   1 H        0.926     0.045     2.378     2.411
    50   1 H        0.926     0.065     2.136     2.285
    51   1 H        0.925     0.041     2.432     2.439
    52   1 H        0.926     0.061     2.189     2.314
    53   1 H        0.926     0.043     2.410     2.428
    54   1 H        0.926     0.042     2.426     2.436
    55   1 H        0.926     0.040     2.445     2.445
    56   1 H        0.926     0.041     2.442     2.444

molecular dipole:
                 x           y           z       tot (Debye)
 q only:        1.343       0.004       0.688
   full:        1.569      -0.139       1.002       4.744

 projected vibrational frequencies (cm⁻¹)
eigval :       -0.00    -0.00    -0.00    -0.00     0.00     0.00
eigval :        6.92    11.10    17.39    25.76    30.01    37.72
eigval :       49.10    58.51    64.20    90.04   100.09   116.56
eigval :      125.17   145.60   165.64   183.19   203.75   213.15
eigval :      248.80   264.02   269.46   293.93   301.26   315.77
eigval :      363.85   371.85   375.68   378.51   382.08   405.85
eigval :      418.38   427.82   431.46   437.21   449.73   459.21
eigval :      487.40   510.23   522.50   541.45   558.21   568.17
eigval :      581.64   584.48   587.31   596.92   611.83   639.18
eigval :      657.08   660.51   661.56   669.78   686.88   695.59
eigval :      739.55   750.08   761.97   779.05   779.24   803.99
eigval :      806.36   821.84   843.15   855.16   863.15   865.95
eigval :      873.77   874.03   896.81   897.60   898.59   905.41
eigval :      910.48   913.47   914.83   917.16   922.82   923.73
eigval :      930.84   933.72   935.15   937.35   965.69  1014.80
eigval :     1026.01  1034.41  1082.44  1085.66  1090.39  1091.76
eigval :     1095.10  1108.34  1121.76  1123.99  1131.52  1171.56
eigval :     1175.70  1180.42  1182.72  1188.11  1193.21  1194.60
eigval :     1201.53  1209.53  1223.00  1239.92  1243.17  1245.79
eigval :     1261.83  1266.74  1272.55  1278.77  1294.66  1310.68
eigval :     1313.27  1323.30  1326.04  1339.97  1355.04  1375.94
eigval :     1404.99  1415.45  1424.24  1429.64  1435.64  1443.41
eigval :     1462.61  1482.80  1488.70  1506.20  1525.62  1558.32
eigval :     1564.27  1567.69  1580.55  1580.79  1589.62  1590.98
eigval :     1593.35  1603.74  1727.17  2949.05  3009.66  3048.08
eigval :     3079.44  3083.58  3084.58  3087.52  3088.94  3089.12
eigval :     3092.33  3097.21  3098.10  3098.66  3098.78  3100.21
eigval :     3106.32  3106.91  3111.26  3112.32  3112.90  3118.92

   temp. (K)  partition function   enthalpy   heat capacity  entropy
                                   cal/mol     cal/K/mol   cal/K/mol   J/K/mol
 298.15  VIB  0.230E+14            15972.646     99.615    100.433
         ROT  0.450E+08              888.752      2.981     38.000
         INT  0.103E+22            16861.399    102.596    138.433
         TR   0.941E+28             1481.254      4.968     44.218
         TOT                       18342.6527   107.5639   182.6505   764.2096

       T/K    H(0)-H(T)+PV         H(T)/Eh          T*S/Eh         G(T)/Eh
   ------------------------------------------------------------------------
    298.15    0.292309E-01    0.451613E+00    0.867831E-01    0.364830E+00
   ------------------------------------------------------------------------

         :::::::::::::::::::::::::::::::::::::::::::::::::::::
         ::                  THERMODYNAMIC                  ::
         :::::::::::::::::::::::::::::::::::::::::::::::::::::
         :: total free energy         -91.490267939506 Eh   ::
         ::.................................................::
         :: total energy              -91.855097739345 Eh   ::
         :: zero point energy           0.422382062518 Eh   ::
         :: G(RRHO) w/o ZPVE           -0.057552262680 Eh   ::
         :: G(RRHO) contrib.            0.364829799838 Eh   ::
         :::::::::::::::::::::::::::::::::::::::::::::::::::::

           -------------------------------------------------
          | TOTAL ENERGY              -91.855097739345 Eh   |
          | TOTAL ENTHALPY            -91.403484799076 Eh   |
          | TOTAL FREE ENERGY         -91.490267939506 Eh   |
          | GRADIENT NORM               0.000049345257 Eh/α |
          | HOMO-LUMO GAP               1.383615181170 eV   |
           -------------------------------------------------

 * finished run on 2025/07/20 at 12:44:23.457
