   * xtb version 6.7.1 (edcfbbe) compiled by 'albert@albert-system' on 2024-07-22

   ID    Z sym.   atoms
    1    8 O      1, 18
    2    6 C      2-10, 12-17, 19-26, 28, 30-35
    3    7 N      11, 27, 29
    4    1 H      36-56

          program call               : xtb data2507/gas/MPA/MPA_gas_S0_crest.xyz --gfn 2 --ohess vtight --parallel 40 --molden --ceasefiles --namespace data2507/gas/MPA/MPA_gas_S0_finalOpt
          :  Hamiltonian                  GFN2-xTB          :
 * total energy  :   -91.8582095 Eh     change       -0.2037908E-08 Eh
 * total energy  :   -91.8582109 Eh     change       -0.1368177E-05 Eh
 * total energy  :   -91.8582128 Eh     change       -0.1888116E-05 Eh
 * total energy  :   -91.8582168 Eh     change       -0.3998380E-05 Eh
 * total energy  :   -91.8582220 Eh     change       -0.5177485E-05 Eh
 * total energy  :   -91.8582268 Eh     change       -0.4776560E-05 Eh
 * total energy  :   -91.8582313 Eh     change       -0.4512902E-05 Eh
 * total energy  :   -91.8582357 Eh     change       -0.4435956E-05 Eh
 * total energy  :   -91.8582390 Eh     change       -0.3316622E-05 Eh
 * total energy  :   -91.8582415 Eh     change       -0.2435866E-05 Eh
 * total energy  :   -91.8582686 Eh     change       -0.4089306E-06 Eh
 * total energy  :   -91.8582691 Eh     change       -0.4115702E-06 Eh
 * total energy  :   -91.8582695 Eh     change       -0.4553613E-06 Eh
 * total energy  :   -91.8582700 Eh     change       -0.4909147E-06 Eh
 * total energy  :   -91.8582705 Eh     change       -0.4748704E-06 Eh
 * total energy  :   -91.8582709 Eh     change       -0.4072898E-06 Eh
 * total energy  :   -91.8582712 Eh     change       -0.3274291E-06 Eh
 * total energy  :   -91.8582715 Eh     change       -0.2668151E-06 Eh
 * total energy  :   -91.8582715 Eh     change       -0.2932168E-08 Eh
   *** GEOMETRY OPTIMIZATION CONVERGED AFTER 44 ITERATIONS ***

 final structure:
================
56
 xtb: 6.7.1 (edcfbbe)
O            4.72400091475975        1.98596679363294        1.29896687349778
C            5.35557767605517        1.38863712522480        0.45696753285464
C            5.02171472317209        1.55322079152505       -1.02382969990614
C            3.95950500665372        0.54703985314763       -1.35826309220784
C            2.64641115176859        0.72716154210420       -0.94418087743870
C            1.72756662995151       -0.26992058365191       -1.27438187174600
C            0.31420026784398       -0.20571250609799       -0.89983097393968
C           -0.13046506678966        0.56060141551076        0.17750844447798
C           -1.47176678071462        0.60713214909755        0.49617390613075
C           -2.40050641096428       -0.10468286359682       -0.26024217639346
N           -3.77097283264951       -0.04148677579682        0.05745544527959
C           -4.47153719836279       -1.19443838562617        0.42430216484760
C           -3.85144012281243       -2.43067266252641        0.55599100936725
C           -4.57663141049772       -3.55387587238507        0.92376610048910
C           -5.92966526839385       -3.45937959284290        1.17802195221920
C           -6.55682360871345       -2.22582744189270        1.08554432940904
C           -5.83782029952882       -1.10250336800844        0.72172152008353
O           -6.52165619091689        0.08710462314595        0.68778163249874
C           -5.81798013305753        1.21188584960087        0.33729237043826
C           -6.52061319880163        2.40193889514146        0.30063743429874
C           -5.88947951434516        3.57706159857297       -0.07927534880009
C           -4.55813082457047        3.54617258523497       -0.44068692159452
C           -3.84833303413396        2.35557547950230       -0.40304615327700
C           -4.45598762774468        1.17614418164950        0.00922465834311
C           -1.96011944484363       -0.88109148328122       -1.33074066855649
C           -0.61821989796739       -0.93499395347384       -1.63955371228482
N            2.11581938167743       -1.33604328875100       -1.98444873496909
C            3.38250893198715       -1.40917818099680       -2.32192352921996
N            4.33080499184844       -0.53396587002312       -2.03929086006361
C            6.45880702114665        0.46678380350905        0.79907254899158
C            7.06738684353056        0.61694943167331        2.04664809179928
C            8.10878543502517       -0.20816148964899        2.42189487067122
C            8.54269016411922       -1.20540075191989        1.56250471774262
C            7.92889392763540       -1.37524998599248        0.33147903132326
C            6.89659357273468       -0.54204920147232       -0.05893268211499
H            5.89692090295690        1.39796273956119       -1.65009764293459
H            4.62389213801213        2.55939854717153       -1.16404977518755
H            2.36340182570108        1.61089803495486       -0.39715328454769
H            0.57532501487654        1.09853555254203        0.79184979896135
H           -1.81113283730345        1.18954976344651        1.34008910900019
H           -2.79102326257395       -2.51707181712032        0.37867191545100
H           -4.06887361007491       -4.50193653521782        1.01234601020302
H           -6.49941541510651       -4.33089718080964        1.45914682562596
H           -7.60767490896021       -2.11164873518233        1.29852687329488
H           -7.56505519269002        2.38568155410251        0.56808957428078
H           -6.44483242575138        4.50131982391682       -0.10143164266063
H           -4.05752206531862        4.44740013733210       -0.75970641144526
H           -2.81332336484030        2.34399029192152       -0.70645671258592
H           -2.67978891291403       -1.43161710101268       -1.91845182338387
H           -0.26591014212624       -1.53060070187792       -2.46692904397054
H            3.68481601234649       -2.27972314243889       -2.89108641287093
H            6.71035244693452        1.39604856989760        2.70379699236338
H            8.58128954322185       -0.07825729092922        3.38418206638982
H            9.35596241868194       -1.85358622818832        1.85420153599532
H            8.25948651690875       -2.16168793468821       -0.33077566553830
H            6.41235369770990       -0.70070913927454       -1.01037159019057

          :  Hamiltonian                  GFN2-xTB          :
         :: gradient norm              0.000044763247 Eh/a0 ::
         :: HOMO-LUMO gap              1.425500880467 eV    ::
         :: SCC energy               -93.409700794545 Eh    ::
         :: -> dispersion             -0.070777672059 Eh    ::
         :: repulsion energy           1.551429307534 Eh    ::

    * Orbital Energies and Occupations

         #    Occupation            Energy/Eh            Energy/eV
      -------------------------------------------------------------
         1        2.0000           -0.7266273             -19.7725
       ...           ...                  ...                  ...
        72        2.0000           -0.4327487             -11.7757
        73        2.0000           -0.4264325             -11.6038
        74        2.0000           -0.4198420             -11.4245
        75        2.0000           -0.4187951             -11.3960
        76        2.0000           -0.4186516             -11.3921
        77        2.0000           -0.4145540             -11.2806
        78        2.0000           -0.4112852             -11.1916
        79        2.0000           -0.4106525             -11.1744
        80        2.0000           -0.4053952             -11.0314
        81        2.0000           -0.3978766             -10.8268
        82        2.0000           -0.3887735             -10.5791
        83        2.0000           -0.3727174             -10.1422
        84        2.0000           -0.3422847              -9.3140 (HOMO)
        85                         -0.2898985              -7.8885 (LUMO)
        86                         -0.2805365              -7.6338
        87                         -0.2553591              -6.9487
        88                         -0.2386142              -6.4930
        89                         -0.2368392              -6.4447
        90                         -0.2361385              -6.4257
        91                         -0.2282515              -6.2110
        92                         -0.2246202              -6.1122
        93                         -0.2112465              -5.7483
        94                         -0.2042245              -5.5572
        95                         -0.1937439              -5.2720
       ...                                ...                  ...
       161                          0.6769684              18.4212
      -------------------------------------------------------------
                  HL-Gap            0.0523862 Eh            1.4255 eV

     #   Z          covCN         q      C6AA      α(0)
     1   8 O        0.857    -0.364    20.982     6.141
     2   6 C        2.828     0.236    23.071     7.871
     3   6 C        3.811    -0.095    22.294     6.721
     4   6 C        2.985     0.123    25.302     8.251
     5   6 C        2.912    -0.062    29.553     8.914
     6   6 C        2.979     0.112    25.533     8.289
     7   6 C        2.979     0.001    27.990     8.678
     8   6 C        2.922    -0.031    28.767     8.795
     9   6 C        2.920    -0.041    29.008     8.832
    10   6 C        2.921     0.069    26.459     8.435
    11   7 N        2.751    -0.069    22.577     7.057
    12   6 C        2.922     0.042    27.053     8.529
    13   6 C        2.924    -0.060    29.486     8.905
    14   6 C        2.919    -0.038    28.957     8.824
    15   6 C        2.919    -0.040    28.993     8.830
    16   6 C        2.920    -0.056    29.395     8.891
    17   6 C        2.884     0.125    25.262     8.240
    18   8 O        1.709    -0.255    18.219     5.763
    19   6 C        2.884     0.125    25.258     8.239
    20   6 C        2.920    -0.056    29.396     8.891
    21   6 C        2.919    -0.040    28.995     8.830
    22   6 C        2.919    -0.039    28.962     8.825
    23   6 C        2.924    -0.060    29.491     8.906
    24   6 C        2.922     0.042    27.053     8.529
    25   6 C        2.920    -0.040    28.997     8.830
    26   6 C        2.925    -0.025    28.619     8.773
    27   7 N        1.842    -0.254    27.461     7.766
    28   6 C        2.910     0.153    24.691     8.148
    29   7 N        1.839    -0.264    27.700     7.800
    30   6 C        2.972    -0.014    28.363     8.736
    31   6 C        2.926    -0.017    28.444     8.746
    32   6 C        2.917    -0.026    28.663     8.779
    33   6 C        2.920    -0.021    28.528     8.759
    34   6 C        2.919    -0.026    28.651     8.778
    35   6 C        2.919    -0.031    28.766     8.795
    36   1 H        0.925     0.070     2.083     2.257
    37   1 H        0.924     0.071     2.080     2.255
    38   1 H        0.926     0.051     2.313     2.378
    39   1 H        0.926     0.046     2.372     2.409
    40   1 H        0.926     0.045     2.378     2.412
    41   1 H        0.926     0.037     2.496     2.470
    42   1 H        0.926     0.037     2.495     2.470
    43   1 H        0.926     0.038     2.473     2.459
    44   1 H        0.926     0.050     2.314     2.379
    45   1 H        0.926     0.051     2.313     2.378
    46   1 H        0.926     0.038     2.473     2.459
    47   1 H        0.926     0.036     2.503     2.474
    48   1 H        0.926     0.035     2.520     2.483
    49   1 H        0.926     0.046     2.372     2.408
    50   1 H        0.926     0.063     2.170     2.303
    51   1 H        0.925     0.043     2.414     2.430
    52   1 H        0.926     0.057     2.239     2.340
    53   1 H        0.926     0.040     2.445     2.445
    54   1 H        0.926     0.040     2.453     2.449
    55   1 H        0.926     0.040     2.443     2.444
    56   1 H        0.926     0.065     2.146     2.291

molecular dipole:
                 x           y           z       tot (Debye)
 q only:        0.765      -0.281      -0.317
   full:        0.869      -0.067      -0.251       2.304

 projected vibrational frequencies (cm⁻¹)
eigval :       -0.00    -0.00     0.00     0.00     0.00     0.00
eigval :        9.03    10.74    23.63    24.80    34.40    42.29
eigval :       51.08    65.76    70.14    83.70    98.54   117.87
eigval :      131.09   152.67   166.20   184.43   205.74   213.93
eigval :      247.60   257.54   268.59   285.56   308.57   360.07
eigval :      366.93   376.62   378.60   379.42   386.11   404.56
eigval :      417.42   427.23   432.11   441.43   450.74   477.39
eigval :      491.79   510.10   521.49   522.89   544.92   576.31
eigval :      581.36   586.78   587.45   604.05   613.33   639.40
eigval :      659.93   660.68   661.81   686.46   686.93   706.77
eigval :      738.24   752.80   758.19   778.89   779.48   788.25
eigval :      805.05   821.57   844.78   855.47   863.50   866.50
eigval :      875.91   879.71   896.19   897.25   898.58   908.92
eigval :      913.80   915.07   916.48   917.30   926.37   930.81
eigval :      933.14   934.44   936.35   956.61   970.95  1014.47
eigval :     1029.00  1034.16  1082.62  1087.34  1090.69  1091.92
eigval :     1108.54  1110.75  1121.73  1125.48  1131.60  1171.25
eigval :     1175.65  1179.58  1180.95  1184.63  1192.92  1200.53
eigval :     1202.06  1220.32  1223.47  1240.85  1243.43  1246.15
eigval :     1258.81  1262.09  1267.32  1281.87  1289.88  1310.53
eigval :     1313.05  1321.46  1324.98  1339.11  1354.22  1372.47
eigval :     1405.11  1423.74  1428.44  1429.02  1443.20  1445.46
eigval :     1462.83  1483.19  1488.06  1505.64  1520.07  1556.55
eigval :     1561.60  1567.86  1578.67  1580.69  1589.25  1589.84
eigval :     1592.81  1603.45  1720.19  2994.73  3034.81  3050.10
eigval :     3077.80  3083.62  3085.25  3088.12  3089.03  3089.69
eigval :     3090.86  3096.77  3097.01  3099.16  3099.33  3099.38
eigval :     3106.44  3107.23  3109.09  3112.04  3112.88  3113.46

   temp. (K)  partition function   enthalpy   heat capacity  entropy
                                   cal/mol     cal/K/mol   cal/K/mol   J/K/mol
 298.15  VIB  0.843E+13            15867.868     99.699     99.350
         ROT  0.423E+08              888.752      2.981     37.877
         INT  0.356E+21            16756.621    102.680    137.228
         TR   0.941E+28             1481.254      4.968     44.218
         TOT                       18237.8747   107.6479   181.4451   759.1664

       T/K    H(0)-H(T)+PV         H(T)/Eh          T*S/Eh         G(T)/Eh
   ------------------------------------------------------------------------
    298.15    0.290639E-01    0.452015E+00    0.862104E-01    0.365804E+00
   ------------------------------------------------------------------------

         :::::::::::::::::::::::::::::::::::::::::::::::::::::
         ::                  THERMODYNAMIC                  ::
         :::::::::::::::::::::::::::::::::::::::::::::::::::::
         :: total free energy         -91.492467124742 Eh   ::
         ::.................................................::
         :: total energy              -91.858271487011 Eh   ::
         :: zero point energy           0.422950888526 Eh   ::
         :: G(RRHO) w/o ZPVE           -0.057146526257 Eh   ::
         :: G(RRHO) contrib.            0.365804362269 Eh   ::
         :::::::::::::::::::::::::::::::::::::::::::::::::::::

           -------------------------------------------------
          | TOTAL ENERGY              -91.858271487011 Eh   |
          | TOTAL ENTHALPY            -91.406256695178 Eh   |
          | TOTAL FREE ENERGY         -91.492467124742 Eh   |
          | GRADIENT NORM               0.000044765504 Eh/α |
          | HOMO-LUMO GAP               1.425500503305 eV   |
           -------------------------------------------------

 * finished run on 2025/07/20 at 12:47:22.037
