   * xtb version 6.7.1 (edcfbbe) compiled by 'albert@albert-system' on 2024-07-22

   ID    Z sym.   atoms
    1    6 C      1-20, 22-39, 41-71, 73-86
    2    7 N      21, 40, 72
    3    1 H      87-161

          program call               : xtb data2507/gas/SAF-2CzB/SAF-2CzB.xyz --gfn 2 --ohess vtight --parallel 40 --molden --ceasefiles --namespace data2507/gas/SAF-2CzB/SAF-2CzB_gas_S0_preOpt
          :  Hamiltonian                  GFN2-xTB          :
 * total energy  :  -224.9075345 Eh     change       -0.3885759E-08 Eh
 * total energy  :  -224.9337604 Eh     change       -0.2622588E-01 Eh
 * total energy  :  -224.9428371 Eh     change       -0.9076727E-02 Eh
 * total energy  :  -224.9452707 Eh     change       -0.2433619E-02 Eh
 * total energy  :  -224.9466747 Eh     change       -0.1403975E-02 Eh
 * total energy  :  -224.9474675 Eh     change       -0.7927908E-03 Eh
 * total energy  :  -224.9480067 Eh     change       -0.5392337E-03 Eh
 * total energy  :  -224.9484470 Eh     change       -0.4402456E-03 Eh
 * total energy  :  -224.9487553 Eh     change       -0.3083094E-03 Eh
 * total energy  :  -224.9489314 Eh     change       -0.1760823E-03 Eh
 * total energy  :  -224.9499156 Eh     change       -0.5079700E-06 Eh
 * total energy  :  -224.9499160 Eh     change       -0.4343222E-06 Eh
 * total energy  :  -224.9499165 Eh     change       -0.4230329E-06 Eh
 * total energy  :  -224.9499170 Eh     change       -0.5550636E-06 Eh
 * total energy  :  -224.9499178 Eh     change       -0.7597717E-06 Eh
 * total energy  :  -224.9499187 Eh     change       -0.9325404E-06 Eh
 * total energy  :  -224.9499197 Eh     change       -0.9634365E-06 Eh
 * total energy  :  -224.9499207 Eh     change       -0.1008226E-05 Eh
 * total energy  :  -224.9499207 Eh     change       -0.6022731E-08 Eh
   *** GEOMETRY OPTIMIZATION CONVERGED AFTER 152 ITERATIONS ***

 final structure:
================
161
 xtb: 6.7.1 (edcfbbe)
C          -11.86899583313268        2.21141960886350        5.48311404327089
C          -12.50438647834565        1.68927682842194        4.19159491482025
C          -13.56927765915682        2.70038439203790        3.74334993977866
C          -13.16759430293856        0.33965046888516        4.50158953833794
C          -11.49491301418688        1.50014494182071        3.06763361828350
C          -10.13872080692412        1.80161722843597        3.21841797111900
C           -9.21756681236233        1.62635447803801        2.20180500579181
C           -9.66348691652136        1.12331248758970        0.99143488529727
C          -11.03315737772959        0.83599611253845        0.80423467754104
C          -11.93414856949865        1.02160848051148        1.84018293195369
C          -11.17361761696185        0.39085273087306       -0.55530629312252
C          -12.25520292482121       -0.04064490883330       -1.30572468252757
C          -12.07371221690073       -0.43867639216835       -2.62375262635145
C          -13.28078752144061       -0.89976385901403       -3.42901681831908
C          -12.92351428778943       -1.30411177004392       -4.86188992326064
C          -14.30134011608681        0.24522675625691       -3.49951450747771
C          -13.91185558752258       -2.11572517557012       -2.73584745690547
C          -10.78234228252685       -0.40838667629160       -3.15707894238385
C           -9.68480949333519        0.01762246994763       -2.43123671606925
C           -9.88330221189088        0.43759737856108       -1.12696178070773
N           -8.97672606938871        0.87943631277396       -0.18273859166678
C           -7.60516851621740        1.06990171188902       -0.38207842925205
C           -6.68431257409851        0.55519252248637        0.52704036450441
C           -5.33332310110750        0.76325041246257        0.33992180403265
C           -4.86397333612004        1.48431187041472       -0.75686685761891
C           -3.42585582088144        1.72556721026956       -0.92862817840201
C           -2.96821852612403        2.97644013942136       -1.34536088964440
C           -1.61803573186601        3.24719884323191       -1.47356316590196
C           -0.70670138503203        2.24478034357811       -1.18346354161781
C           -1.16066471342497        0.97981835022474       -0.78144256060141
C           -2.50221620845468        0.71442862828954       -0.65053825223506
C            0.00497366671325        0.04497029358402       -0.52385132436297
C            1.18292927787461        0.96278904250908       -0.78862255781230
C            2.52114177008948        0.67742780006666       -0.66660957307516
C            3.45806147405819        1.67472306200185       -0.95045774624297
C            4.89302972349850        1.41085393032802       -0.79000699117759
C            5.35915519623338        0.67400444736598        0.29788403708755
C            6.70839661245560        0.45040728896503        0.47836416973255
C            7.63003899469535        0.94692362082789       -0.44022331733300
N            8.99945383753689        0.72993361794407       -0.25653337965846
C            9.98630725953985        1.69533313884171       -0.31699861337898
C            9.89266905044442        3.06087456766361       -0.52546889817594
C           11.05583493883308        3.80861348382542       -0.50519579818681
C           12.31262594941930        3.24228690423380       -0.27473475747295
C           13.59118598205511        4.06873884884443       -0.25757494113210
C           14.54960688997644        3.53140471943637       -1.32997457212869
C           14.24367452201946        3.95212693779422        1.12735066249604
C           13.34654377930833        5.55300853190083       -0.54289501587299
C           12.39019640988085        1.87589042379930       -0.04041819477325
C           11.24078517053389        1.10223194603612       -0.05548546354239
C           10.99176685113920       -0.29509676750960        0.16912630609116
C           11.82315860007157       -1.37083481326467        0.45098444284961
C           11.28273991017411       -2.63744028638558        0.59887158874764
C           12.13101540020813       -3.86012402526796        0.91803954475769
C           13.61623324364513       -3.52146090652730        1.07309599735592
C           11.99243134186865       -4.88220289683320       -0.21905365607755
C           11.64548711838012       -4.47940300714814        2.23636062701012
C            9.89984264911683       -2.79697053918465        0.43804850876391
C            9.05042461166667       -1.74621101544397        0.15759773556602
C            9.59920109124449       -0.47857428391913        0.04027940899916
C            7.17260765062239        1.66850030478859       -1.54016215635149
C            5.82288502576516        1.90246170742703       -1.70459272729695
C            3.01610840593065        2.93242637220605       -1.36375852093489
C            1.66934254816891        3.22306816214887       -1.48356821838269
C            0.74510521143701        2.23418594582886       -1.18786187234547
C           -0.00391897563957       -1.09752113019167       -1.51182591950454
C           -0.01962270169725       -0.80677390390524       -2.86739165729356
C           -0.02071984822383       -1.81081480103291       -3.81772305839665
C           -0.00300080999981       -3.13202492735303       -3.40512925101138
C            0.01263125368111       -3.44078084009446       -2.06031934788729
C            0.00970722099706       -2.43091985903914       -1.09433088021893
N            0.02429472374165       -2.75435809727823        0.25283122630092
C            0.03774272621869       -4.12607503583346        0.63390564192404
C            1.24677108088021       -4.76894836644797        0.86581564089715
C            1.25680048950184       -6.10161929295249        1.23758673240942
C            0.06498293615756       -6.79318775920822        1.37720340577915
C           -1.14046694028595       -6.15189003074981        1.14495162435697
C           -1.15771600284747       -4.81912522826029        0.77389939025163
C            0.01763709384571       -1.78318739902202        1.24029857641406
C            0.01695180976699       -2.14958257821860        2.58908854969226
C            0.01035781287636       -1.19063112655953        3.58145573823120
C            0.00281471169791        0.15428349154856        3.25315378002381
C            0.00064951058250        0.52365083020008        1.92079260239208
C            0.00742142312537       -0.42543959565377        0.90996082867873
C           -5.79234544270170        1.98379596346326       -1.66844509005083
C           -7.14529121680570        1.78308635511145       -1.48626796368642
H          -11.41404776329012        3.18730785042409        5.32995313190414
H          -12.63702180208901        2.31630262650326        6.24715321789532
H          -11.11652879886449        1.52069602406971        5.85671643497955
H          -14.10183474151027        2.35082870674805        2.86333058497864
H          -14.29410064096841        2.86095848246164        4.53896288779271
H          -13.10345340948368        3.65378358321177        3.50245667823206
H          -13.88476724923322        0.45043686295910        5.31247984897919
H          -12.41594081042542       -0.38750005374050        4.80205220086486
H          -13.69225286266673       -0.05271351987915        3.63502373190698
H           -9.77519621950871        2.19148216867722        4.15479487338733
H           -8.18148241612595        1.88999003738408        2.35341726373103
H          -12.97558573648392        0.79358166062515        1.67234372596370
H          -13.23166948492719       -0.06466073605708       -0.84672493963523
H          -12.22522446515457       -2.13785208383427       -4.87156972301481
H          -12.49124877078138       -0.46916521848131       -5.40856798107582
H          -13.82543657861462       -1.61644260557178       -5.38496527339985
H          -14.64103559084050        0.53481580633717       -2.50908305270453
H          -15.16879357655751       -0.05919393762860       -4.08175851685892
H          -13.85518750469212        1.11680163456264       -3.97418360950690
H          -14.76852743746670       -2.47061327908016       -3.30533939261161
H          -14.24882460372797       -1.86956474817188       -1.73282876484982
H          -13.18684401104103       -2.92376464855731       -2.66226643042192
H          -10.61171513870634       -0.72908282258987       -4.17148410985175
H           -8.70022265730314        0.00808441573253       -2.87460069225568
H           -7.03571954232277       -0.01483979157955        1.37416886410774
H           -4.62979513445636        0.37722130270869        1.06315988801728
H           -3.68723709248346        3.75816422301733       -1.54308724634664
H           -1.28322087147341        4.22592713801038       -1.78428389956126
H           -2.84113643282001       -0.26640883894640       -0.34968073062208
H            2.84723048252213       -0.30865864280011       -0.36883073583423
H            4.65581388192248        0.30383598469841        1.02954785299743
H            7.06001086526379       -0.09086854725577        1.34407493545442
H            8.93883846636754        3.54046594985499       -0.68708977429220
H           10.96632326169257        4.86938255668075       -0.67158003536859
H           15.46648705415672        4.11733008021386       -1.34255339733650
H           14.08624996259968        3.59370918799806       -2.31253645802423
H           14.81180930807711        2.49382396187079       -1.14340232690254
H           15.15141524482060        4.55092236859131        1.16716561935496
H           14.50471853616897        2.92280472780019        1.35667096932059
H           13.56025868257970        4.30881733872350        1.89529232945066
H           14.29557155310778        6.08562661212328       -0.52609851724175
H           12.70075513029139        5.99633782023914        0.21157057616235
H           12.89984838137943        5.69487651036389       -1.52433445067682
H           13.33691090584563        1.39865776380785        0.16123335674014
H           12.88146764202791       -1.19296984151816        0.54479844107407
H           14.02205881514660       -3.11021665241062        0.15169840626495
H           14.17197337702236       -4.42685205277420        1.30955609459263
H           13.77268477623742       -2.81072774786884        1.88132838680346
H           10.96328498686822       -5.21047239345972       -0.33466028545600
H           12.60780258754687       -5.75627621082285       -0.01538916790765
H           12.31695253720423       -4.44259216337097       -1.16000258226605
H           10.61032033809549       -4.80155288620619        2.16642579730668
H           11.72224163108234       -3.75268942982642        3.04260305975430
H           12.25438958325673       -5.34436390738837        2.49174284559031
H            9.46668058107698       -3.78138210131370        0.53145164562327
H            7.99256820074257       -1.91567047211836        0.02279915379516
H            7.88147304102653        2.03038867645432       -2.26988575404054
H            5.48023978638370        2.45092248031405       -2.56971926642148
H            3.74512124395608        3.70366492951798       -1.56587858852137
H            1.34704958214028        4.20665432645915       -1.79220318830974
H           -0.03038402234809        0.22821981080657       -3.17757933082389
H           -0.03341975353901       -1.56431169038963       -4.86817052028932
H           -0.00079218071521       -3.93014800223491       -4.13265659277562
H            0.02826646635837       -4.47464872914528       -1.74990882645495
H            2.16955868092183       -4.21916068403279        0.75341381194528
H            2.19694794510384       -6.60120851614915        1.41792617807501
H            0.07556408064202       -7.83314674685605        1.66711771462344
H           -2.07003089980700       -6.69051635039463        1.25347945127695
H           -2.09130794980435       -4.30842079142987        0.58939227278721
H            0.02073937419582       -3.19541814543219        2.85691289617959
H            0.01056264331242       -1.49871584961603        4.61658272783888
H           -0.00215212231464        0.90761438074771        4.02574914685803
H           -0.00646994979345        1.57004382411278        1.65082904246114
H           -5.44795444470088        2.52888966483428       -2.53501144987000
H           -7.85633895669843        2.19253020707115       -2.18823721719418

          :  Hamiltonian                  GFN2-xTB          :
         :: gradient norm              0.000058840276 Eh/a0 ::
         :: HOMO-LUMO gap              2.267752392259 eV    ::
         :: SCC energy              -229.051143176610 Eh    ::
         :: -> dispersion             -0.219909410850 Eh    ::
         :: repulsion energy           4.101222487952 Eh    ::

    * Orbital Energies and Occupations

         #    Occupation            Energy/Eh            Energy/eV
      -------------------------------------------------------------
         1        2.0000           -0.6703060             -18.2400
       ...           ...                  ...                  ...
       199        2.0000           -0.4016331             -10.9290
       200        2.0000           -0.3944230             -10.7328
       201        2.0000           -0.3943302             -10.7303
       202        2.0000           -0.3938657             -10.7176
       203        2.0000           -0.3901975             -10.6178
       204        2.0000           -0.3898524             -10.6084
       205        2.0000           -0.3892145             -10.5911
       206        2.0000           -0.3711268             -10.0989
       207        2.0000           -0.3684798             -10.0268
       208        2.0000           -0.3680637             -10.0155
       209        2.0000           -0.3503594              -9.5338
       210        2.0000           -0.3490871              -9.4991
       211        2.0000           -0.3461254              -9.4186 (HOMO)
       212                         -0.2627870              -7.1508 (LUMO)
       213                         -0.2401601              -6.5351
       214                         -0.2389977              -6.5035
       215                         -0.2380224              -6.4769
       216                         -0.2351039              -6.3975
       217                         -0.2326135              -6.3297
       218                         -0.2283450              -6.2136
       219                         -0.2261777              -6.1546
       220                         -0.2261364              -6.1535
       221                         -0.2229397              -6.0665
       222                         -0.2204521              -5.9988
       ...                                ...                  ...
       419                          0.7541512              20.5215
      -------------------------------------------------------------
                  HL-Gap            0.0833384 Eh            2.2678 eV

     #   Z          covCN         q      C6AA      α(0)
     1   6 C        3.761    -0.106    22.578     6.774
     2   6 C        3.903     0.026    20.087     6.371
     3   6 C        3.762    -0.105    22.545     6.769
     4   6 C        3.762    -0.105    22.545     6.769
     5   6 C        2.972    -0.003    28.093     8.694
     6   6 C        2.928    -0.044    29.093     8.846
     7   6 C        2.909    -0.054    29.353     8.884
     8   6 C        3.078     0.043    26.950     8.511
     9   6 C        3.065    -0.020    28.434     8.744
    10   6 C        2.920    -0.040    28.983     8.828
    11   6 C        3.065    -0.020    28.435     8.744
    12   6 C        2.920    -0.040    28.983     8.828
    13   6 C        2.972    -0.003    28.094     8.694
    14   6 C        3.903     0.026    20.087     6.371
    15   6 C        3.761    -0.106    22.578     6.774
    16   6 C        3.762    -0.105    22.545     6.769
    17   6 C        3.762    -0.105    22.545     6.768
    18   6 C        2.928    -0.044    29.093     8.846
    19   6 C        2.909    -0.054    29.352     8.884
    20   6 C        3.077     0.043    26.951     8.511
    21   7 N        2.801    -0.046    22.126     6.986
    22   6 C        2.913     0.063    26.595     8.456
    23   6 C        2.921    -0.044    29.102     8.847
    24   6 C        2.925    -0.034    28.835     8.806
    25   6 C        2.977     0.007    27.869     8.659
    26   6 C        2.979     0.007    27.849     8.656
    27   6 C        2.926    -0.038    28.941     8.822
    28   6 C        2.913    -0.035    28.876     8.812
    29   6 C        3.035    -0.000    27.999     8.679
    30   6 C        3.057     0.003    27.911     8.664
    31   6 C        2.919    -0.037    28.925     8.819
    32   6 C        3.950     0.013    20.298     6.402
    33   6 C        3.058     0.003    27.911     8.664
    34   6 C        2.919    -0.037    28.926     8.820
    35   6 C        2.979     0.007    27.850     8.657
    36   6 C        2.977     0.006    27.871     8.660
    37   6 C        2.925    -0.034    28.835     8.806
    38   6 C        2.920    -0.044    29.103     8.847
    39   6 C        2.913     0.063    26.595     8.456
    40   7 N        2.802    -0.045    22.111     6.984
    41   6 C        3.078     0.043    26.957     8.512
    42   6 C        2.909    -0.054    29.349     8.883
    43   6 C        2.928    -0.044    29.095     8.846
    44   6 C        2.972    -0.003    28.089     8.694
    45   6 C        3.903     0.026    20.088     6.371
    46   6 C        3.762    -0.105    22.548     6.769
    47   6 C        3.762    -0.105    22.547     6.769
    48   6 C        3.761    -0.106    22.578     6.774
    49   6 C        2.920    -0.040    28.988     8.829
    50   6 C        3.067    -0.020    28.434     8.744
    51   6 C        3.067    -0.020    28.445     8.746
    52   6 C        2.918    -0.044    29.086     8.844
    53   6 C        2.973    -0.003    28.093     8.694
    54   6 C        3.903     0.026    20.087     6.371
    55   6 C        3.761    -0.106    22.578     6.773
    56   6 C        3.761    -0.105    22.546     6.769
    57   6 C        3.762    -0.105    22.546     6.769
    58   6 C        2.931    -0.040    28.986     8.830
    59   6 C        2.908    -0.054    29.333     8.881
    60   6 C        3.080     0.043    26.951     8.511
    61   6 C        2.921    -0.044    29.104     8.847
    62   6 C        2.924    -0.034    28.846     8.808
    63   6 C        2.926    -0.038    28.940     8.822
    64   6 C        2.913    -0.035    28.875     8.811
    65   6 C        3.035    -0.000    28.000     8.679
    66   6 C        2.983    -0.009    28.229     8.715
    67   6 C        2.926    -0.035    28.871     8.812
    68   6 C        2.917    -0.043    29.070     8.841
    69   6 C        2.920    -0.032    28.804     8.801
    70   6 C        2.924    -0.058    29.446     8.899
    71   6 C        2.926     0.059    26.668     8.469
    72   7 N        2.754    -0.072    22.640     7.067
    73   6 C        2.928     0.070    26.434     8.432
    74   6 C        2.922    -0.037    28.915     8.818
    75   6 C        2.920    -0.027    28.687     8.783
    76   6 C        2.920    -0.030    28.747     8.792
    77   6 C        2.920    -0.027    28.686     8.783
    78   6 C        2.922    -0.037    28.914     8.818
    79   6 C        2.926     0.059    26.669     8.469
    80   6 C        2.924    -0.059    29.455     8.900
    81   6 C        2.920    -0.033    28.811     8.802
    82   6 C        2.917    -0.044    29.081     8.843
    83   6 C        2.926    -0.035    28.873     8.812
    84   6 C        2.983    -0.009    28.244     8.718
    85   6 C        2.924    -0.034    28.845     8.808
    86   6 C        2.920    -0.044    29.104     8.847
    87   1 H        0.925     0.035     2.521     2.483
    88   1 H        0.925     0.034     2.526     2.485
    89   1 H        0.925     0.035     2.522     2.483
    90   1 H        0.925     0.036     2.509     2.477
    91   1 H        0.925     0.035     2.518     2.482
    92   1 H        0.925     0.033     2.549     2.497
    93   1 H        0.925     0.035     2.520     2.483
    94   1 H        0.925     0.033     2.551     2.498
    95   1 H        0.925     0.036     2.508     2.476
    96   1 H        0.926     0.034     2.524     2.485
    97   1 H        0.926     0.025     2.665     2.553
    98   1 H        0.926     0.028     2.610     2.526
    99   1 H        0.926     0.028     2.610     2.526
   100   1 H        0.925     0.035     2.522     2.484
   101   1 H        0.925     0.035     2.521     2.483
   102   1 H        0.925     0.034     2.526     2.486
   103   1 H        0.925     0.036     2.508     2.476
   104   1 H        0.925     0.035     2.520     2.482
   105   1 H        0.925     0.033     2.550     2.497
   106   1 H        0.925     0.035     2.519     2.482
   107   1 H        0.925     0.036     2.509     2.477
   108   1 H        0.925     0.033     2.551     2.497
   109   1 H        0.926     0.034     2.525     2.485
   110   1 H        0.926     0.024     2.667     2.554
   111   1 H        0.926     0.039     2.459     2.452
   112   1 H        0.926     0.036     2.508     2.477
   113   1 H        0.926     0.032     2.564     2.504
   114   1 H        0.926     0.031     2.575     2.510
   115   1 H        0.926     0.027     2.627     2.535
   116   1 H        0.926     0.027     2.630     2.536
   117   1 H        0.926     0.036     2.509     2.477
   118   1 H        0.926     0.039     2.460     2.453
   119   1 H        0.926     0.024     2.667     2.554
   120   1 H        0.926     0.034     2.524     2.485
   121   1 H        0.925     0.035     2.520     2.482
   122   1 H        0.925     0.033     2.550     2.497
   123   1 H        0.925     0.036     2.505     2.475
   124   1 H        0.925     0.035     2.518     2.481
   125   1 H        0.925     0.036     2.507     2.476
   126   1 H        0.925     0.033     2.550     2.497
   127   1 H        0.925     0.034     2.526     2.485
   128   1 H        0.925     0.035     2.522     2.483
   129   1 H        0.925     0.035     2.521     2.483
   130   1 H        0.926     0.029     2.600     2.522
   131   1 H        0.926     0.035     2.511     2.478
   132   1 H        0.925     0.035     2.517     2.481
   133   1 H        0.925     0.034     2.529     2.487
   134   1 H        0.925     0.035     2.515     2.480
   135   1 H        0.925     0.035     2.517     2.481
   136   1 H        0.925     0.035     2.517     2.481
   137   1 H        0.925     0.033     2.545     2.495
   138   1 H        0.925     0.035     2.517     2.481
   139   1 H        0.925     0.033     2.546     2.495
   140   1 H        0.925     0.035     2.519     2.482
   141   1 H        0.926     0.027     2.629     2.536
   142   1 H        0.926     0.024     2.673     2.557
   143   1 H        0.926     0.040     2.454     2.450
   144   1 H        0.926     0.036     2.502     2.474
   145   1 H        0.926     0.031     2.565     2.505
   146   1 H        0.926     0.031     2.575     2.509
   147   1 H        0.926     0.028     2.610     2.526
   148   1 H        0.926     0.028     2.618     2.530
   149   1 H        0.926     0.029     2.604     2.524
   150   1 H        0.926     0.025     2.658     2.549
   151   1 H        0.926     0.041     2.438     2.442
   152   1 H        0.926     0.039     2.467     2.456
   153   1 H        0.926     0.038     2.478     2.462
   154   1 H        0.926     0.039     2.466     2.456
   155   1 H        0.926     0.041     2.436     2.441
   156   1 H        0.926     0.025     2.662     2.551
   157   1 H        0.926     0.028     2.608     2.525
   158   1 H        0.926     0.028     2.621     2.532
   159   1 H        0.926     0.028     2.620     2.531
   160   1 H        0.926     0.036     2.502     2.474
   161   1 H        0.926     0.040     2.455     2.450

molecular dipole:
                 x           y           z       tot (Debye)
 q only:        0.031      -0.636       0.140
   full:        0.014      -0.641       0.133       1.665

 projected vibrational frequencies (cm⁻¹)
eigval :       -0.00    -0.00     0.00     0.00     0.00     0.00
eigval :       -2.76     3.62     5.80     6.65     6.92     8.11
eigval :       11.73    16.57    24.41    27.88    29.97    30.28
eigval :       31.23    32.30    34.33    37.70    46.20    47.50
eigval :       53.56    55.56    59.78    62.67    68.76    69.40
eigval :       74.35    79.60    86.38    91.46    95.11    98.72
eigval :      101.92   112.33   120.02   125.18   136.33   138.50
eigval :      150.69   155.69   158.95   171.29   176.16   177.55
eigval :      178.70   181.57   187.35   193.98   194.98   197.30
eigval :      198.10   217.10   217.65   221.12   221.32   229.38
eigval :      233.37   237.88   240.58   243.92   252.23   254.23
eigval :      257.55   262.20   265.80   271.28   273.96   281.24
eigval :      285.82   300.26   304.57   312.53   316.07   318.52
eigval :      320.95   322.07   325.80   328.29   335.70   343.37
eigval :      352.18   355.71   357.19   358.69   373.28   373.33
eigval :      378.85   380.57   382.45   384.74   386.27   386.89
eigval :      391.77   396.67   399.27   402.90   409.33   411.78
eigval :      412.29   413.10   419.63   422.19   429.70   434.41
eigval :      441.89   443.87   444.52   445.98   446.82   460.81
eigval :      463.44   465.17   467.53   469.71   471.95   474.31
eigval :      483.43   500.72   504.61   508.91   513.30   519.93
eigval :      521.09   531.24   544.23   548.06   573.52   575.59
eigval :      578.60   581.43   583.02   588.58   591.66   592.70
eigval :      598.41   599.93   605.54   606.20   618.03   625.55
eigval :      629.21   629.83   637.95   638.57   638.79   639.25
eigval :      668.71   672.31   675.31   678.88   687.76   687.89
eigval :      688.00   692.19   694.29   704.76   707.26   707.97
eigval :      715.26   720.52   720.82   731.81   732.20   736.67
eigval :      756.54   765.10   777.73   780.10   809.07   812.86
eigval :      818.69   819.09   820.34   821.35   823.17   833.09
eigval :      834.14   835.74   841.15   864.55   864.97   870.25
eigval :      873.49   873.91   873.96   876.16   876.44   880.74
eigval :      881.41   881.81   884.49   885.63   896.06   905.35
eigval :      905.61   906.38   906.61   908.15   909.59   910.78
eigval :      912.93   913.39   914.95   915.52   918.29   920.33
eigval :      920.77   923.82   925.12   927.81   927.95   929.32
eigval :      930.03   930.36   933.76   936.10   937.03   949.58
eigval :      950.45   955.09   959.93   959.98   960.00   960.28
eigval :      962.40   962.49   962.51   962.51   962.77   962.84
eigval :      963.01   963.18   997.16  1007.32  1015.16  1018.72
eigval :     1032.60  1035.66  1035.80  1035.85  1035.91  1035.92
eigval :     1036.02  1036.03  1036.77  1040.30  1078.07  1078.17
eigval :     1078.36  1095.43  1106.98  1108.69  1113.42  1117.58
eigval :     1118.04  1126.54  1130.84  1131.48  1137.65  1138.06
eigval :     1144.61  1145.38  1148.53  1164.27  1176.47  1176.77
eigval :     1179.49  1180.68  1181.78  1183.73  1184.67  1185.73
eigval :     1191.62  1192.31  1202.43  1215.72  1216.23  1222.37
eigval :     1227.81  1227.95  1227.97  1228.00  1228.30  1229.49
eigval :     1232.81  1232.93  1235.44  1236.15  1237.02  1238.38
eigval :     1239.83  1250.17  1253.53  1260.09  1260.52  1267.86
eigval :     1268.91  1269.45  1273.09  1274.44  1277.30  1286.34
eigval :     1286.56  1293.68  1299.26  1303.75  1308.06  1309.32
eigval :     1309.55  1312.12  1316.12  1316.45  1320.89  1326.05
eigval :     1327.63  1336.12  1345.02  1347.80  1348.26  1360.94
eigval :     1364.42  1366.60  1380.68  1384.35  1400.62  1401.63
eigval :     1404.56  1404.62  1405.02  1405.86  1405.92  1405.95
eigval :     1406.01  1407.35  1415.42  1415.63  1420.09  1429.32
eigval :     1429.40  1429.43  1429.45  1433.18  1436.95  1438.52
eigval :     1438.65  1440.37  1442.55  1450.90  1469.69  1471.17
eigval :     1475.67  1476.25  1476.36  1484.43  1484.69  1492.61
eigval :     1492.63  1492.67  1492.75  1495.20  1495.36  1495.53
eigval :     1495.70  1496.67  1501.96  1502.34  1502.53  1503.02
eigval :     1503.38  1504.90  1506.03  1506.11  1506.30  1506.40
eigval :     1515.22  1515.68  1515.69  1515.71  1520.98  1521.05
eigval :     1521.16  1521.17  1557.80  1558.67  1570.72  1572.51
eigval :     1573.75  1573.96  1583.71  1584.69  1585.99  1586.36
eigval :     1587.97  1590.53  1591.06  1594.71  1595.31  1603.18
eigval :     1605.28  1605.41  1605.71  1608.80  1619.91  1621.24
eigval :     3019.51  3019.57  3019.60  3020.03  3021.04  3021.12
eigval :     3021.16  3021.21  3026.49  3026.50  3026.51  3026.61
eigval :     3028.30  3028.45  3028.80  3028.91  3030.58  3030.65
eigval :     3030.76  3030.81  3035.28  3035.33  3035.41  3035.48
eigval :     3037.59  3037.71  3037.93  3037.95  3046.85  3047.15
eigval :     3047.30  3047.37  3050.39  3050.75  3050.97  3051.06
eigval :     3074.10  3075.54  3076.63  3077.29  3077.41  3078.09
eigval :     3078.18  3079.75  3079.94  3080.03  3080.26  3080.72
eigval :     3080.80  3081.07  3081.58  3081.98  3082.24  3082.37
eigval :     3085.50  3086.53  3087.83  3088.37  3089.25  3089.32
eigval :     3090.86  3092.56  3092.94  3092.96  3093.13  3093.58
eigval :     3094.21  3094.34  3098.83  3099.25  3099.82  3116.07
eigval :     3117.59  3117.82  3117.84

   temp. (K)  partition function   enthalpy   heat capacity  entropy
                                   cal/mol     cal/K/mol   cal/K/mol   J/K/mol
 298.15  VIB  0.667E+40            46723.532    286.025    296.581
         ROT  0.755E+09              888.752      2.981     43.606
         INT  0.504E+49            47612.284    289.006    340.186
         TR   0.360E+29             1481.254      4.968     46.883
         TOT                       49093.5381   293.9738   387.0698  1619.5002

       T/K    H(0)-H(T)+PV         H(T)/Eh          T*S/Eh         G(T)/Eh
   ------------------------------------------------------------------------
    298.15    0.782355E-01    0.139565E+01    0.183909E+00    0.121174E+01
   ------------------------------------------------------------------------

         :::::::::::::::::::::::::::::::::::::::::::::::::::::
         ::                  THERMODYNAMIC                  ::
         :::::::::::::::::::::::::::::::::::::::::::::::::::::
         :: total free energy        -223.738181466798 Eh   ::
         ::.................................................::
         :: total energy             -224.949920688657 Eh   ::
         :: zero point energy           1.317413060432 Eh   ::
         :: G(RRHO) w/o ZPVE           -0.105673838572 Eh   ::
         :: G(RRHO) contrib.            1.211739221860 Eh   ::
         :::::::::::::::::::::::::::::::::::::::::::::::::::::

           -------------------------------------------------
          | TOTAL ENERGY             -224.949920688657 Eh   |
          | TOTAL ENTHALPY           -223.554272095283 Eh   |
          | TOTAL FREE ENERGY        -223.738181466798 Eh   |
          | GRADIENT NORM               0.000058842057 Eh/α |
          | HOMO-LUMO GAP               2.267752005377 eV   |
           -------------------------------------------------

 * finished run on 2025/08/26 at 05:55:04.057
