   * xtb version 6.7.1 (edcfbbe) compiled by 'albert@albert-system' on 2024-07-22

   ID    Z sym.   atoms
    1    6 C      1-20, 22-39, 41-71, 73-86
    2    7 N      21, 40, 72
    3    1 H      87-161

          program call               : xtb data2507/gas/SAF-2CzB/SAF-2CzB_gas_S0_crest.xyz --gfn 2 --ohess vtight --parallel 40 --molden --ceasefiles --namespace data2507/gas/SAF-2CzB/SAF-2CzB_gas_S0_finalOpt
          :  Hamiltonian                  GFN2-xTB          :
 * total energy  :  -224.9514043 Eh     change       -0.3769713E-08 Eh
 * total energy  :  -224.9514059 Eh     change       -0.1579322E-05 Eh
 * total energy  :  -224.9514089 Eh     change       -0.3056194E-05 Eh
 * total energy  :  -224.9514159 Eh     change       -0.6988517E-05 Eh
 * total energy  :  -224.9514269 Eh     change       -0.1101860E-04 Eh
 * total energy  :  -224.9514346 Eh     change       -0.7648089E-05 Eh
 * total energy  :  -224.9514385 Eh     change       -0.3889129E-05 Eh
 * total energy  :  -224.9514424 Eh     change       -0.3955206E-05 Eh
 * total energy  :  -224.9514489 Eh     change       -0.6491824E-05 Eh
 * total energy  :  -224.9514559 Eh     change       -0.7015400E-05 Eh
 * total energy  :  -224.9518017 Eh     change       -0.1060888E-05 Eh
 * total energy  :  -224.9518027 Eh     change       -0.1059704E-05 Eh
 * total energy  :  -224.9518037 Eh     change       -0.1026538E-05 Eh
 * total energy  :  -224.9518047 Eh     change       -0.9116047E-06 Eh
 * total energy  :  -224.9518055 Eh     change       -0.8694439E-06 Eh
 * total energy  :  -224.9518065 Eh     change       -0.1022008E-05 Eh
 * total energy  :  -224.9518080 Eh     change       -0.1459047E-05 Eh
 * total energy  :  -224.9518103 Eh     change       -0.2312666E-05 Eh
 * total energy  :  -224.9518103 Eh     change       -0.9067008E-08 Eh
   *** GEOMETRY OPTIMIZATION CONVERGED AFTER 152 ITERATIONS ***

 final structure:
================
161
 xtb: 6.7.1 (edcfbbe)
C          -13.25785696410798        1.55893812687444       -4.68817900502024
C          -13.07994741723988        2.27572571601806       -3.34231311402678
C          -14.44737327807658        2.34371771304445       -2.65657574738220
C          -12.59550337918350        3.71334686680176       -3.57850192633153
C          -12.04514087434263        1.53160921645116       -2.51053389144214
C          -10.74354728315568        1.39729564575322       -3.01266100611523
C           -9.73672491983875        0.75086224336736       -2.32537497316625
C          -10.03459230989546        0.22175329338135       -1.07901093991340
C          -11.34446398870196        0.31667027680258       -0.56396345739873
C          -12.33863635954771        0.97282174895470       -1.27795556847509
C          -11.33602807977228       -0.36681673757891        0.69960874218866
C          -12.31222152373380       -0.58838551813164        1.66236415260970
C          -11.99250689319056       -1.27837800558526        2.81966273277006
C          -13.01138047516924       -1.56583788151218        3.91308935735026
C          -14.40445868949077       -1.02752690930903        3.57523957877737
C          -12.55011454025504       -0.90501584561865        5.21980230860511
C          -13.12391020639866       -3.08433985549048        4.10962480698080
C          -10.67338874288251       -1.71919757385515        2.99249505348634
C           -9.68396671013582       -1.51321192407172        2.05319374505499
C          -10.02285603847390       -0.84709702833937        0.88544823141213
N           -9.24217754030676       -0.48578510258642       -0.19580572083167
C           -7.88628977225559       -0.78590179623824       -0.36313211383324
C           -7.42401137506657       -2.08398757061991       -0.16085867631042
C           -6.08464143282247       -2.37601478102850       -0.31548628326621
C           -5.17192403499871       -1.38814772953688       -0.68176724731923
C           -3.74668332441385       -1.70293330264855       -0.84120535851138
C           -3.34945074749224       -2.90230937968129       -1.43493275020873
C           -2.01366552617594       -3.22552375788414       -1.59004981112187
C           -1.05335218517225       -2.33336612469078       -1.14072738229808
C           -1.44444790962477       -1.12209223043575       -0.54702750037187
C           -2.77382485360748       -0.80337246080276       -0.39673946128016
C           -0.24027764426321       -0.30669960377323       -0.14435917648274
C            0.89363662498615       -1.22507055483542       -0.56933580212247
C            2.24208763871957       -1.01730157213190       -0.42914785727549
C            3.13750018856077       -1.99092772690163       -0.87742510239277
C            4.57625731200497       -1.75040041724703       -0.71850389989459
C            5.05560481523755       -1.12251050245531        0.43171158514356
C            6.39476564427057       -0.82879915619207        0.57461123946115
C            7.29365779922486       -1.14685474793980       -0.44078930085201
N            8.64248974167301       -0.80067343760727       -0.31232961012449
C            9.11666730162171        0.44306892955144        0.05645774776236
C            8.43201235247435        1.61923963368819        0.32112029366727
C            9.16933162659123        2.74021417861817        0.64206595325198
C           10.56962079314911        2.73922335964964        0.70187187780303
C           11.28831848693700        4.02804457552614        1.07453358114160
C           10.83235795550462        4.47293228020573        2.47150260973168
C           10.94524735374029        5.11394766949154        0.04481124723817
C           12.81053204427927        3.86568934727119        1.10282093760049
C           11.24343140921546        1.56533752355702        0.40864412048771
C           10.52666886972997        0.42124391161057        0.08233606577801
C           10.91916887399985       -0.91131481772612       -0.28515945082970
C           12.15406785752430       -1.53392087952420       -0.41249458182843
C           12.21666695053514       -2.87089175254947       -0.76817190118670
C           13.53328389706405       -3.61693822658997       -0.93027030918145
C           14.75093687295118       -2.72200858889048       -0.68318854890097
C           13.62970668542607       -4.16494331971776       -2.36115266712606
C           13.58286015214593       -4.77607451037644        0.07521798056290
C           11.01695113570967       -3.56543383074687       -0.97506429663342
C            9.77671215415881       -2.97280936545844       -0.85594962973323
C            9.72757420881361       -1.62793001617277       -0.52379742131405
C            6.82961681112651       -1.79516530193375       -1.58238969747595
C            5.48885133622861       -2.09710927074759       -1.71278627658690
C            2.64036326723017       -3.15370294136194       -1.46617559199387
C            1.27953311127982       -3.36711687173348       -1.60479592829149
C            0.39716473840376       -2.39845591187204       -1.15195411904555
C           -0.12887352682627       -0.07240924416031        1.34421180523026
C           -0.68847259088686       -0.96291823486713        2.24436703387730
C           -0.46162809600383       -0.84063669332210        3.60421359627812
C            0.36191618481407        0.17021315538608        4.06590860151449
C            0.91919365984005        1.07487875644119        3.18335761533097
C            0.66248340989716        0.98305287823308        1.81524628663207
N            1.18569863901725        1.90810288795583        0.91971781237047
C            2.15045870541933        2.85893272231108        1.34977687679936
C            3.46991046709365        2.71601730610729        0.93782798343871
C            4.42565314206294        3.62757397138174        1.34962325243792
C            4.07045153365902        4.68403283667929        2.17093762135150
C            2.75382759602136        4.83391399093536        2.57444130811240
C            1.79277365841085        3.92738660987387        2.16447941375708
C            0.65063231405919        2.02925522657111       -0.35647489801829
C            0.85139580744068        3.19145333164705       -1.10167535261914
C            0.29143295449552        3.32504915050901       -2.35681810722295
C           -0.48671045759123        2.31035764932052       -2.88535031165662
C           -0.68465140453639        1.15203618931089       -2.15392803381896
C           -0.12257483458172        0.99699393419588       -0.89813084982872
C           -5.64509522737850       -0.09323433722998       -0.88808697476151
C           -6.98221344542420        0.20811628221040       -0.72929503296976
H          -13.57806199832455        0.53164639914621       -4.52655910246198
H          -14.01197489233576        2.06601711451659       -5.28679628099651
H          -12.33066628097244        1.54080337573889       -5.25409849244425
H          -14.38086614360485        2.86167888061308       -1.70256733400100
H          -15.14328677759310        2.89196050920686       -3.28875774074261
H          -14.85413425725017        1.34809763276230       -2.49520754264784
H          -13.33316988925962        4.26855522304242       -4.15446068995897
H          -11.65571272273028        3.73128339432720       -4.12323739317548
H          -12.44726966438586        4.22010328492341       -2.62703440138425
H          -10.50501134629267        1.81056122360652       -3.98097817606088
H           -8.75185830199443        0.65379307646019       -2.75727608754657
H          -13.32666811090119        1.02842347536695       -0.85231488196927
H          -13.30505151691523       -0.20958442973133        1.48550875342450
H          -14.78794762021741       -1.48021654269281        2.66373991393424
H          -14.38824572348907        0.05356214001883        3.45804369312311
H          -15.09187729505994       -1.26693452931213        4.38434246952372
H          -11.59265582768491       -1.29971304510334        5.54806526275509
H          -13.27932733922289       -1.08199099336609        6.00788329488792
H          -12.44552152660328        0.16904187722276        5.08034713295315
H          -13.86394426080192       -3.31024315026567        4.87477450721971
H          -12.17551683967136       -3.51641016387300        4.41643791366428
H          -13.43071278614736       -3.56099852612298        3.18080093051887
H          -10.40452088156928       -2.24122161130548        3.89831343854025
H           -8.67510542493104       -1.85212786273951        2.23546369914999
H           -8.12370229405503       -2.86189148431785        0.10601320752719
H           -5.73735772181693       -3.38293182529725       -0.13617022875863
H           -4.10531287175967       -3.58257949633311       -1.79956915986795
H           -1.72696163236248       -4.15683970018878       -2.05567564425090
H           -3.06281100199096        0.12146679941979        0.08109059971207
H            2.61412959295820       -0.10492395664112        0.00843064002479
H            4.37244306332348       -0.88469151702063        1.23431190701171
H            6.75693126392772       -0.36089097638581        1.47796737783430
H            7.35433936300128        1.66447406654975        0.26649611495650
H            8.63290516522878        3.65386763837647        0.85015177671907
H           11.05418974906190        3.69828648889117        3.20275721602776
H            9.76400970865285        4.66871649685754        2.49734537014469
H           11.35204405622298        5.38313219166278        2.76399196499417
H            9.87919289737352        5.32268678953833        0.02703740286526
H           11.24585557527497        4.79479036267759       -0.95103496882043
H           11.46865652571355        6.03736926772545        0.28447062305879
H           13.27111525847503        4.81169719344519        1.38105632561851
H           13.19194380737725        3.58222468111790        0.12460881932632
H           13.11046814131403        3.11836625998617        1.83381246752439
H           12.31928563983747        1.51292887158070        0.42107250469524
H           13.04383586762666       -0.95653677240513       -0.22426022172651
H           15.66131784390023       -3.30211764075944       -0.82150274515557
H           14.75189806560725       -2.33422722492456        0.33287117032505
H           14.77315345197058       -1.89014390567764       -1.38344217457080
H           12.82441420371720       -4.86212012669804       -2.57485800422045
H           14.57534670568284       -4.68479578267672       -2.50114474575713
H           13.57398363404765       -3.34961430524382       -3.07959546689812
H           13.49204072068755       -4.39587992396112        1.09070413813325
H           14.52805499648192       -5.30822822259583       -0.01146342202723
H           12.77711278121273       -5.48455019534598       -0.09549226386455
H           11.05027928157786       -4.61247502478333       -1.23547128833397
H            8.87529817173552       -3.54817407628027       -1.00550289297509
H            7.52158692211215       -2.03453244550316       -2.37604274555534
H            5.13670825942535       -2.57377771400085       -2.61572666722456
H            3.33329425499239       -3.91330303400356       -1.79811758214325
H            0.91449973964939       -4.27874292565264       -2.05461305848179
H           -1.29682605074110       -1.77392143238151        1.87185590944018
H           -0.90514921451480       -1.54371810985320        4.29225133843035
H            0.57428981053297        0.26042955727225        5.12095393679250
H            1.56484084771985        1.85420082202177        3.55809671748987
H            3.74359772237335        1.89529985920072        0.29052076377656
H            5.45031139312409        3.51084745254455        1.02933767782373
H            4.81765817976148        5.39332593405690        2.49378501855862
H            2.47288187681913        5.66227690162514        3.20783445828006
H            0.76215290499137        4.04225566625058        2.46731026298128
H            1.44734764506377        3.99276594943769       -0.69110166459271
H            0.46116030273554        4.23068228835957       -2.92007007560126
H           -0.92846514547918        2.41303485592878       -3.86463300658190
H           -1.27495008762821        0.34855312616648       -2.56949546160647
H           -4.95732961616795        0.68419944395757       -1.18712591390404
H           -7.33313030607976        1.21909870834687       -0.87326084784658

          :  Hamiltonian                  GFN2-xTB          :
         :: gradient norm              0.000064620204 Eh/a0 ::
         :: HOMO-LUMO gap              2.263531265567 eV    ::
         :: SCC energy              -229.052495261140 Eh    ::
         :: -> dispersion             -0.223818199304 Eh    ::
         :: repulsion energy           4.100684930370 Eh    ::

    * Orbital Energies and Occupations

         #    Occupation            Energy/Eh            Energy/eV
      -------------------------------------------------------------
         1        2.0000           -0.6694598             -18.2169
       ...           ...                  ...                  ...
       199        2.0000           -0.4009573             -10.9106
       200        2.0000           -0.3958078             -10.7705
       201        2.0000           -0.3949838             -10.7481
       202        2.0000           -0.3933237             -10.7029
       203        2.0000           -0.3922825             -10.6745
       204        2.0000           -0.3912645             -10.6468
       205        2.0000           -0.3903342             -10.6215
       206        2.0000           -0.3720624             -10.1243
       207        2.0000           -0.3688533             -10.0370
       208        2.0000           -0.3667947              -9.9810
       209        2.0000           -0.3519619              -9.5774
       210        2.0000           -0.3497578              -9.5174
       211        2.0000           -0.3473403              -9.4516 (HOMO)
       212                         -0.2641570              -7.1881 (LUMO)
       213                         -0.2414418              -6.5700
       214                         -0.2383104              -6.4848
       215                         -0.2368878              -6.4460
       216                         -0.2357667              -6.4155
       217                         -0.2327535              -6.3335
       218                         -0.2296496              -6.2491
       219                         -0.2278652              -6.2005
       220                         -0.2261703              -6.1544
       221                         -0.2223604              -6.0507
       222                         -0.2206127              -6.0032
       ...                                ...                  ...
       419                          0.7496653              20.3994
      -------------------------------------------------------------
                  HL-Gap            0.0831833 Eh            2.2635 eV

     #   Z          covCN         q      C6AA      α(0)
     1   6 C        3.761    -0.105    22.547     6.769
     2   6 C        3.903     0.026    20.088     6.371
     3   6 C        3.761    -0.106    22.579     6.774
     4   6 C        3.762    -0.105    22.547     6.769
     5   6 C        2.973    -0.003    28.092     8.694
     6   6 C        2.931    -0.040    28.988     8.830
     7   6 C        2.908    -0.054    29.334     8.881
     8   6 C        3.080     0.043    26.960     8.512
     9   6 C        3.068    -0.021    28.449     8.746
    10   6 C        2.918    -0.044    29.094     8.845
    11   6 C        3.068    -0.021    28.449     8.746
    12   6 C        2.918    -0.044    29.094     8.845
    13   6 C        2.973    -0.003    28.091     8.694
    14   6 C        3.903     0.026    20.088     6.371
    15   6 C        3.761    -0.106    22.579     6.774
    16   6 C        3.761    -0.105    22.547     6.769
    17   6 C        3.762    -0.105    22.547     6.769
    18   6 C        2.931    -0.040    28.989     8.830
    19   6 C        2.908    -0.054    29.334     8.881
    20   6 C        3.080     0.043    26.960     8.512
    21   7 N        2.802    -0.045    22.108     6.983
    22   6 C        2.913     0.063    26.589     8.456
    23   6 C        2.921    -0.045    29.106     8.847
    24   6 C        2.925    -0.034    28.849     8.808
    25   6 C        2.976     0.006    27.878     8.661
    26   6 C        2.978     0.007    27.861     8.658
    27   6 C        2.926    -0.038    28.948     8.823
    28   6 C        2.912    -0.035    28.874     8.811
    29   6 C        3.038    -0.000    27.995     8.678
    30   6 C        3.052     0.003    27.916     8.665
    31   6 C        2.919    -0.037    28.916     8.818
    32   6 C        3.950     0.013    20.288     6.400
    33   6 C        3.066     0.003    27.900     8.661
    34   6 C        2.923    -0.040    29.000     8.831
    35   6 C        2.979     0.006    27.876     8.661
    36   6 C        2.977     0.006    27.876     8.660
    37   6 C        2.925    -0.034    28.848     8.808
    38   6 C        2.921    -0.044    29.101     8.846
    39   6 C        2.913     0.063    26.596     8.457
    40   7 N        2.802    -0.045    22.104     6.983
    41   6 C        3.082     0.043    26.958     8.512
    42   6 C        2.908    -0.053    29.327     8.880
    43   6 C        2.931    -0.040    28.986     8.829
    44   6 C        2.973    -0.003    28.095     8.694
    45   6 C        3.903     0.026    20.086     6.371
    46   6 C        3.762    -0.104    22.541     6.768
    47   6 C        3.761    -0.104    22.542     6.768
    48   6 C        3.761    -0.107    22.582     6.774
    49   6 C        2.918    -0.044    29.089     8.844
    50   6 C        3.067    -0.020    28.443     8.745
    51   6 C        3.068    -0.021    28.450     8.746
    52   6 C        2.918    -0.044    29.090     8.844
    53   6 C        2.973    -0.003    28.086     8.693
    54   6 C        3.903     0.026    20.088     6.371
    55   6 C        3.761    -0.106    22.581     6.774
    56   6 C        3.762    -0.105    22.549     6.769
    57   6 C        3.761    -0.105    22.548     6.769
    58   6 C        2.931    -0.039    28.982     8.829
    59   6 C        2.908    -0.054    29.330     8.880
    60   6 C        3.080     0.043    26.956     8.512
    61   6 C        2.920    -0.044    29.101     8.846
    62   6 C        2.924    -0.034    28.840     8.807
    63   6 C        2.924    -0.038    28.941     8.822
    64   6 C        2.914    -0.034    28.859     8.809
    65   6 C        3.032    -0.000    28.007     8.681
    66   6 C        2.986    -0.008    28.217     8.714
    67   6 C        2.924    -0.036    28.902     8.816
    68   6 C        2.918    -0.043    29.066     8.841
    69   6 C        2.920    -0.033    28.821     8.804
    70   6 C        2.922    -0.059    29.457     8.900
    71   6 C        2.926     0.059    26.667     8.469
    72   7 N        2.753    -0.075    22.706     7.077
    73   6 C        2.925     0.069    26.458     8.435
    74   6 C        2.923    -0.037    28.918     8.819
    75   6 C        2.920    -0.027    28.674     8.781
    76   6 C        2.920    -0.030    28.757     8.794
    77   6 C        2.920    -0.028    28.708     8.786
    78   6 C        2.921    -0.038    28.944     8.822
    79   6 C        2.931     0.060    26.663     8.468
    80   6 C        2.923    -0.057    29.408     8.893
    81   6 C        2.920    -0.033    28.813     8.802
    82   6 C        2.918    -0.043    29.061     8.840
    83   6 C        2.923    -0.036    28.907     8.817
    84   6 C        2.985    -0.008    28.204     8.712
    85   6 C        2.925    -0.034    28.835     8.806
    86   6 C        2.920    -0.044    29.101     8.846
    87   1 H        0.925     0.033     2.547     2.496
    88   1 H        0.925     0.035     2.517     2.481
    89   1 H        0.925     0.035     2.515     2.480
    90   1 H        0.925     0.035     2.514     2.480
    91   1 H        0.925     0.034     2.530     2.488
    92   1 H        0.925     0.035     2.516     2.480
    93   1 H        0.925     0.035     2.519     2.482
    94   1 H        0.925     0.035     2.514     2.480
    95   1 H        0.925     0.033     2.548     2.496
    96   1 H        0.926     0.027     2.624     2.533
    97   1 H        0.926     0.024     2.666     2.553
    98   1 H        0.926     0.036     2.504     2.475
    99   1 H        0.926     0.036     2.504     2.475
   100   1 H        0.925     0.035     2.514     2.480
   101   1 H        0.925     0.035     2.516     2.480
   102   1 H        0.925     0.034     2.530     2.487
   103   1 H        0.925     0.035     2.515     2.480
   104   1 H        0.925     0.035     2.517     2.481
   105   1 H        0.925     0.033     2.547     2.496
   106   1 H        0.925     0.035     2.519     2.482
   107   1 H        0.925     0.035     2.514     2.480
   108   1 H        0.925     0.033     2.547     2.496
   109   1 H        0.926     0.027     2.624     2.533
   110   1 H        0.926     0.025     2.665     2.553
   111   1 H        0.926     0.040     2.454     2.450
   112   1 H        0.926     0.036     2.506     2.476
   113   1 H        0.926     0.031     2.566     2.505
   114   1 H        0.926     0.031     2.578     2.511
   115   1 H        0.926     0.031     2.579     2.511
   116   1 H        0.926     0.030     2.584     2.514
   117   1 H        0.926     0.035     2.512     2.478
   118   1 H        0.926     0.039     2.461     2.453
   119   1 H        0.926     0.022     2.702     2.571
   120   1 H        0.926     0.025     2.655     2.548
   121   1 H        0.925     0.033     2.545     2.495
   122   1 H        0.925     0.034     2.525     2.485
   123   1 H        0.925     0.035     2.517     2.481
   124   1 H        0.925     0.035     2.523     2.484
   125   1 H        0.925     0.033     2.544     2.494
   126   1 H        0.925     0.035     2.516     2.480
   127   1 H        0.925     0.034     2.527     2.486
   128   1 H        0.925     0.035     2.513     2.479
   129   1 H        0.925     0.035     2.512     2.479
   130   1 H        0.926     0.036     2.499     2.472
   131   1 H        0.926     0.036     2.502     2.473
   132   1 H        0.925     0.034     2.527     2.486
   133   1 H        0.925     0.035     2.515     2.480
   134   1 H        0.925     0.035     2.514     2.480
   135   1 H        0.925     0.035     2.513     2.479
   136   1 H        0.925     0.035     2.516     2.480
   137   1 H        0.925     0.033     2.546     2.495
   138   1 H        0.925     0.033     2.546     2.495
   139   1 H        0.925     0.035     2.514     2.480
   140   1 H        0.925     0.035     2.514     2.479
   141   1 H        0.926     0.028     2.618     2.530
   142   1 H        0.926     0.024     2.666     2.553
   143   1 H        0.926     0.040     2.454     2.450
   144   1 H        0.926     0.036     2.500     2.473
   145   1 H        0.926     0.031     2.567     2.506
   146   1 H        0.926     0.031     2.566     2.505
   147   1 H        0.926     0.030     2.592     2.518
   148   1 H        0.926     0.028     2.617     2.530
   149   1 H        0.926     0.029     2.605     2.524
   150   1 H        0.926     0.027     2.625     2.534
   151   1 H        0.926     0.038     2.475     2.460
   152   1 H        0.926     0.038     2.474     2.460
   153   1 H        0.926     0.037     2.492     2.469
   154   1 H        0.926     0.037     2.485     2.465
   155   1 H        0.926     0.041     2.432     2.439
   156   1 H        0.926     0.025     2.655     2.548
   157   1 H        0.926     0.029     2.598     2.521
   158   1 H        0.926     0.028     2.612     2.527
   159   1 H        0.926     0.030     2.589     2.516
   160   1 H        0.926     0.036     2.499     2.472
   161   1 H        0.926     0.039     2.456     2.451

molecular dipole:
                 x           y           z       tot (Debye)
 q only:        0.416       0.356       0.151
   full:        0.441       0.322       0.141       1.434

 projected vibrational frequencies (cm⁻¹)
eigval :       -0.00    -0.00    -0.00    -0.00     0.00     0.00
eigval :        4.02     5.86     5.97     7.90    11.59    13.33
eigval :       18.39    23.54    26.39    30.70    31.13    33.01
eigval :       33.57    33.72    34.10    42.14    45.08    52.67
eigval :       54.54    58.21    59.66    61.40    71.24    73.32
eigval :       77.00    84.39    90.45    94.26    96.64   101.61
eigval :      102.76   114.69   117.76   122.98   130.46   142.66
eigval :      152.67   160.45   160.85   172.07   174.55   176.85
eigval :      180.96   183.73   192.56   200.97   202.98   203.07
eigval :      209.63   216.39   217.97   219.03   222.88   225.01
eigval :      228.25   230.05   238.97   244.37   246.68   250.85
eigval :      259.00   259.04   265.90   268.00   274.66   278.83
eigval :      281.94   294.39   303.58   315.22   317.57   317.81
eigval :      321.95   322.05   323.33   337.34   339.29   340.91
eigval :      352.73   360.10   360.14   360.72   368.44   372.13
eigval :      375.05   376.74   382.51   383.47   384.33   387.55
eigval :      394.98   396.60   400.15   405.07   409.09   411.20
eigval :      411.79   412.05   420.78   422.71   429.24   436.27
eigval :      442.10   442.87   443.24   443.64   455.87   461.74
eigval :      464.52   465.97   466.05   467.10   468.70   475.06
eigval :      483.07   499.72   508.10   509.91   512.31   519.78
eigval :      523.41   532.15   543.87   548.19   573.61   577.15
eigval :      577.91   583.53   583.94   588.14   589.17   593.21
eigval :      594.88   599.37   605.07   615.12   617.00   626.79
eigval :      630.21   631.47   635.69   637.80   639.69   639.72
eigval :      668.74   671.74   673.60   682.10   687.81   687.88
eigval :      689.29   692.43   697.59   705.84   707.38   708.14
eigval :      716.74   720.70   721.13   730.47   731.46   737.24
eigval :      758.48   763.86   776.87   779.23   808.69   813.30
eigval :      820.42   821.26   822.23   823.25   824.06   831.91
eigval :      833.03   834.84   841.56   866.16   867.01   867.97
eigval :      868.87   871.06   873.65   873.79   874.06   874.32
eigval :      877.65   878.29   883.00   887.94   895.31   904.64
eigval :      906.74   909.34   909.96   910.39   911.13   911.87
eigval :      913.47   913.82   915.35   916.72   919.64   920.91
eigval :      921.07   924.33   925.07   927.51   928.47   929.39
eigval :      931.17   932.13   935.29   937.72   938.63   945.11
eigval :      949.90   956.79   960.15   960.21   960.26   960.28
eigval :      962.71   962.82   962.84   962.87   962.93   962.93
eigval :      963.41   963.42   995.88  1008.68  1015.40  1020.16
eigval :     1031.18  1031.36  1035.75  1035.81  1035.85  1035.89
eigval :     1035.96  1035.97  1041.82  1042.19  1077.95  1080.35
eigval :     1082.58  1093.45  1105.72  1107.65  1116.78  1116.90
eigval :     1117.43  1123.40  1130.21  1130.34  1138.04  1138.48
eigval :     1143.88  1144.11  1144.34  1163.93  1174.15  1177.75
eigval :     1177.83  1181.15  1181.34  1184.14  1185.01  1187.82
eigval :     1191.43  1192.16  1205.16  1215.23  1215.67  1225.65
eigval :     1226.15  1228.09  1228.20  1228.29  1228.33  1231.64
eigval :     1231.67  1232.56  1232.59  1238.48  1238.91  1243.58
eigval :     1244.81  1245.79  1247.17  1261.10  1261.22  1265.78
eigval :     1269.02  1269.25  1270.15  1276.13  1277.57  1286.05
eigval :     1286.13  1293.81  1301.39  1306.98  1310.08  1310.86
eigval :     1312.00  1312.99  1316.38  1316.76  1318.93  1326.48
eigval :     1327.52  1335.35  1336.92  1348.21  1348.27  1359.49
eigval :     1360.10  1364.98  1381.11  1385.18  1400.98  1402.01
eigval :     1404.74  1404.83  1405.10  1406.04  1406.07  1406.09
eigval :     1406.14  1407.63  1415.42  1415.50  1420.40  1429.46
eigval :     1429.51  1429.56  1429.59  1432.04  1436.84  1439.82
eigval :     1441.32  1442.27  1443.75  1451.54  1469.96  1471.56
eigval :     1473.52  1483.62  1483.63  1486.08  1486.25  1492.53
eigval :     1492.68  1492.74  1492.78  1492.87  1495.47  1495.49
eigval :     1495.51  1495.53  1501.58  1501.89  1502.30  1502.37
eigval :     1502.57  1504.54  1506.05  1506.10  1506.16  1506.27
eigval :     1515.08  1515.14  1515.28  1515.36  1520.61  1520.61
eigval :     1521.45  1521.46  1557.50  1558.13  1569.76  1571.15
eigval :     1572.69  1572.88  1582.45  1582.51  1582.79  1584.14
eigval :     1586.79  1588.99  1590.30  1594.63  1594.69  1602.77
eigval :     1604.96  1605.12  1605.43  1610.50  1618.31  1618.41
eigval :     3019.87  3020.04  3020.20  3020.37  3021.15  3021.23
eigval :     3021.49  3021.57  3026.59  3026.62  3026.63  3026.75
eigval :     3028.47  3028.79  3029.00  3029.29  3030.66  3030.75
eigval :     3030.75  3030.94  3035.36  3035.47  3035.64  3035.80
eigval :     3037.64  3037.97  3038.02  3038.30  3046.09  3046.80
eigval :     3046.81  3046.84  3049.38  3050.25  3050.43  3050.47
eigval :     3074.04  3074.12  3076.11  3077.13  3077.44  3077.92
eigval :     3078.34  3078.42  3078.50  3078.81  3079.21  3079.33
eigval :     3081.41  3081.90  3082.66  3083.46  3084.42  3085.89
eigval :     3086.25  3087.73  3088.82  3090.78  3091.15  3091.79
eigval :     3091.84  3091.87  3092.29  3093.74  3094.46  3094.71
eigval :     3095.57  3098.23  3098.72  3100.84  3110.42  3114.24
eigval :     3114.65  3117.76  3118.15

   temp. (K)  partition function   enthalpy   heat capacity  entropy
                                   cal/mol     cal/K/mol   cal/K/mol   J/K/mol
 298.15  VIB  0.163E+39            46599.038    286.517    292.980
         ROT  0.706E+09              888.752      2.981     43.471
         INT  0.115E+48            47487.791    289.498    336.451
         TR   0.360E+29             1481.254      4.968     46.883
         TOT                       48969.0447   294.4664   383.3342  1603.8704

       T/K    H(0)-H(T)+PV         H(T)/Eh          T*S/Eh         G(T)/Eh
   ------------------------------------------------------------------------
    298.15    0.780371E-01    0.139575E+01    0.182134E+00    0.121362E+01
   ------------------------------------------------------------------------

         :::::::::::::::::::::::::::::::::::::::::::::::::::::
         ::                  THERMODYNAMIC                  ::
         :::::::::::::::::::::::::::::::::::::::::::::::::::::
         :: total free energy        -223.738191127315 Eh   ::
         ::.................................................::
         :: total energy             -224.951810330771 Eh   ::
         :: zero point energy           1.317716521748 Eh   ::
         :: G(RRHO) w/o ZPVE           -0.104097318292 Eh   ::
         :: G(RRHO) contrib.            1.213619203456 Eh   ::
         :::::::::::::::::::::::::::::::::::::::::::::::::::::

           -------------------------------------------------
          | TOTAL ENERGY             -224.951810330771 Eh   |
          | TOTAL ENTHALPY           -223.556056669074 Eh   |
          | TOTAL FREE ENERGY        -223.738191127315 Eh   |
          | GRADIENT NORM               0.000064615766 Eh/α |
          | HOMO-LUMO GAP               2.263531991091 eV   |
           -------------------------------------------------

 * finished run on 2025/08/26 at 06:47:55.773
