   * xtb version 6.7.1 (edcfbbe) compiled by 'albert@albert-system' on 2024-07-22

   ID    Z sym.   atoms
    1    6 C      1-20, 22-39, 41-71, 73-86
    2    7 N      21, 40, 72
    3    1 H      87-161

          program call               : xtb data2507/gas/SAF-2CzB/SAF-2CzB_gas_T1_crest.xyz --gfn 2 --spinpol --tblite --uhf 2 --ohess vtight --parallel 40 --molden --ceasefiles --namespace data2507/gas/SAF-2CzB/SAF-2CzB_gas_T1_finalOpt
 * total energy  :  -224.8685955 Eh     change       -0.2900160E-07 Eh
 * total energy  :  -224.8686082 Eh     change       -0.1265857E-04 Eh
 * total energy  :  -224.8686130 Eh     change       -0.4871393E-05 Eh
 * total energy  :  -224.8686141 Eh     change       -0.1088683E-05 Eh
 * total energy  :  -224.8686168 Eh     change       -0.2675685E-05 Eh
 * total energy  :  -224.8686205 Eh     change       -0.3720505E-05 Eh
 * total energy  :  -224.8686247 Eh     change       -0.4190311E-05 Eh
 * total energy  :  -224.8686288 Eh     change       -0.4081488E-05 Eh
 * total energy  :  -224.8686300 Eh     change       -0.1210194E-05 Eh
 * total energy  :  -224.8686327 Eh     change       -0.2666490E-05 Eh
 * total energy  :  -224.8686533 Eh     change        0.2470695E-06 Eh
 * total energy  :  -224.8686537 Eh     change       -0.4527720E-06 Eh
 * total energy  :  -224.8686540 Eh     change       -0.2521450E-06 Eh
 * total energy  :  -224.8686543 Eh     change       -0.3465128E-06 Eh
 * total energy  :  -224.8686547 Eh     change       -0.3611582E-06 Eh
 * total energy  :  -224.8686551 Eh     change       -0.3925077E-06 Eh
 * total energy  :  -224.8686552 Eh     change       -0.1295818E-06 Eh
 * total energy  :  -224.8686555 Eh     change       -0.3177351E-06 Eh
 * total energy  :  -224.8686556 Eh     change       -0.4746437E-07 Eh
   *** GEOMETRY OPTIMIZATION CONVERGED AFTER 46 ITERATIONS ***

 final structure:
================
161
 xtb: 6.7.1 (edcfbbe)
C          -12.76740764725544        3.01717159274693       -4.29298254413382
C          -12.71430200843102        3.28961405146721       -2.78295627993307
C          -14.14216710268875        3.21083545551955       -2.23557056188123
C          -12.18558849267072        4.70844884975752       -2.52850146208368
C          -11.77989016793923        2.28431310466610       -2.12648307574529
C          -10.43650262429677        2.24925834896164       -2.52479558782747
C           -9.51477727095109        1.37882926646159       -1.98027328611268
C           -9.94552882385725        0.51050215742084       -0.98803546295346
C          -11.30019379207751        0.50421367144300       -0.59110405368484
C          -12.20602353695588        1.39042673057001       -1.15626569184210
C          -11.43014316287438       -0.53564254221577        0.39315324846751
C          -12.49988095947558       -0.99570706896029        1.14764553023046
C          -12.30758345494954       -2.02200938785322        2.05960417447838
C          -13.43485776231990       -2.58171165852704        2.91440461104176
C          -14.78030225934908       -1.90896873289147        2.62829327498068
C          -13.09892108944223       -2.36390389903986        4.39661787969369
C          -13.58459604446430       -4.08304787621152        2.62997034468439
C          -11.01904983909799       -2.55366925090890        2.20670012103493
C           -9.93788463430297       -2.11559522303842        1.46986489616097
C          -10.14874312362238       -1.10991385994936        0.53807569645112
N           -9.25790689873396       -0.46998347690668       -0.30062114132388
C           -7.90011725898410       -0.76374454221203       -0.43282543867822
C           -7.46882700543043       -2.08503698811838       -0.59083170299572
C           -6.13466578973365       -2.37058577680273       -0.73266133124865
C           -5.15194557418045       -1.35737964195412       -0.70961676079402
C           -3.75500286954885       -1.65458422836602       -0.85608786921067
C           -3.31615173748951       -2.83294641194239       -1.52250128005261
C           -1.99720308798816       -3.13165677640137       -1.69638676027358
C           -1.01248692182082       -2.25796105121293       -1.18235800182325
C           -1.44300284963578       -1.07277200316159       -0.50193462955516
C           -2.75801364066772       -0.77350749567255       -0.35066612739529
C           -0.24518064121761       -0.27826445552827       -0.03392873246529
C            0.90142600411395       -1.16397897257026       -0.50394242957702
C            2.23030093685264       -0.96578228396159       -0.33414739737672
C            3.16653335582447       -1.88668769017330       -0.87687088655474
C            4.57340119026709       -1.65395045292730       -0.71952211392482
C            5.06856585228614       -0.89051389672746        0.36100633653556
C            6.40238583946659       -0.60215765849177        0.48745151783679
C            7.32190924811565       -1.05882320551049       -0.46338507211422
N            8.67029771853931       -0.72019895564981       -0.35412026368031
C            9.15839137928456        0.54406685395547       -0.08822623108839
C            8.48858804884170        1.74935156216704        0.06340604871265
C            9.23854808577110        2.88335203109747        0.29797389341435
C           10.63783159892049        2.86812558543820        0.37809238639382
C           11.37139291721852        4.17254747786163        0.65240563959438
C           10.89718997033632        4.74362771314656        1.99650669913455
C           11.06499950793498        5.16998791942649       -0.47391380863666
C           12.88983437712292        3.98981940062193        0.72505907187737
C           11.29834859905004        1.66401833204864        0.19001212739478
C           10.56879001100401        0.50759118180652       -0.04732148779653
C           10.94666529708368       -0.85583014147154       -0.30213311682642
C           12.17385637005504       -1.49981842078995       -0.37131384640830
C           12.22233484104459       -2.86358773310187       -0.61482714113595
C           13.53097872579982       -3.63312357083996       -0.71466077864301
C           13.62103871832519       -4.29372111703136       -2.09772708333339
C           13.56847044793551       -4.70946009330022        0.37953168571535
C           14.75765581355736       -2.73378035578010       -0.53827388463913
C           11.01499620940413       -3.56006304678692       -0.76318959382953
C            9.78130349910588       -2.94562405775183       -0.69852723149932
C            9.74600058428982       -1.57529686140672       -0.48704020815919
C            6.85874028035314       -1.84738369512791       -1.52244604217007
C            5.52372445411950       -2.14186471047895       -1.64118923349313
C            2.65266910668792       -3.01018249455946       -1.58093355629476
C            1.31463773182615       -3.23312318097740       -1.72676508512545
C            0.38909104190258       -2.30761475278786       -1.19074646382435
C           -0.14712419657637       -0.13450912332509        1.46415644505344
C           -0.69067819505874       -1.09485502611547        2.30036569153164
C           -0.47260784793737       -1.05916547809308        3.66648368720417
C            0.32912735489470       -0.06552033573942        4.20036729636803
C            0.87186016692054        0.90714864208034        3.38398971916880
C            0.61978321540117        0.90389129308026        2.01126083321907
N            1.12327180142573        1.90062930053957        1.18470547080051
C            2.08658125990440        2.82353095751637        1.67147240757726
C            3.39716241931050        2.73355531066125        1.21689048422316
C            4.35364838883480        3.61592800370400        1.68557937803101
C            4.00798533094495        4.59286786479127        2.60402724805892
C            2.69942500145306        4.69319194994444        3.04692372714466
C            1.73731874146543        3.81442896923989        2.58213953591965
C            0.62150565873387        2.07743494295216       -0.09787826677271
C            0.82265418389246        3.28198371726409       -0.77372153115785
C            0.29623976047870        3.47308828822400       -2.03564665044276
C           -0.44722384738323        2.47370648051099       -2.63967623594924
C           -0.64819071486872        1.27613746194660       -1.97560418281987
C           -0.12209198909568        1.06328547202600       -0.71239118255555
C           -5.61009951096057       -0.03304747352520       -0.53798641759754
C           -6.94457335226571        0.25767971809567       -0.41152313369025
H          -13.11922892720239        2.00456250866605       -4.47948956413772
H          -13.44899854584827        3.71438931528320       -4.77596590296004
H          -11.78847355083626        3.12658395369587       -4.75112095203818
H          -14.16318765752023        3.41384743431203       -1.16730207858490
H          -14.76179981360299        3.95563476377946       -2.73120430547808
H          -14.57984552595444        2.23298402469831       -2.42265022485315
H          -12.85257508716070        5.44285719271185       -2.97540284404581
H          -11.19546073541323        4.84599152415090       -2.95378209498659
H          -12.12675778811587        4.90079726696399       -1.45913316342687
H          -10.09541787145234        2.92467675440044       -3.29447432403406
H           -8.49390848312461        1.36991971799715       -2.33077080561925
H          -13.23161760878007        1.35907674512688       -0.82828212529486
H          -13.46413753007979       -0.53572601509279        1.00970559382658
H          -15.07376992065814       -2.04750638216638        1.59024666296504
H          -14.74125335808562       -0.84500652598679        2.85015075919258
H          -15.54896648987982       -2.35422594490318        3.25695823057439
H          -12.18336580817778       -2.87759156020864        4.67605859737248
H          -13.90515133052317       -2.74021990235339        5.02298153551456
H          -12.96952533563510       -1.30286261791177        4.60012943752023
H          -14.40095312484774       -4.49651942471005        3.21864578046459
H          -12.67775724386443       -4.62722398250193        2.87821559123746
H          -13.80178984417550       -4.24546917324683        1.57620206574598
H          -10.84993573702286       -3.33787169599897        2.92874904121857
H           -8.95717466655295       -2.53733563424967        1.62946488647909
H           -8.20081958577969       -2.87872790432860       -0.62467037955481
H           -5.83433945832986       -3.40167552495371       -0.83771734127598
H           -4.05850169753748       -3.49284411090685       -1.94587462950318
H           -1.69813629279289       -4.02337915091876       -2.22748967419329
H           -3.04638243027992        0.11467974795959        0.19159770003962
H            2.58643860456199       -0.08542437057904        0.17595336065872
H            4.39153823576538       -0.56473365041152        1.13622121079215
H            6.75945121993531       -0.04530257253496        1.34161939911705
H            7.41342997221751        1.80705146135835       -0.01537190639160
H            8.71315026808018        3.81887725600591        0.41708868055721
H           11.09218787131012        4.03204598064004        2.79628201661286
H            9.83224872460736        4.95807390440491        1.98408666720889
H           11.42719275052032        5.66742257277464        2.21926387723712
H           10.00306164194496        5.39228497778700       -0.53022543125216
H           11.37821280647724        4.76131864255238       -1.43244143563202
H           11.59940709334927        6.10255712287702       -0.30459398755502
H           13.36066856516459        4.94842890055355        0.93415331973750
H           13.28547297757430        3.62138852128656       -0.21856139486260
H           13.16305247089827        3.30082217174401        1.52098250011063
H           12.37323191926823        1.59932127488076        0.21732403610368
H           13.06987181964802       -0.91935021809491       -0.22766138431814
H           14.56063109648076       -4.83377251455644       -2.19487151567664
H           13.57504048452074       -3.53729497063462       -2.87856791231195
H           12.80772777339840       -4.99621859253357       -2.25639591793972
H           13.48093955303239       -4.24945139415706        1.36171668358215
H           14.50865117585979       -5.25546021506260        0.33610231785721
H           12.75641810919189       -5.42182344048986        0.26434176652984
H           14.78937491525674       -1.96114383451978       -1.30304832379954
H           15.66186978399676       -3.33261480885240       -0.62829475181916
H           14.76222974222526       -2.26592757307271        0.44350197329515
H           11.03686754589183       -4.62597435041438       -0.93127515816984
H            8.87457491505917       -3.52299730955876       -0.79597952571623
H            7.55838079899052       -2.18828812723260       -2.27141885353454
H            5.18951639057688       -2.71390107554368       -2.49306585294580
H            3.35081414307717       -3.73326291357279       -1.97658473244835
H            0.95527266790174       -4.11003151528934       -2.24519825181400
H           -1.28021835566869       -1.89002677900457        1.86865116071112
H           -0.90496968906819       -1.81503492582325        4.30385678928041
H            0.53595840377385       -0.04323557414482        5.26010851093032
H            1.50174539016773        1.67032841963681        3.81446711084452
H            3.66144895943637        1.97680219446800        0.49263577324668
H            5.37183468797397        3.53776412036518        1.33442850221651
H            4.75609639475400        5.27916882572752        2.97133874544117
H            2.42498991477935        5.46133558873863        3.75466688486201
H            0.71263344970597        3.89338047477619        2.91489964307583
H            1.38980694642812        4.07100723326441       -0.30279514490487
H            0.46456179042255        4.41031099204958       -2.54506080933388
H           -0.86171584348798        2.62112175689697       -3.62518106107090
H           -1.21436195858313        0.48683101188328       -2.44739263470176
H           -4.89978469488935        0.77924254008844       -0.53345774697535
H           -7.26687753681469        1.27908461430960       -0.27090028490165

 projected vibrational frequencies (cm⁻¹)
eigval :       -0.00     0.00     0.00     0.00     0.00     0.00
eigval :        3.31     4.89     5.90     7.50    10.45    12.57
eigval :       18.86    24.29    26.10    30.43    30.82    33.24
eigval :       33.41    34.85    38.15    43.19    46.77    52.94
eigval :       54.28    58.63    59.21    60.58    71.38    73.57
eigval :       77.44    83.33    91.85    96.67    99.10   101.00
eigval :      104.19   115.67   117.25   120.36   129.01   143.56
eigval :      154.40   160.32   160.51   172.03   174.82   177.12
eigval :      180.50   182.42   191.07   199.33   202.04   202.35
eigval :      203.35   215.93   217.74   218.90   222.52   223.64
eigval :      228.20   230.04   232.06   244.53   246.08   252.42
eigval :      258.33   258.57   261.13   268.48   271.72   275.29
eigval :      282.36   292.89   304.07   306.43   317.73   317.76
eigval :      322.09   322.29   323.72   331.84   337.29   339.54
eigval :      349.06   353.45   359.42   359.57   366.40   368.76
eigval :      370.28   374.53   376.10   377.86   381.54   383.73
eigval :      388.63   389.94   396.80   401.19   402.23   405.61
eigval :      409.40   410.03   416.18   422.38   423.65   429.94
eigval :      441.51   442.18   442.64   443.15   445.47   453.49
eigval :      461.37   462.40   466.04   466.51   467.01   473.83
eigval :      477.61   490.24   494.62   504.67   508.19   517.72
eigval :      518.86   526.11   535.31   542.15   566.79   572.50
eigval :      574.36   579.65   584.37   584.64   588.26   588.98
eigval :      591.79   595.51   602.32   604.87   608.87   614.12
eigval :      617.76   629.43   629.72   634.80   640.02   640.12
eigval :      657.22   664.71   670.22   675.36   675.84   679.04
eigval :      686.07   688.88   688.98   702.83   703.44   707.18
eigval :      707.96   714.40   719.49   719.53   724.99   731.21
eigval :      746.47   763.80   775.28   775.65   790.40   798.85
eigval :      804.77   809.46   812.96   822.18   823.16   824.15
eigval :      824.42   831.62   832.39   839.61   847.09   849.64
eigval :      859.48   866.02   867.07   870.73   871.01   871.98
eigval :      872.34   873.53   873.55   880.40   893.75   900.02
eigval :      901.58   902.63   905.36   908.20   908.22   908.91
eigval :      909.59   910.76   910.98   911.66   912.87   920.35
eigval :      920.46   921.46   921.82   922.73   923.18   926.08
eigval :      926.54   928.81   930.44   932.61   935.41   938.23
eigval :      941.55   941.99   960.09   960.18   960.22   960.25
eigval :      962.74   962.78   962.86   962.95   962.96   962.97
eigval :      963.15   963.20   978.57   995.35  1002.30  1009.26
eigval :     1030.88  1030.99  1035.32  1035.36  1035.42  1035.45
eigval :     1035.69  1035.74  1038.85  1041.50  1041.64  1046.95
eigval :     1079.93  1082.63  1104.05  1106.17  1109.70  1114.90
eigval :     1117.04  1123.46  1128.26  1129.71  1129.80  1137.85
eigval :     1138.66  1142.40  1142.78  1153.41  1163.79  1169.60
eigval :     1172.83  1173.95  1174.13  1180.66  1182.70  1183.40
eigval :     1186.64  1193.29  1202.31  1212.44  1217.24  1226.81
eigval :     1227.45  1227.53  1227.63  1227.66  1228.70  1231.09
eigval :     1231.17  1231.79  1231.93  1236.10  1236.46  1237.71
eigval :     1241.01  1243.92  1244.67  1259.73  1260.02  1262.08
eigval :     1262.94  1268.01  1270.57  1274.82  1275.42  1284.24
eigval :     1284.55  1290.65  1301.42  1302.60  1302.63  1303.71
eigval :     1309.77  1312.82  1315.19  1318.66  1324.36  1328.55
eigval :     1329.17  1333.08  1334.85  1348.80  1349.70  1352.73
eigval :     1353.82  1356.06  1367.61  1368.49  1380.04  1401.90
eigval :     1402.11  1402.33  1404.39  1404.55  1405.59  1405.66
eigval :     1405.72  1405.76  1411.69  1411.99  1419.48  1426.74
eigval :     1428.13  1428.18  1428.28  1428.44  1429.94  1431.05
eigval :     1435.53  1438.44  1438.90  1441.02  1461.16  1461.98
eigval :     1468.94  1473.95  1474.54  1477.40  1482.45  1483.56
eigval :     1483.74  1486.09  1486.87  1491.63  1491.94  1491.99
eigval :     1492.01  1492.10  1494.62  1494.66  1494.69  1494.73
eigval :     1497.12  1501.12  1501.14  1501.19  1501.27  1505.28
eigval :     1505.30  1505.32  1505.42  1508.21  1514.60  1514.66
eigval :     1514.92  1514.96  1520.00  1520.03  1520.77  1520.84
eigval :     1536.43  1565.59  1565.63  1567.07  1574.70  1577.63
eigval :     1578.05  1581.46  1581.64  1582.90  1592.13  1593.20
eigval :     1593.93  1597.08  1599.52  1603.56  1606.80  1612.45
eigval :     3020.95  3021.07  3021.11  3021.24  3022.42  3022.53
eigval :     3022.59  3022.67  3026.86  3026.93  3027.05  3027.08
eigval :     3029.32  3029.40  3029.52  3029.77  3030.93  3031.09
eigval :     3031.12  3031.19  3035.41  3035.55  3035.69  3035.77
eigval :     3038.07  3038.08  3038.28  3038.40  3047.03  3047.54
eigval :     3047.68  3047.78  3050.09  3050.84  3050.90  3051.02
eigval :     3070.44  3073.98  3076.06  3078.07  3078.24  3078.59
eigval :     3079.04  3079.54  3079.76  3080.03  3080.35  3082.08
eigval :     3083.21  3083.56  3083.74  3084.88  3085.23  3085.83
eigval :     3087.11  3087.82  3089.45  3091.25  3091.37  3091.69
eigval :     3094.00  3094.40  3095.00  3095.48  3095.89  3096.83
eigval :     3097.36  3098.45  3098.70  3100.14  3107.62  3114.71
eigval :     3114.94  3118.19  3118.72

   temp. (K)  partition function   enthalpy   heat capacity  entropy
                                   cal/mol     cal/K/mol   cal/K/mol   J/K/mol
 298.15  VIB  0.313E+39            46876.959    288.545    295.024
         ROT  0.711E+09              888.752      2.981     43.485
         INT  0.222E+48            47765.711    291.525    338.509
         TR   0.360E+29             1481.254      4.968     46.883
         TOT                       49246.9653   296.4936   385.3922  1612.4808

       T/K    H(0)-H(T)+PV         H(T)/Eh          T*S/Eh         G(T)/Eh
   ------------------------------------------------------------------------
    298.15    0.784800E-01    0.139215E+01    0.183112E+00    0.120904E+01
   ------------------------------------------------------------------------

         :::::::::::::::::::::::::::::::::::::::::::::::::::::
         ::                  THERMODYNAMIC                  ::
         :::::::::::::::::::::::::::::::::::::::::::::::::::::
         :: total free energy        -223.659618001691 Eh   ::
         ::.................................................::
         :: total energy             -224.868655584745 Eh   ::
         :: zero point energy           1.313669799620 Eh   ::
         :: G(RRHO) w/o ZPVE           -0.104632216566 Eh   ::
         :: G(RRHO) contrib.            1.209037583054 Eh   ::
         :::::::::::::::::::::::::::::::::::::::::::::::::::::

           -------------------------------------------------
          | TOTAL ENERGY             -224.868655584745 Eh   |
          | TOTAL ENTHALPY           -223.476505750423 Eh   |
          | TOTAL FREE ENERGY        -223.659618001691 Eh   |
          | GRADIENT NORM               0.000056969294 Eh/α |
           -------------------------------------------------

 * finished run on 2025/08/26 at 07:49:47.685
