   * xtb version 6.7.1 (edcfbbe) compiled by 'albert@albert-system' on 2024-07-22

   ID    Z sym.   atoms
    1    6 C      1-20, 22-39, 41-71, 73-86
    2    7 N      21, 40, 72
    3    1 H      87-161

          program call               : xtb data2507/gas/SAF-2CzB/SAF-2CzB_gas_S0_finalOpt.xtbopt.xyz --gfn 2 --spinpol --tblite --uhf 2 --ohess vtight --parallel 40 --molden --ceasefiles --namespace data2507/gas/SAF-2CzB/SAF-2CzB_gas_T1_preOpt
 * total energy  :  -224.8590944 Eh     change        0.5778512E-07 Eh
 * total energy  :  -224.8645578 Eh     change       -0.5463447E-02 Eh
 * total energy  :  -224.8667968 Eh     change       -0.2239021E-02 Eh
 * total energy  :  -224.8670545 Eh     change       -0.2576760E-03 Eh
 * total energy  :  -224.8674424 Eh     change       -0.3878860E-03 Eh
 * total energy  :  -224.8675721 Eh     change       -0.1296781E-03 Eh
 * total energy  :  -224.8676578 Eh     change       -0.8575836E-04 Eh
 * total energy  :  -224.8677017 Eh     change       -0.4382445E-04 Eh
 * total energy  :  -224.8677367 Eh     change       -0.3508191E-04 Eh
 * total energy  :  -224.8677580 Eh     change       -0.2129789E-04 Eh
 * total energy  :  -224.8684494 Eh     change       -0.2626967E-05 Eh
 * total energy  :  -224.8684522 Eh     change       -0.2871941E-05 Eh
 * total energy  :  -224.8684553 Eh     change       -0.3063289E-05 Eh
 * total energy  :  -224.8684586 Eh     change       -0.3269190E-05 Eh
 * total energy  :  -224.8684620 Eh     change       -0.3458123E-05 Eh
 * total energy  :  -224.8684658 Eh     change       -0.3801917E-05 Eh
 * total energy  :  -224.8684697 Eh     change       -0.3878889E-05 Eh
 * total energy  :  -224.8684697 Eh     change        0.6118199E-08 Eh
 * total energy  :  -224.8684697 Eh     change       -0.1898201E-07 Eh
   *** GEOMETRY OPTIMIZATION CONVERGED AFTER 95 ITERATIONS ***

 final structure:
================
161
 xtb: 6.7.1 (edcfbbe)
C          -12.98233614707017        1.93160943311173       -4.62694639083273
C          -12.89499050706739        2.54245791948452       -3.22095892017655
C          -14.30391638297761        2.55686895152429       -2.62147303418408
C          -12.40330477605143        3.99389227971737       -3.31402361595746
C          -11.91235722063726        1.73392425641679       -2.38687612255766
C          -10.58082887970190        1.63918247990665       -2.81449183571167
C           -9.62024982365331        0.92836089618019       -2.12485700074860
C           -9.99896036789366        0.28980090835581       -0.95333717380592
C          -11.33865980392363        0.35031835870284       -0.51244286675003
C          -12.28410458048361        1.07284937595874       -1.22633988890193
C          -11.40976330383063       -0.44924928298153        0.68046816476447
C          -12.43835696698099       -0.74274283661471        1.56446039928440
C          -12.18836857552320       -1.54045528822960        2.67045925135974
C          -13.26640349246196       -1.90263303242232        3.68121395412367
C          -14.63229935337476       -1.31036538907029        3.32317605899304
C          -12.86226446664742       -1.36583689524929        5.06181565112418
C          -13.41091262037913       -3.43001836311542        3.73885146266292
C          -10.88618202888549       -2.01908888209475        2.87058610775310
C           -9.84483746335608       -1.74302937446933        2.00867030616409
C          -10.11234242152982       -0.96323836300677        0.89329752841999
N           -9.26677709704022       -0.50852011041001       -0.09812334703932
C           -7.90838031466095       -0.80942979436991       -0.21873429569671
C           -7.46485577334128       -2.13323952278836       -0.14140917152794
C           -6.13159124497780       -2.42919877723747       -0.27531944111638
C           -5.16641157882756       -1.41937069668141       -0.46877340888581
C           -3.76892594231060       -1.72724455553682       -0.60282990745979
C           -3.33846061722483       -2.97988046293516       -1.11935780355077
C           -2.02096300171260       -3.29049646267273       -1.28623630804751
C           -1.03303480131963       -2.35367068147211       -0.90702102875925
C           -1.45700306858160       -1.09625004186162       -0.36619084805824
C           -2.77140555207522       -0.78379017126578       -0.23279796782800
C           -0.25480877593326       -0.25147106708757       -0.01108594456296
C            0.88770739626132       -1.18273903467152       -0.39559206118223
C            2.21822652628523       -0.96669788325144       -0.26689658599839
C            3.14803307053013       -1.94134748282945       -0.72007755768553
C            4.55605780196711       -1.69838026433853       -0.59950846348371
C            5.06404187366774       -0.85096222448371        0.41028576745252
C            6.40176889708524       -0.57063280606943        0.50903839097256
C            7.31188780182625       -1.11210409327506       -0.40643071365886
N            8.66613941733007       -0.79165128133730       -0.32457866444091
C            9.18179338481880        0.47466029124779       -0.12696754297877
C            8.53990092309386        1.70126767403785       -0.03660682277393
C            9.31507948704540        2.82816818717127        0.14478430496823
C           10.71351498280057        2.78559158315544        0.22937004016924
C           11.47610038794922        4.08313736912190        0.45203275778477
C           11.00857091870032        4.72092619250111        1.76827440949440
C           11.19918668228241        5.03930833674195       -0.71677114909019
C           12.98940034126104        3.86809445297549        0.54215902750383
C           11.34679514967457        1.55990105298545        0.09511730412386
C           10.59135186474716        0.41037942764076       -0.08782061232748
C           10.94008007461902       -0.97126996567189       -0.27615761599678
C           12.15438552740937       -1.64103928725978       -0.32373033994687
C           12.17521922630466       -3.01580086958407       -0.49971114561439
C           13.46823939789558       -3.81325918847193       -0.58099111799774
C           14.71314926877318       -2.92888622765033       -0.46821471048172
C           13.52351707695662       -4.54141869358104       -1.93167314298062
C           13.50501516728464       -4.83593203154800        0.56342577192825
C           10.95344622021478       -3.69581223969735       -0.59701099663945
C            9.73216896514827       -3.05530169281876       -0.55223578664815
C            9.72409465772686       -1.67489091820823       -0.41600515794571
C            6.83293035979063       -1.97239881377109       -1.40147861156664
C            5.49532382089203       -2.26509816707107       -1.48699533685056
C            2.62716341501978       -3.13386369297579       -1.29419913050298
C            1.28802374487802       -3.37489726238568       -1.38917703299919
C            0.36825261360487       -2.39852521777440       -0.93924292357537
C           -0.13391769983854        0.05816855518686        1.46012517758132
C           -0.66124357252809       -0.80349027318703        2.40691448768606
C           -0.42147995234073       -0.61527315232292        3.75682142039525
C            0.38505077572436        0.43314210821820        4.16372178068790
C            0.91197008231811        1.30918704771992        3.23530414147486
C            0.63902765536393        1.15157613604637        1.87565536580826
N            1.12790378809328        2.04958566650837        0.93528244794549
C            2.09364998474953        3.02369664004315        1.30364548260708
C            3.40171830941913        2.88068399503142        0.85589079982793
C            4.35944430743110        3.81350812912373        1.21073445206603
C            4.01751013456707        4.89261580803937        2.00818762488389
C            2.71148403761890        5.04367433882512        2.44418222813824
C            1.74816467910671        4.11506789756892        2.09275566808384
C            0.60663321101583        2.08216373910430       -0.35115380854835
C            0.79709273672789        3.20270839780611       -1.16122837325099
C            0.25030190530808        3.25174943651222       -2.42801899946164
C           -0.50292243849005        2.19224304128116       -2.90394315058808
C           -0.69221084485542        1.07669089492623       -2.10685625856433
C           -0.14548269341443        1.00601537962054       -0.83651333177033
C           -5.63434572857314       -0.09023873659951       -0.52858392491160
C           -6.96959610818339        0.20715300955781       -0.41974814231918
H          -13.30669840212572        0.89476270483019       -4.56609511264634
H          -13.69938194111979        2.48316679012814       -5.23159783200276
H          -12.02082405762390        1.95771590088208       -5.13191923932587
H          -14.30145498208076        2.99732714558456       -1.62707211885579
H          -14.95971943933683        3.15433276945863       -3.25179171661091
H          -14.71634779884036        1.55204525414477       -2.56672397109599
H          -13.10384717747544        4.59045009220937       -3.89482477285008
H          -11.42930791490542        4.05392775473885       -3.79137426343781
H          -12.32244568284837        4.42722438116256       -2.31920897083064
H          -10.28151518244049        2.13465417889663       -3.72546123929237
H           -8.60955311358607        0.86282188275316       -2.49840479068112
H          -13.29763962904837        1.09736928163705       -0.86223344643995
H          -13.41620557872528       -0.33359209485763        1.37252536780201
H          -14.97547656782808       -1.67414019005225        2.35740232749125
H          -14.59469321443031       -0.22363228300350        3.30341823543999
H          -15.36344157070674       -1.60678783631236        4.07277743887087
H          -11.92919621295562       -1.80616367026368        5.40191448101022
H          -13.63369330610442       -1.59559890455083        5.79398679956668
H          -12.73428156986583       -0.28602255459202        5.02182739667988
H          -14.19019675612165       -3.70644186560383        4.44614966090919
H          -12.48523800560174       -3.90539001889420        4.05078143928993
H          -13.68012925089859       -3.81870067843200        2.75884860690248
H          -10.67358012340486       -2.62696752724319        3.73673973662884
H           -8.85089453917980       -2.11342688894173        2.20927675369403
H           -8.18680466226625       -2.92408712755753        0.00160074694358
H           -5.81600392237356       -3.45858799583987       -0.20007742980437
H           -4.08749930837368       -3.69090456877044       -1.43519049797215
H           -1.72584506584580       -4.24035253837722       -1.70724214544389
H           -3.05987637264101        0.16371171067568        0.19814521873663
H            2.58196838681628       -0.03610123786811        0.13816353032650
H            4.39302615182115       -0.45505622707635        1.15776282981860
H            6.76911889903577        0.04500383653313        1.31711671368027
H            7.46656965613723        1.78041747592873       -0.12029542658645
H            8.81065355916894        3.77976207114548        0.21857602805496
H           11.17998698804437        4.03793033384135        2.59782851719306
H            9.94968176140383        4.96208692886283        1.73950686703915
H           11.56110818701858        5.63905901617556        1.95704676930544
H           10.14272176254563        5.28181549149680       -0.79021489616810
H           11.50990128122602        4.58467749906988       -1.65519838574349
H           11.75267849924666        5.96634219319636       -0.58190998476830
H           13.48155522255899        4.82316601426354        0.71518639877750
H           13.38180117847480        3.45222087704017       -0.38290840680478
H           13.24155298243528        3.20604683142049        1.36738232577882
H           12.41997300249687        1.47233828164986        0.12525119438091
H           13.06233170588780       -1.07106445480506       -0.21800543846590
H           15.60518229546652       -3.54772171842624       -0.54311809216413
H           14.74228137559743       -2.41394280756579        0.48926406816564
H           14.74545125557082       -2.19510698208349       -1.27033045847172
H           12.69655756857697       -5.23718066359172       -2.04219628175516
H           14.45263009409604       -5.10099816854617       -2.01838590939707
H           13.47555626615565       -3.82296319148530       -2.74749079055523
H           13.44341657532694       -4.32744694014322        1.52341702368007
H           14.43399630410558       -5.40148863327325        0.53077187045532
H           12.67800736052088       -5.53718121165533        0.49658048798750
H           10.95337822403905       -4.76936046429228       -0.70823289004894
H            8.81463766541862       -3.62087241907430       -0.60761917329934
H            7.52318772519731       -2.37336175098980       -2.12898037161241
H            5.14885189668162       -2.89903179204849       -2.28880686491068
H            3.32248282914002       -3.89245058257088       -1.62283762635477
H            0.92281973521667       -4.30356087636017       -1.80276564478823
H           -1.25524018756531       -1.64258397371900        2.07630636302072
H           -0.84105344640925       -1.29604747314988        4.48140843278542
H            0.60806447045932        0.57405270203311        5.21097261667434
H            1.54550439921099        2.11717258528588        3.56752947853496
H            3.66329260510874        2.04287032362237        0.22603406773905
H            5.37561484567089        3.69519553580166        0.86507189020584
H            4.76658361284230        5.61859010574072        2.28651201425033
H            2.44009050972582        5.89004476695047        3.05756803653779
H            0.72540597337570        4.23126511565351        2.42050006578871
H            1.37207581691337        4.03846652975617       -0.79124134992871
H            0.41043535829670        4.12545629260157       -3.04219555977413
H           -0.93367829850744        2.22912478005606       -3.89280943630033
H           -1.26530313256146        0.23999099308079       -2.47792579211383
H           -4.93221279396032        0.71239179754509       -0.69535329489690
H           -7.30465971739888        1.23316497440346       -0.46634702258959

 projected vibrational frequencies (cm⁻¹)
eigval :       -0.00    -0.00    -0.00    -0.00     0.00     0.00
eigval :        3.07     5.32     6.27     8.22    11.23    12.82
eigval :       18.67    24.35    26.04    30.41    30.90    33.16
eigval :       33.58    34.62    37.57    43.23    45.98    52.86
eigval :       54.34    58.33    59.16    60.36    71.40    73.75
eigval :       77.36    83.01    91.68    94.65   100.06   102.22
eigval :      103.57   115.68   116.99   121.16   129.12   143.00
eigval :      154.14   159.95   160.71   172.05   174.00   176.53
eigval :      181.20   182.74   191.28   199.90   202.19   202.42
eigval :      203.11   215.86   217.78   218.92   222.51   223.68
eigval :      228.30   230.07   231.96   243.59   246.01   251.82
eigval :      258.27   258.46   260.97   268.35   271.58   275.76
eigval :      282.36   292.56   303.61   305.69   317.70   317.76
eigval :      322.07   322.21   323.94   331.72   337.29   339.44
eigval :      349.11   353.39   359.38   359.50   366.85   368.71
eigval :      370.22   374.77   376.82   377.27   381.66   384.17
eigval :      389.35   389.96   396.45   401.05   402.25   405.30
eigval :      409.48   410.05   416.17   421.55   423.74   429.33
eigval :      441.54   442.16   442.63   443.08   445.64   453.82
eigval :      461.38   462.62   465.91   466.24   466.90   475.05
eigval :      477.41   490.52   495.21   504.80   508.29   517.78
eigval :      518.97   526.32   534.53   541.83   566.94   572.74
eigval :      574.40   579.59   584.34   584.71   588.27   589.17
eigval :      591.77   595.49   602.17   604.88   608.57   614.83
eigval :      617.74   629.34   629.79   634.63   639.96   640.14
eigval :      657.06   664.77   670.51   675.30   676.11   679.12
eigval :      686.09   688.88   688.91   702.45   703.17   706.93
eigval :      707.61   714.32   719.28   719.48   724.20   731.03
eigval :      744.96   763.93   775.44   775.66   790.55   799.16
eigval :      805.01   809.99   813.88   821.80   823.32   824.11
eigval :      824.61   831.52   832.28   840.10   849.48   850.93
eigval :      863.36   866.06   867.08   870.77   871.00   872.05
eigval :      872.17   873.41   873.58   880.06   893.73   900.36
eigval :      901.96   902.60   905.34   908.09   908.83   909.06
eigval :      909.58   910.55   910.86   912.00   912.98   920.31
eigval :      920.48   920.77   922.11   923.09   923.47   926.27
eigval :      926.52   929.18   929.82   932.65   935.19   938.51
eigval :      941.68   941.96   960.15   960.19   960.23   960.26
eigval :      962.79   962.82   962.86   962.99   963.01   963.02
eigval :      963.21   963.23   978.63   995.19  1001.77  1008.43
eigval :     1030.83  1030.96  1035.36  1035.44  1035.47  1035.54
eigval :     1035.74  1035.79  1040.44  1041.48  1041.50  1046.64
eigval :     1079.80  1082.35  1103.87  1105.98  1110.05  1114.83
eigval :     1116.91  1123.34  1127.52  1129.45  1129.98  1137.41
eigval :     1138.75  1141.82  1142.75  1152.92  1162.93  1169.30
eigval :     1172.77  1174.04  1174.23  1180.83  1183.34  1183.95
eigval :     1186.53  1192.44  1202.42  1212.33  1217.18  1226.62
eigval :     1227.25  1227.50  1227.52  1227.62  1227.64  1231.02
eigval :     1231.13  1231.80  1231.93  1236.18  1236.52  1237.46
eigval :     1241.02  1244.25  1244.54  1259.74  1260.35  1262.28
eigval :     1263.03  1268.17  1269.71  1272.70  1275.42  1284.30
eigval :     1284.58  1290.18  1301.46  1302.41  1302.66  1303.81
eigval :     1309.57  1313.03  1315.55  1318.82  1324.36  1328.59
eigval :     1329.62  1332.93  1334.88  1348.54  1349.56  1353.01
eigval :     1353.59  1354.98  1368.14  1368.62  1379.66  1401.50
eigval :     1402.15  1402.22  1404.49  1404.58  1405.61  1405.72
eigval :     1405.74  1405.79  1411.71  1411.92  1418.54  1426.36
eigval :     1428.40  1428.50  1428.59  1428.68  1429.47  1431.19
eigval :     1435.26  1438.24  1439.15  1440.70  1461.08  1462.36
eigval :     1469.18  1474.18  1474.33  1477.09  1482.24  1483.64
eigval :     1483.85  1485.98  1486.46  1490.99  1491.94  1492.08
eigval :     1492.10  1492.13  1494.63  1494.68  1494.69  1494.77
eigval :     1498.04  1501.14  1501.18  1501.22  1501.27  1505.29
eigval :     1505.40  1505.43  1505.44  1507.57  1514.58  1514.79
eigval :     1514.85  1515.06  1520.04  1520.04  1520.85  1520.89
eigval :     1535.57  1565.30  1565.77  1566.89  1574.53  1577.40
eigval :     1578.18  1581.38  1581.69  1582.72  1592.06  1593.53
eigval :     1593.54  1595.85  1598.98  1603.00  1607.21  1611.68
eigval :     3020.88  3021.02  3021.14  3021.28  3022.33  3022.39
eigval :     3022.63  3022.72  3026.83  3026.91  3026.93  3026.94
eigval :     3029.20  3029.43  3029.45  3029.78  3030.85  3030.92
eigval :     3030.98  3031.02  3035.40  3035.43  3035.67  3035.69
eigval :     3037.90  3037.97  3038.13  3038.29  3046.75  3047.47
eigval :     3047.51  3047.53  3049.93  3050.76  3050.81  3050.87
eigval :     3070.43  3073.66  3076.67  3076.96  3078.38  3078.87
eigval :     3078.98  3079.31  3080.20  3080.33  3080.59  3080.87
eigval :     3082.62  3082.98  3084.04  3085.07  3085.24  3086.11
eigval :     3087.19  3087.34  3089.47  3091.65  3091.79  3092.13
eigval :     3093.94  3094.45  3094.66  3095.07  3095.44  3095.79
eigval :     3096.31  3098.54  3098.60  3100.34  3105.89  3114.89
eigval :     3115.25  3118.46  3118.97

   temp. (K)  partition function   enthalpy   heat capacity  entropy
                                   cal/mol     cal/K/mol   cal/K/mol   J/K/mol
 298.15  VIB  0.260E+39            46878.799    288.503    294.822
         ROT  0.713E+09              888.752      2.981     43.491
         INT  0.185E+48            47767.551    291.484    338.313
         TR   0.360E+29             1481.254      4.968     46.883
         TOT                       49248.8054   296.4517   385.1966  1611.6626

       T/K    H(0)-H(T)+PV         H(T)/Eh          T*S/Eh         G(T)/Eh
   ------------------------------------------------------------------------
    298.15    0.784830E-01    0.139212E+01    0.183019E+00    0.120910E+01
   ------------------------------------------------------------------------

         :::::::::::::::::::::::::::::::::::::::::::::::::::::
         ::                  THERMODYNAMIC                  ::
         :::::::::::::::::::::::::::::::::::::::::::::::::::::
         :: total free energy        -223.659370409743 Eh   ::
         ::.................................................::
         :: total energy             -224.868469718177 Eh   ::
         :: zero point energy           1.313635683244 Eh   ::
         :: G(RRHO) w/o ZPVE           -0.104536374811 Eh   ::
         :: G(RRHO) contrib.            1.209099308433 Eh   ::
         :::::::::::::::::::::::::::::::::::::::::::::::::::::

           -------------------------------------------------
          | TOTAL ENERGY             -224.868469718177 Eh   |
          | TOTAL ENTHALPY           -223.476351067863 Eh   |
          | TOTAL FREE ENERGY        -223.659370409743 Eh   |
          | GRADIENT NORM               0.000085660447 Eh/α |
           -------------------------------------------------

 * finished run on 2025/08/26 at 06:48:56.539
