   * xtb version 6.7.1 (edcfbbe) compiled by 'albert@albert-system' on 2024-07-22

   ID    Z sym.   atoms
    1    7 N      1, 7, 15, 23, 27, 43
    2    6 C      2-6, 8-14, 16-22, 24-26, 28-42, 44-52
    3    1 H      53-78

          program call               : xtb data2507/toluene/DICzTrz/DICzTrz.xyz --gfn 2 --gbsa toluene --ohess vtight --parallel 40 --molden --ceasefiles --namespace data2507/toluene/DICzTrz/DICzTrz_toluene_S0_preOpt
      * Solvation model:               GBSA
        Solvent                        toluene
        Solvent mass                       9.2140E+01 g/mol
          :  Hamiltonian                  GFN2-xTB          :
 * total energy  :  -129.3807200 Eh     change       -0.1366459E-08 Eh
 * total energy  :  -129.4065207 Eh     change       -0.2580069E-01 Eh
 * total energy  :  -129.4135876 Eh     change       -0.7066958E-02 Eh
 * total energy  :  -129.4152392 Eh     change       -0.1651627E-02 Eh
 * total energy  :  -129.4164388 Eh     change       -0.1199564E-02 Eh
 * total energy  :  -129.4172095 Eh     change       -0.7706888E-03 Eh
 * total energy  :  -129.4176614 Eh     change       -0.4519214E-03 Eh
 * total energy  :  -129.4178299 Eh     change       -0.1684490E-03 Eh
 * total energy  :  -129.4179766 Eh     change       -0.1467679E-03 Eh
 * total energy  :  -129.4180504 Eh     change       -0.7372916E-04 Eh
 * total energy  :  -129.4184271 Eh     change       -0.1067254E-05 Eh
 * total energy  :  -129.4184281 Eh     change       -0.9139538E-06 Eh
 * total energy  :  -129.4184289 Eh     change       -0.8028269E-06 Eh
 * total energy  :  -129.4184296 Eh     change       -0.7177570E-06 Eh
 * total energy  :  -129.4184302 Eh     change       -0.5980035E-06 Eh
 * total energy  :  -129.4184306 Eh     change       -0.4397359E-06 Eh
 * total energy  :  -129.4184309 Eh     change       -0.3018090E-06 Eh
 * total energy  :  -129.4184311 Eh     change       -0.2161754E-06 Eh
 * total energy  :  -129.4184311 Eh     change       -0.1693309E-08 Eh
   *** GEOMETRY OPTIMIZATION CONVERGED AFTER 68 ITERATIONS ***

 final structure:
================
78
 xtb: 6.7.1 (edcfbbe)
N           -2.05840990689458        1.06052367734255        2.38241701064313
C           -1.35774147801882        0.41468491057803        1.74310329170775
C           -0.44359141091676       -0.37782233414047        1.01325952642721
C            0.88858750727534        0.02026564398171        0.95992750895451
C            1.82715881403693       -0.75809768237032        0.29378802039910
C            3.22628312737078       -0.32845903974923        0.23292897713353
N            3.55819119675450        0.79053204277361        0.86799755536883
C            4.84220298969649        1.14021348157640        0.79536160598877
C            5.26487615497620        2.35421255426146        1.49123337272544
C            4.33281936166714        3.13332056891331        2.17672619829935
C            4.73794577477916        4.27804359844717        2.83570882962360
C            6.07212801234260        4.65590829031036        2.81773571521825
C            7.00381574768905        3.88564571106533        2.13787185462985
C            6.60523380933518        2.74005641831169        1.47667491863826
N            5.76098190493056        0.44732066031934        0.12785764370222
C            5.33839528498833       -0.65462482555919       -0.48598333397459
C            6.31443436498491       -1.44045375331408       -1.23872880009379
C            5.92787819049352       -2.61699285027410       -1.88054047047574
C            6.85467654673635       -3.35510559415760       -2.59112153099085
C            8.17189945643152       -2.92840222725812       -2.66898187791826
C            8.56265576133430       -1.75942842657435       -2.03323615365368
C            7.64077267295811       -1.01665902311731       -1.32124207468017
N            4.07685121338474       -1.08417191871021       -0.45351005691929
C            1.42342710858124       -1.94906037177184       -0.31517634554417
C            0.10635800756618       -2.35319307707808       -0.26241052553598
C           -0.84936152007396       -1.57604243516864        0.39128853965549
N           -2.17617711006467       -1.98758684185297        0.45294523645298
C           -2.60547001497224       -3.18090546496417        1.02369620345464
C           -1.86276444016862       -4.26203463211053        1.46900508073200
C           -2.54720395019739       -5.32502063671850        2.03124017450809
C           -3.93320806920135       -5.30751887650927        2.15789718937920
C           -4.67215322091286       -4.21778937443999        1.73930359194168
C           -4.00722581532688       -3.13969853183990        1.16919380664212
C           -4.45493477144007       -1.86751514445622        0.66206905032812
C           -5.75394518537999       -1.35164615448837        0.59278788057947
C           -5.89751246799710       -0.08730076245956        0.04218573927218
C           -6.90603710044853        0.90418715780508       -0.29170414107843
C           -8.27827048605989        0.95077747391465       -0.10707880114521
C           -8.97702043483464        2.06091227336071       -0.55126205457294
C           -8.32421880134682        3.11765922911339       -1.17348149578983
C           -6.95227800083700        3.10098293941178       -1.37196352236101
C           -6.24581479855652        1.99789647401387       -0.93240768458264
N           -4.88867303443467        1.70949915453699       -0.99683267263320
C           -3.64870391424506        2.11920411793154       -1.44948757182270
C           -3.28314931015590        3.26760618218863       -2.12781024076820
C           -1.95961828445041        3.41099661581059       -2.50667129029723
C           -1.02594085621862        2.41868423857620       -2.23431589663425
C           -1.38000165633440        1.26571185096883       -1.55584604959881
C           -2.68960823599495        1.10468800962609       -1.12503766112429
C           -3.39631990971240        0.04938928122979       -0.42001222698105
C           -3.27908802207596       -1.18992513151765        0.21743748874134
C           -4.71438827181619        0.49353646693048       -0.41434529129535
H            1.19957322752939        0.93628717191845        1.43750674716277
H            3.29850191133601        2.82632094611285        2.18123867494005
H            4.01245080590674        4.87772127073556        3.36498181533455
H            6.38572738453521        5.55095042290564        3.33414099077503
H            8.04264156841941        4.18014691592534        2.12450871493966
H            7.31609643258318        2.12800703489952        0.94398557545288
H            4.89953627878862       -2.93494026902683       -1.80964258497145
H            6.55122546690018       -4.26543357228391       -3.08648143593286
H            8.89422437181612       -3.50700158808450       -3.22538711804291
H            9.58834966027757       -1.42740297937732       -2.09470080487087
H            7.92633029408693       -0.10410219074812       -0.82188721486833
H            2.16104107361199       -2.53963231106271       -0.83451865523344
H           -0.20598786614829       -3.26360401622868       -0.75054801062171
H           -0.78622244527014       -4.27753883069609        1.39299760517646
H           -1.99262521975507       -6.18289981223601        2.38117030024834
H           -4.43378951142813       -6.15595010581923        2.60024392384955
H           -5.74477699321562       -4.19919030203648        1.85578386569422
H           -6.58726819315953       -1.93226453289430        0.95457903215490
H           -8.79091077686284        0.13277057012783        0.37635611344462
H          -10.04701434499056        2.10799202353645       -0.41257420833137
H           -8.89509894080010        3.97071431921509       -1.50928303776382
H           -6.45401072650639        3.92700240251865       -1.85509811215677
H           -4.01085832814202        4.02877919472481       -2.36140996577014
H           -1.65132453194223        4.30105337173986       -3.03452183777048
H           -0.00412284027343        2.54563714998979       -2.56136715001579
H           -0.64042928652481        0.49957780344619       -1.38252946349700

          :  Hamiltonian                  GFN2-xTB          :
         :: gradient norm              0.000041350091 Eh/a0 ::
         :: HOMO-LUMO gap              1.723757462496 eV    ::
         :: SCC energy              -131.826048766556 Eh    ::
         :: -> dispersion             -0.115969409905 Eh    ::
         :: -> Gsolv                  -0.059497089089 Eh    ::
         :: repulsion energy           2.407617626512 Eh    ::

    * Orbital Energies and Occupations

         #    Occupation            Energy/Eh            Energy/eV
      -------------------------------------------------------------
         1        2.0000           -0.6982113             -18.9993
       ...           ...                  ...                  ...
       108        2.0000           -0.4220248             -11.4839
       109        2.0000           -0.4195727             -11.4172
       110        2.0000           -0.4193379             -11.4108
       111        2.0000           -0.4169583             -11.3460
       112        2.0000           -0.4165415             -11.3347
       113        2.0000           -0.4139482             -11.2641
       114        2.0000           -0.4041958             -10.9987
       115        2.0000           -0.4002060             -10.8902
       116        2.0000           -0.3883635             -10.5679
       117        2.0000           -0.3869994             -10.5308
       118        2.0000           -0.3842437             -10.4558
       119        2.0000           -0.3697491             -10.0614
       120        2.0000           -0.3690901             -10.0435 (HOMO)
       121                         -0.3057432              -8.3197 (LUMO)
       122                         -0.2991771              -8.1410
       123                         -0.2869059              -7.8071
       124                         -0.2659265              -7.2362
       125                         -0.2602996              -7.0831
       126                         -0.2459230              -6.6919
       127                         -0.2366820              -6.4404
       128                         -0.2364755              -6.4348
       129                         -0.2330878              -6.3426
       130                         -0.2311928              -6.2911
       131                         -0.2268484              -6.1729
       ...                                ...                  ...
       234                          1.1487635              31.2594
      -------------------------------------------------------------
                  HL-Gap            0.0633469 Eh            1.7238 eV

     #   Z          covCN         q      C6AA      α(0)
     1   7 N        0.911    -0.260    26.742     7.479
     2   6 C        1.912     0.127    28.000     8.546
     3   6 C        2.972     0.008    27.848     8.656
     4   6 C        2.933    -0.015    28.396     8.739
     5   6 C        2.981    -0.008    28.203     8.711
     6   6 C        2.983     0.214    23.476     7.948
     7   7 N        1.844    -0.322    29.194     8.008
     8   6 C        2.979     0.216    23.441     7.942
     9   6 C        2.983    -0.010    28.250     8.719
    10   6 C        2.923    -0.025    28.624     8.774
    11   6 C        2.918    -0.026    28.662     8.779
    12   6 C        2.920    -0.021    28.523     8.758
    13   6 C        2.918    -0.026    28.661     8.779
    14   6 C        2.923    -0.025    28.631     8.775
    15   7 N        1.844    -0.316    29.033     7.986
    16   6 C        2.979     0.215    23.460     7.945
    17   6 C        2.983    -0.009    28.244     8.718
    18   6 C        2.923    -0.025    28.637     8.776
    19   6 C        2.918    -0.027    28.666     8.780
    20   6 C        2.920    -0.021    28.527     8.759
    21   6 C        2.918    -0.026    28.660     8.779
    22   6 C        2.924    -0.025    28.627     8.774
    23   7 N        1.844    -0.319    29.110     7.996
    24   6 C        2.921    -0.019    28.485     8.752
    25   6 C        2.919    -0.039    28.964     8.825
    26   6 C        2.917     0.080    26.218     8.397
    27   7 N        2.798    -0.043    22.075     6.978
    28   6 C        3.060     0.044    26.957     8.514
    29   6 C        2.910    -0.051    29.272     8.872
    30   6 C        2.925    -0.034    28.840     8.807
    31   6 C        2.920    -0.038    28.952     8.824
    32   6 C        2.914    -0.033    28.832     8.805
    33   6 C        3.065    -0.012    28.247     8.715
    34   6 C        3.057    -0.025    28.576     8.767
    35   6 C        2.924    -0.034    28.857     8.809
    36   6 C        3.028    -0.022    28.534     8.762
    37   6 C        3.104    -0.010    28.138     8.692
    38   6 C        2.911    -0.033    28.810     8.801
    39   6 C        2.919    -0.038    28.946     8.823
    40   6 C        2.923    -0.033    28.813     8.803
    41   6 C        2.909    -0.046    29.137     8.851
    42   6 C        3.076     0.050    26.803     8.488
    43   7 N        2.836    -0.031    21.835     6.940
    44   6 C        3.085     0.051    26.774     8.482
    45   6 C        2.909    -0.046    29.143     8.852
    46   6 C        2.922    -0.033    28.825     8.804
    47   6 C        2.918    -0.040    28.996     8.830
    48   6 C        2.912    -0.038    28.946     8.822
    49   6 C        3.103    -0.014    28.233     8.707
    50   6 C        3.016    -0.039    28.948     8.826
    51   6 C        3.085     0.044    26.913     8.504
    52   6 C        3.443     0.037    22.489     7.192
    53   1 H        0.926     0.063     2.169     2.303
    54   1 H        0.926     0.048     2.341     2.393
    55   1 H        0.926     0.048     2.339     2.392
    56   1 H        0.926     0.052     2.296     2.370
    57   1 H        0.926     0.050     2.321     2.383
    58   1 H        0.926     0.053     2.287     2.365
    59   1 H        0.926     0.051     2.303     2.373
    60   1 H        0.926     0.049     2.329     2.387
    61   1 H        0.926     0.051     2.302     2.372
    62   1 H        0.926     0.049     2.331     2.388
    63   1 H        0.926     0.052     2.296     2.370
    64   1 H        0.926     0.071     2.073     2.251
    65   1 H        0.926     0.069     2.100     2.266
    66   1 H        0.926     0.033     2.549     2.497
    67   1 H        0.926     0.038     2.478     2.462
    68   1 H        0.926     0.037     2.487     2.466
    69   1 H        0.926     0.039     2.460     2.453
    70   1 H        0.926     0.045     2.389     2.417
    71   1 H        0.926     0.039     2.459     2.452
    72   1 H        0.926     0.036     2.497     2.471
    73   1 H        0.926     0.038     2.478     2.462
    74   1 H        0.926     0.036     2.505     2.475
    75   1 H        0.926     0.040     2.452     2.449
    76   1 H        0.926     0.039     2.467     2.456
    77   1 H        0.926     0.028     2.610     2.526
    78   1 H        0.926     0.019     2.756     2.596

molecular dipole:
                 x           y           z       tot (Debye)
 q only:        0.882      -0.592      -0.803
   full:        1.253      -0.669      -1.021       4.445

 projected vibrational frequencies (cm⁻¹)
eigval :       -0.00    -0.00     0.00     0.00     0.00     0.00
eigval :       10.18    13.62    16.51    33.68    36.05    38.45
eigval :       42.93    46.59    51.56    57.69    70.74    80.79
eigval :       88.15    93.46   106.76   112.34   119.84   127.51
eigval :      133.14   142.92   154.17   158.22   166.45   185.00
eigval :      185.75   210.24   219.57   242.44   249.44   265.80
eigval :      268.32   281.05   289.41   321.44   333.32   352.94
eigval :      358.78   368.97   370.92   371.36   383.76   396.24
eigval :      399.07   402.41   408.56   412.94   425.57   429.21
eigval :      430.44   443.32   465.55   493.97   496.73   529.57
eigval :      535.10   543.12   548.76   553.49   558.40   565.25
eigval :      574.41   586.70   586.94   589.48   602.26   610.98
eigval :      612.30   615.87   629.61   636.91   643.31   652.66
eigval :      658.14   671.77   674.88   675.56   679.51   688.50
eigval :      700.36   702.46   705.71   708.31   739.87   751.52
eigval :      766.90   768.89   771.90   772.93   775.19   795.23
eigval :      821.97   835.41   841.57   846.09   846.80   864.14
eigval :      870.32   870.62   874.73   877.56   879.29   889.86
eigval :      898.36   900.60   901.46   903.59   912.16   913.83
eigval :      917.46   918.57   922.22   923.54   929.31   930.22
eigval :      932.51   933.08   934.06   935.37   983.23   989.38
eigval :      998.93  1048.21  1062.54  1071.85  1072.97  1074.50
eigval :     1075.17  1079.54  1082.45  1089.23  1105.99  1109.41
eigval :     1112.76  1125.09  1134.97  1152.73  1158.24  1167.24
eigval :     1171.23  1173.28  1175.76  1177.65  1178.20  1187.16
eigval :     1188.57  1197.64  1200.65  1208.07  1210.19  1218.23
eigval :     1229.66  1239.03  1250.65  1260.61  1265.12  1267.85
eigval :     1270.01  1288.37  1307.57  1317.68  1325.73  1326.35
eigval :     1328.04  1345.01  1354.81  1357.08  1367.08  1368.05
eigval :     1368.77  1383.62  1392.68  1408.03  1412.75  1421.83
eigval :     1425.96  1428.47  1429.67  1436.25  1462.27  1468.12
eigval :     1471.07  1474.21  1477.82  1478.98  1500.50  1510.12
eigval :     1512.25  1544.13  1565.39  1572.36  1577.85  1580.11
eigval :     1582.34  1584.51  1591.67  1592.60  1594.13  1598.92
eigval :     1603.98  1607.11  1618.39  2361.76  3074.35  3076.73
eigval :     3078.74  3079.12  3079.61  3083.52  3083.65  3084.41
eigval :     3084.89  3086.09  3091.32  3092.31  3093.35  3093.68
eigval :     3097.77  3098.04  3099.81  3100.48  3102.87  3103.83
eigval :     3103.94  3105.79  3106.50  3108.05  3110.06  3115.73

   temp. (K)  partition function   enthalpy   heat capacity  entropy
                                   cal/mol     cal/K/mol   cal/K/mol   J/K/mol
 298.15  VIB  0.430E+18            23052.971    146.131    143.340
         ROT  0.111E+09              888.752      2.981     39.791
         INT  0.477E+26            23941.723    149.112    183.130
         TR   0.165E+29             1481.254      4.968     45.335
         TOT                       25422.9774   154.0797   228.4649   955.8970

       T/K    H(0)-H(T)+PV         H(T)/Eh          T*S/Eh         G(T)/Eh
   ------------------------------------------------------------------------
    298.15    0.405141E-01    0.618018E+00    0.108551E+00    0.509466E+00
   ------------------------------------------------------------------------

         :::::::::::::::::::::::::::::::::::::::::::::::::::::
         ::                  THERMODYNAMIC                  ::
         :::::::::::::::::::::::::::::::::::::::::::::::::::::
         :: total free energy        -128.908964656535 Eh   ::
         ::.................................................::
         :: total energy             -129.418431141700 Eh   ::
         :: zero point energy           0.577503425953 Eh   ::
         :: G(RRHO) w/o ZPVE           -0.068036940788 Eh   ::
         :: G(RRHO) contrib.            0.509466485164 Eh   ::
         :::::::::::::::::::::::::::::::::::::::::::::::::::::

           -------------------------------------------------
          | TOTAL ENERGY             -129.418431141700 Eh   |
          | TOTAL ENTHALPY           -128.800413622422 Eh   |
          | TOTAL FREE ENERGY        -128.908964656535 Eh   |
          | GRADIENT NORM               0.000041322441 Eh/α |
          | HOMO-LUMO GAP               1.723757345649 eV   |
           -------------------------------------------------

 * finished run on 2025/08/29 at 19:35:10.129
