   * xtb version 6.7.1 (edcfbbe) compiled by 'albert@albert-system' on 2024-07-22

   ID    Z sym.   atoms
    1    7 N      1, 7, 15, 23, 27, 43
    2    6 C      2-6, 8-14, 16-22, 24-26, 28-42, 44-52
    3    1 H      53-78

          program call               : xtb data2507/toluene/DICzTrz/DICzTrz_toluene_S0_crest.xyz --gfn 2 --gbsa toluene --ohess vtight --parallel 40 --molden --ceasefiles --namespace data2507/toluene/DICzTrz/DICzTrz_toluene_S0_finalOpt
      * Solvation model:               GBSA
        Solvent                        toluene
        Solvent mass                       9.2140E+01 g/mol
          :  Hamiltonian                  GFN2-xTB          :
 * total energy  :  -129.4183446 Eh     change       -0.2033289E-08 Eh
 * total energy  :  -129.4183849 Eh     change       -0.4021629E-04 Eh
 * total energy  :  -129.4183984 Eh     change       -0.1351287E-04 Eh
 * total energy  :  -129.4183993 Eh     change       -0.8992339E-06 Eh
 * total energy  :  -129.4184065 Eh     change       -0.7212583E-05 Eh
 * total energy  :  -129.4184093 Eh     change       -0.2841001E-05 Eh
 * total energy  :  -129.4184119 Eh     change       -0.2622470E-05 Eh
 * total energy  :  -129.4184139 Eh     change       -0.1976725E-05 Eh
 * total energy  :  -129.4184155 Eh     change       -0.1592727E-05 Eh
 * total energy  :  -129.4184170 Eh     change       -0.1538412E-05 Eh
 * total energy  :  -129.4184206 Eh     change       -0.5698136E-06 Eh
 * total energy  :  -129.4184211 Eh     change       -0.4992500E-06 Eh
 * total energy  :  -129.4184217 Eh     change       -0.5626249E-06 Eh
 * total energy  :  -129.4184224 Eh     change       -0.7308709E-06 Eh
 * total energy  :  -129.4184233 Eh     change       -0.9616304E-06 Eh
 * total energy  :  -129.4184244 Eh     change       -0.1052189E-05 Eh
 * total energy  :  -129.4184254 Eh     change       -0.9693802E-06 Eh
 * total energy  :  -129.4184263 Eh     change       -0.9439695E-06 Eh
 * total energy  :  -129.4184263 Eh     change       -0.9116036E-08 Eh
   *** GEOMETRY OPTIMIZATION CONVERGED AFTER 22 ITERATIONS ***

 final structure:
================
78
 xtb: 6.7.1 (edcfbbe)
N           -1.91192125870732        0.90955705481384        2.40724493319457
C           -1.20453629472790        0.31012670391137        1.73122374429052
C           -0.28208141129536       -0.42870174594012        0.95689803478472
C            1.04339171828563       -0.00704625563196        0.91854588654575
C            1.99180441330321       -0.73818781393803        0.21409923132511
C            3.38195384723221       -0.28018309221053        0.16276812384914
N            3.67165807026731        0.88459071292058        0.73287875427731
C            4.94736889467815        1.26374647382489        0.66248019371858
C            5.32091204929036        2.53603225513126        1.27756655012007
C            4.34670871311009        3.35207150119900        1.85241838227706
C            4.70478694662103        4.55202768978033        2.43605045677622
C            6.03349273879610        4.94877269076596        2.45179331758594
C            7.00672462220777        4.14241519858298        1.88074134626070
C            6.65527381129822        2.94176774837139        1.29483848443588
N            5.89943193348308        0.55125728130247        0.06601321170973
C            5.51892321582923       -0.59983089347701       -0.48158631245550
C            6.53195523826558       -1.41173114291547       -1.15334769531393
C            6.18326653392802       -2.62770835036080       -1.74100174435286
C            7.14401275391894       -3.39119030853426       -2.37555455098323
C            8.45799472589714       -2.95104697696583       -2.43004327354510
C            8.81115242598800       -1.74285956882007       -1.84785922198238
C            7.85510276054847       -0.97443642503935       -1.21221245939107
N            4.26660265566533       -1.05582112852961       -0.45483824947549
C            1.60559981314466       -1.90717180203982       -0.44674343043980
C            0.29432470726606       -2.33114955412798       -0.41454634316362
C           -0.67221472541865       -1.59937165477471        0.27495888713352
N           -1.99382441442170       -2.02845854628184        0.31080398235890
C           -2.41180194963409       -3.26068677681244        0.80179021913428
C           -1.65928708545748       -4.36037538502445        1.18029823940325
C           -2.33477589227195       -5.46572979801301        1.66666575395164
C           -3.72158822978334       -5.47217665258720        1.78530379041679
C           -4.47046745077016       -4.36510733241921        1.43566772879866
C           -3.81464369563382       -3.24473199909827        0.94171642721310
C           -4.27456768714256       -1.94723782281029        0.51606005312196
C           -5.57886280189883       -1.44187497701067        0.47579055254417
C           -5.73426122474243       -0.14554268357402        0.00917505652736
C           -6.75240113677242        0.85542617577252       -0.26093277670585
C           -8.12506855134638        0.87633858466311       -0.07493695735245
C           -8.83417401807927        2.00742924904497       -0.44330596664461
C           -8.19111414624258        3.11000493230708       -0.99176360594970
C           -6.81915652683653        3.11940338224868       -1.19066083719261
C           -6.10252380121697        1.99538103781446       -0.82725266893378
N           -4.74277371536692        1.72459359828915       -0.90988421322172
C           -3.50745059845580        2.17336447110499       -1.33748340880886
C           -3.15474951696907        3.36355326386799       -1.94709639653239
C           -1.83378026364235        3.54220223229589       -2.31989400226415
C           -0.89016216776405        2.54423714454268       -2.10992646123103
C           -1.23158381608339        1.34923510408943       -1.50134955188005
C           -2.53831835067477        1.14983066333324       -1.07764633393484
C           -3.23405046919890        0.04565116523518       -0.43923393027236
C           -3.10495825350431       -1.22993765547326        0.11997164501294
C           -4.55643607625125        0.47578098338918       -0.40603354334228
H            1.34199910263941        0.88960075541614        1.43894752085065
H            3.31701169687979        3.03049558032009        1.83018260938842
H            3.94664532300191        5.18021350527280        2.87958406844430
H            6.31051916360706        5.88682286954951        2.90949442221451
H            8.04113659944927        4.45196700909494        1.89303868099773
H            7.39885418782079        2.30121674081793        0.84705419614501
H            5.15683867673660       -2.95526806685886       -1.68871294846562
H            6.86983578918369       -4.33202151909533       -2.82927978290655
H            9.20726093385849       -3.54997415104889       -2.92604725353665
H            9.83448831341246       -1.40073813332483       -1.89072285439317
H            8.11109319040589       -0.03151669309164       -0.75495237641514
H            2.35126020223573       -2.46167245545728       -0.99369237829022
H           -0.00584107815396       -3.22011010571015       -0.94770880064221
H           -0.58224799519736       -4.35941167303819        1.11090869484223
H           -1.77232675607103       -6.33875700488632        1.96242918230579
H           -4.21474988810063       -6.35375096051598        2.16699989611933
H           -5.54379498293262       -4.36542446793216        1.54704644330809
H           -6.40694948509446       -2.05389422760321        0.79543913915422
H           -8.62976452606231        0.02291198290611        0.35233095866250
H           -9.90458388462091        2.03504291581906       -0.30265965435505
H           -8.76972164783375        3.97884004462956       -1.26874252121393
H           -6.32883409244272        3.98127749766657       -1.61581652335221
H           -3.89051433177892        4.13003023508316       -2.13337249966303
H           -1.53557270753679        4.46492610007130       -2.79483339073073
H            0.12946610263001        2.69991776289089       -2.43133953047908
H           -0.48454350985066        0.58062959102916       -1.37858472088914

          :  Hamiltonian                  GFN2-xTB          :
         :: gradient norm              0.000161861512 Eh/a0 ::
         :: HOMO-LUMO gap              1.728898949770 eV    ::
         :: SCC energy              -131.826137708757 Eh    ::
         :: -> dispersion             -0.116074884116 Eh    ::
         :: -> Gsolv                  -0.059424855669 Eh    ::
         :: repulsion energy           2.407711385759 Eh    ::

    * Orbital Energies and Occupations

         #    Occupation            Energy/Eh            Energy/eV
      -------------------------------------------------------------
         1        2.0000           -0.6981437             -18.9975
       ...           ...                  ...                  ...
       108        2.0000           -0.4220423             -11.4844
       109        2.0000           -0.4195475             -11.4165
       110        2.0000           -0.4193177             -11.4102
       111        2.0000           -0.4169366             -11.3454
       112        2.0000           -0.4165020             -11.3336
       113        2.0000           -0.4139261             -11.2635
       114        2.0000           -0.4042068             -10.9990
       115        2.0000           -0.4002122             -10.8903
       116        2.0000           -0.3882920             -10.5660
       117        2.0000           -0.3869460             -10.5293
       118        2.0000           -0.3842587             -10.4562
       119        2.0000           -0.3698130             -10.0631
       120        2.0000           -0.3691041             -10.0438 (HOMO)
       121                         -0.3055681              -8.3149 (LUMO)
       122                         -0.2990941              -8.1388
       123                         -0.2867761              -7.8036
       124                         -0.2659334              -7.2364
       125                         -0.2602311              -7.0812
       126                         -0.2459170              -6.6917
       127                         -0.2366541              -6.4397
       128                         -0.2364489              -6.4341
       129                         -0.2330713              -6.3422
       130                         -0.2311977              -6.2912
       131                         -0.2268589              -6.1731
       ...                                ...                  ...
       234                          1.1489957              31.2658
      -------------------------------------------------------------
                  HL-Gap            0.0635359 Eh            1.7289 eV

     #   Z          covCN         q      C6AA      α(0)
     1   7 N        0.911    -0.260    26.751     7.480
     2   6 C        1.912     0.127    27.999     8.545
     3   6 C        2.972     0.007    27.850     8.656
     4   6 C        2.933    -0.015    28.395     8.739
     5   6 C        2.981    -0.008    28.207     8.712
     6   6 C        2.983     0.214    23.475     7.948
     7   7 N        1.844    -0.322    29.196     8.008
     8   6 C        2.979     0.216    23.440     7.942
     9   6 C        2.983    -0.010    28.250     8.719
    10   6 C        2.923    -0.025    28.624     8.774
    11   6 C        2.918    -0.026    28.662     8.779
    12   6 C        2.920    -0.021    28.524     8.758
    13   6 C        2.918    -0.026    28.662     8.779
    14   6 C        2.923    -0.025    28.631     8.775
    15   7 N        1.844    -0.316    29.037     7.986
    16   6 C        2.979     0.215    23.459     7.945
    17   6 C        2.983    -0.009    28.245     8.718
    18   6 C        2.923    -0.025    28.638     8.776
    19   6 C        2.918    -0.027    28.666     8.780
    20   6 C        2.920    -0.021    28.528     8.759
    21   6 C        2.918    -0.026    28.660     8.779
    22   6 C        2.923    -0.025    28.628     8.774
    23   7 N        1.844    -0.319    29.113     7.997
    24   6 C        2.921    -0.019    28.486     8.752
    25   6 C        2.919    -0.039    28.969     8.826
    26   6 C        2.917     0.080    26.222     8.397
    27   7 N        2.798    -0.043    22.064     6.976
    28   6 C        3.060     0.044    26.959     8.515
    29   6 C        2.910    -0.051    29.272     8.872
    30   6 C        2.925    -0.034    28.839     8.807
    31   6 C        2.920    -0.038    28.950     8.823
    32   6 C        2.914    -0.033    28.831     8.805
    33   6 C        3.065    -0.012    28.245     8.715
    34   6 C        3.057    -0.025    28.575     8.766
    35   6 C        2.924    -0.034    28.857     8.809
    36   6 C        3.028    -0.022    28.534     8.762
    37   6 C        3.104    -0.010    28.138     8.692
    38   6 C        2.911    -0.032    28.810     8.801
    39   6 C        2.919    -0.038    28.946     8.823
    40   6 C        2.923    -0.033    28.812     8.803
    41   6 C        2.909    -0.046    29.137     8.851
    42   6 C        3.076     0.050    26.803     8.488
    43   7 N        2.836    -0.031    21.835     6.940
    44   6 C        3.085     0.051    26.773     8.482
    45   6 C        2.909    -0.046    29.144     8.852
    46   6 C        2.922    -0.033    28.824     8.804
    47   6 C        2.918    -0.040    28.995     8.830
    48   6 C        2.912    -0.038    28.946     8.822
    49   6 C        3.103    -0.014    28.233     8.707
    50   6 C        3.016    -0.039    28.946     8.825
    51   6 C        3.085     0.044    26.917     8.505
    52   6 C        3.443     0.037    22.490     7.193
    53   1 H        0.926     0.062     2.172     2.304
    54   1 H        0.926     0.048     2.340     2.392
    55   1 H        0.926     0.048     2.340     2.392
    56   1 H        0.926     0.052     2.297     2.370
    57   1 H        0.926     0.050     2.322     2.383
    58   1 H        0.926     0.053     2.289     2.366
    59   1 H        0.926     0.051     2.302     2.373
    60   1 H        0.926     0.049     2.330     2.387
    61   1 H        0.926     0.051     2.302     2.372
    62   1 H        0.926     0.049     2.332     2.388
    63   1 H        0.926     0.052     2.297     2.370
    64   1 H        0.926     0.071     2.075     2.253
    65   1 H        0.926     0.069     2.100     2.266
    66   1 H        0.926     0.033     2.543     2.494
    67   1 H        0.926     0.038     2.476     2.461
    68   1 H        0.926     0.037     2.487     2.466
    69   1 H        0.926     0.039     2.460     2.453
    70   1 H        0.926     0.045     2.389     2.417
    71   1 H        0.926     0.039     2.458     2.452
    72   1 H        0.926     0.036     2.497     2.471
    73   1 H        0.926     0.038     2.478     2.462
    74   1 H        0.926     0.036     2.504     2.475
    75   1 H        0.926     0.040     2.451     2.448
    76   1 H        0.926     0.039     2.466     2.456
    77   1 H        0.926     0.029     2.607     2.525
    78   1 H        0.926     0.019     2.755     2.596

molecular dipole:
                 x           y           z       tot (Debye)
 q only:        0.867      -0.534      -0.847
   full:        1.239      -0.595      -1.068       4.423

 projected vibrational frequencies (cm⁻¹)
eigval :       -0.00    -0.00    -0.00     0.00     0.00     0.00
eigval :      -14.80     7.81    12.25    16.01    23.67    36.00
eigval :       39.10    43.10    51.72    55.90    69.54    80.91
eigval :       87.75    90.34   106.28   113.23   122.32   126.33
eigval :      134.88   142.32   156.51   157.45   164.30   179.11
eigval :      185.44   206.54   218.66   242.29   250.69   265.23
eigval :      267.52   280.92   289.57   320.97   333.69   352.61
eigval :      359.07   360.84   364.08   370.89   384.20   395.92
eigval :      398.46   401.41   407.39   412.16   425.20   430.08
eigval :      430.36   443.38   465.14   494.40   497.26   529.38
eigval :      536.08   543.91   549.15   552.83   555.46   567.54
eigval :      574.62   586.34   586.77   589.50   602.20   610.66
eigval :      612.11   615.77   628.00   636.96   643.16   650.65
eigval :      658.00   671.73   671.84   673.57   679.35   688.46
eigval :      700.25   701.63   704.94   708.00   739.88   750.61
eigval :      766.93   771.78   773.51   774.28   775.50   795.42
eigval :      822.09   835.42   845.52   846.98   855.61   862.71
eigval :      869.32   870.21   870.64   874.82   879.37   888.45
eigval :      901.02   901.42   902.95   904.02   907.30   910.27
eigval :      919.58   922.08   923.36   925.75   925.96   929.81
eigval :      930.01   931.60   933.02   935.70   983.11   989.10
eigval :      998.87  1048.21  1061.45  1071.18  1073.03  1073.54
eigval :     1074.30  1079.29  1082.47  1088.75  1105.57  1107.02
eigval :     1111.23  1125.14  1135.41  1153.05  1158.20  1164.84
eigval :     1171.04  1173.45  1175.70  1176.75  1179.85  1186.22
eigval :     1187.10  1198.29  1200.26  1207.87  1210.16  1218.32
eigval :     1229.77  1238.91  1250.31  1260.22  1265.01  1266.39
eigval :     1268.94  1288.57  1307.74  1317.84  1325.73  1326.46
eigval :     1328.11  1345.17  1354.88  1357.44  1367.06  1367.92
eigval :     1368.66  1383.92  1392.20  1408.20  1412.40  1421.79
eigval :     1425.79  1428.47  1429.61  1436.29  1462.04  1468.29
eigval :     1471.61  1474.21  1477.93  1479.29  1500.56  1510.05
eigval :     1512.19  1543.89  1565.30  1572.28  1577.91  1580.24
eigval :     1582.40  1584.89  1591.61  1592.60  1593.92  1598.89
eigval :     1603.83  1606.86  1618.17  2361.91  3074.35  3076.91
eigval :     3078.83  3078.94  3079.18  3083.34  3083.55  3083.82
eigval :     3084.72  3086.42  3091.52  3091.64  3092.85  3093.18
eigval :     3097.43  3098.25  3099.83  3100.34  3102.93  3103.37
eigval :     3104.31  3104.37  3105.20  3106.14  3110.09  3114.99

   temp. (K)  partition function   enthalpy   heat capacity  entropy
                                   cal/mol     cal/K/mol   cal/K/mol   J/K/mol
 298.15  VIB  0.283E+19            23145.315    145.636    144.722
         ROT  0.110E+09              888.752      2.981     39.782
         INT  0.312E+27            24034.068    148.617    184.504
         TR   0.165E+29             1481.254      4.968     45.335
         TOT                       25515.3216   153.5847   229.8387   961.6451

       T/K    H(0)-H(T)+PV         H(T)/Eh          T*S/Eh         G(T)/Eh
   ------------------------------------------------------------------------
    298.15    0.406613E-01    0.617921E+00    0.109204E+00    0.508717E+00
   ------------------------------------------------------------------------

         :::::::::::::::::::::::::::::::::::::::::::::::::::::
         ::                  THERMODYNAMIC                  ::
         :::::::::::::::::::::::::::::::::::::::::::::::::::::
         :: total free energy        -128.909709156868 Eh   ::
         ::.................................................::
         :: total energy             -129.418426323657 Eh   ::
         :: zero point energy           0.577259695777 Eh   ::
         :: G(RRHO) w/o ZPVE           -0.068542528989 Eh   ::
         :: G(RRHO) contrib.            0.508717166788 Eh   ::
         :::::::::::::::::::::::::::::::::::::::::::::::::::::

           -------------------------------------------------
          | TOTAL ENERGY             -129.418426323657 Eh   |
          | TOTAL ENTHALPY           -128.800505374723 Eh   |
          | TOTAL FREE ENERGY        -128.909709156868 Eh   |
          | GRADIENT NORM               0.000161919428 Eh/α |
          | HOMO-LUMO GAP               1.728900587384 eV   |
           -------------------------------------------------

 * finished run on 2025/08/29 at 19:39:13.948
