   * xtb version 6.7.1 (edcfbbe) compiled by 'albert@albert-system' on 2024-07-22

   ID    Z sym.   atoms
    1    7 N      1, 7, 15, 23, 27, 43
    2    6 C      2-6, 8-14, 16-22, 24-26, 28-42, 44-52
    3    1 H      53-78

          program call               : xtb data2507/toluene/DICzTrz/DICzTrz_toluene_T1_crest.xyz --gfn 2 --uhf 2 --gbsa toluene --ohess vtight --parallel 40 --molden --ceasefiles --namespace data2507/toluene/DICzTrz/DICzTrz_toluene_T1_finalOpt
      * Solvation model:               GBSA
        Solvent                        toluene
        Solvent mass                       9.2140E+01 g/mol
          :  Hamiltonian                  GFN2-xTB          :
 * total energy  :  -129.3432663 Eh     change       -0.3880814E-08 Eh
 * total energy  :  -129.3433755 Eh     change       -0.1092369E-03 Eh
 * total energy  :  -129.3434136 Eh     change       -0.3805788E-04 Eh
 * total energy  :  -129.3434139 Eh     change       -0.3271835E-06 Eh
 * total energy  :  -129.3434240 Eh     change       -0.1013417E-04 Eh
 * total energy  :  -129.3434276 Eh     change       -0.3559874E-05 Eh
 * total energy  :  -129.3434322 Eh     change       -0.4569077E-05 Eh
 * total energy  :  -129.3434317 Eh     change        0.4912592E-06 Eh
 * total energy  :  -129.3434344 Eh     change       -0.2693357E-05 Eh
 * total energy  :  -129.3434360 Eh     change       -0.1615475E-05 Eh
 * total energy  :  -129.3434543 Eh     change       -0.1144866E-06 Eh
 * total energy  :  -129.3434544 Eh     change       -0.1078737E-06 Eh
 * total energy  :  -129.3434545 Eh     change       -0.1128420E-06 Eh
 * total energy  :  -129.3434547 Eh     change       -0.1275415E-06 Eh
 * total energy  :  -129.3434548 Eh     change       -0.1419855E-06 Eh
 * total energy  :  -129.3434548 Eh     change        0.8053576E-09 Eh
 * total energy  :  -129.3434548 Eh     change        0.5222205E-08 Eh
 * total energy  :  -129.3434548 Eh     change        0.9051547E-08 Eh
 * total energy  :  -129.3434548 Eh     change       -0.1723427E-07 Eh
   *** GEOMETRY OPTIMIZATION CONVERGED AFTER 47 ITERATIONS ***

 final structure:
================
78
 xtb: 6.7.1 (edcfbbe)
N           -1.90281698733138        0.91246604147223        2.47834223714840
C           -1.17526483949852        0.32322531742867        1.81106599182523
C           -0.26770319621036       -0.40411744352436        1.01744324760978
C            1.05388855427660       -0.00587712474902        0.96301147867453
C            1.99670199038513       -0.72851731845669        0.21050918248210
C            3.34954754969317       -0.30608936425745        0.15109480340537
N            3.73396767730643        0.81210852253006        0.81507528769672
C            4.98851407853102        1.17837755311504        0.73394099656368
C            5.41407642218048        2.39007219931387        1.43031215827354
C            4.48896894078650        3.16616507645675        2.12994153189840
C            4.89744991829505        4.31059025222855        2.78557610500518
C            6.22985231073490        4.69565828361488        2.75231776684493
C            7.15466161596324        3.92959543633394        2.05895411859260
C            6.75225865334350        2.78376737500182        1.40081530344910
N            5.91762722049346        0.49169597545258        0.04205559640300
C            5.48904472144891       -0.61379079424588       -0.59491794636826
C            6.47051643602395       -1.38717718051923       -1.35230594080032
C            6.09411455929972       -2.56054139825963       -2.00719787135851
C            7.02717831019921       -3.28907616475201       -2.71789327304638
C            8.34427113467259       -2.85845019149455       -2.78499282023149
C            8.72549543098568       -1.69347967399906       -2.13677438101822
C            7.79662543387162       -0.96005058842140       -1.42439684777395
N            4.24541795713031       -1.02382528894437       -0.57119612336566
C            1.55488961311022       -1.88716880947720       -0.48333936413310
C            0.24523971842850       -2.28495812421451       -0.42880865213153
C           -0.69587236944308       -1.55734205686527        0.30744569056311
N           -2.03159632403315       -1.97197265419949        0.38915229099700
C           -2.44453527889962       -3.17790691439922        0.92998067213665
C           -1.68111729493481       -4.25558792177161        1.35305688315450
C           -2.35084553901863       -5.35117123587224        1.87117994153308
C           -3.73836699959982       -5.36609445253864        1.97499333906019
C           -4.50032339831519       -4.27977474062032        1.57384258872802
C           -3.85190365090313       -3.17366853205736        1.04732487977706
C           -4.31143613977359       -1.89504574356068        0.56018663878277
C           -5.60578421765275       -1.38647628321260        0.50069964459800
C           -5.75383843272534       -0.09743389283142       -0.01333673757721
C           -6.76517161058404        0.89111949153499       -0.31971056078954
C           -8.14153642254636        0.91897347123591       -0.14213072155184
C           -8.84496758687021        2.03901421480790       -0.54931780940424
C           -8.19585570186336        3.12400948656147       -1.12869131424773
C           -6.82173836385840        3.12701976263709       -1.32116506043502
C           -6.10855424072260        2.01517142549532       -0.91854911248323
N           -4.74971615591195        1.73830578009034       -0.98322977325383
C           -3.50880644862116        2.17158991604559       -1.41553439627294
C           -3.14588512717279        3.34109393640978       -2.05616588683547
C           -1.81836367124575        3.50298385125982       -2.41803338158300
C           -0.87824119999787        2.51055882852156       -2.16333238269590
C           -1.22852167523801        1.33606186679587       -1.52225631741808
C           -2.54419197774092        1.15244166295569       -1.11462149477453
C           -3.24794477624380        0.07381764514715       -0.45137012883829
C           -3.12603698381125       -1.19611887781459        0.14092200114225
C           -4.56955096009739        0.50713898742538       -0.43876994480907
H            1.37958437632564        0.86853851328914        1.50579410460153
H            3.45529962277685        2.85544018768491        2.14670749268263
H            4.17564603154088        4.90628092704020        3.32496242874707
H            6.54605568117383        5.59131126189498        3.26613718552851
H            8.19251818700232        4.22785351953201        2.03216003987706
H            7.45928348011019        2.17589377947754        0.85738651074114
H            5.06625852047150       -2.88364220019718       -1.94423484768275
H            6.72940422612800       -4.19675819977424       -3.22217822756397
H            9.07199732339004       -3.43040933579508       -3.34129159830356
H            9.75058142469960       -1.35681913985538       -2.18827197899532
H            8.07661615063860       -0.05079638286052       -0.91490701601385
H            2.27875580180489       -2.43871344109242       -1.06112387400170
H           -0.08586790666955       -3.15466885890737       -0.97718626500955
H           -0.60421238384735       -4.23861125607203        1.28694027621882
H           -1.78353451222251       -6.20710598384374        2.20373696914219
H           -4.22720068259626       -6.23742261155559        2.38391685131889
H           -5.57447090568796       -4.29366558601967        1.67169753677364
H           -6.44027704983284       -1.97759111865922        0.84115151553802
H           -8.64922933449566        0.08013173386607        0.30861244861550
H           -9.91566736808140        2.07403236944910       -0.41584242734603
H           -8.77173444368037        3.98420551094607       -1.43536822777231
H           -6.32919201480401        3.97469033345246       -1.77055049276404
H           -3.87485264077975        4.10542438325515       -2.27365401366831
H           -1.51122070257496        4.40995764494259       -2.91642704345873
H            0.14603586548654        2.65631820625751       -2.47304264259292
H           -0.48530310426979        0.57343716572730       -1.35279591505816

          :  Hamiltonian                  GFN2-xTB          :
         :: gradient norm              0.000077838412 Eh/a0 ::
         :: HOMO-LUMO gap              0.283637521035 eV    ::
         :: SCC energy              -131.740841917009 Eh    ::
         :: -> dispersion             -0.115649424998 Eh    ::
         :: -> Gsolv                  -0.063275192969 Eh    ::
         :: repulsion energy           2.397387104460 Eh    ::

    * Orbital Energies and Occupations

         #    Occupation            Energy/Eh            Energy/eV
      -------------------------------------------------------------
         1        2.0000           -0.6993180             -19.0294
       ...           ...                  ...                  ...
       109        2.0000           -0.4137413             -11.2585
       110        2.0000           -0.4133170             -11.2469
       111        2.0000           -0.4131564             -11.2426
       112        2.0000           -0.4129464             -11.2368
       113        2.0000           -0.4087369             -11.1223
       114        2.0000           -0.4086661             -11.1204
       115        2.0000           -0.4054074             -11.0317
       116        2.0000           -0.3938627             -10.7176
       117        1.9583           -0.3792023             -10.3186
       118        1.8527           -0.3778931             -10.2830
       119        1.7722           -0.3773850             -10.2692
       120        1.4168           -0.3759058             -10.2289
       121        0.9959           -0.2951235              -8.0307 (HOMO)
       122        0.0041           -0.2847001              -7.7471 (LUMO)
       123        0.0000           -0.2767623              -7.5311
       124                         -0.2706472              -7.3647
       125                         -0.2556454              -6.9565
       126                         -0.2486120              -6.7651
       127                         -0.2409112              -6.5555
       128                         -0.2395714              -6.5191
       129                         -0.2304378              -6.2705
       130                         -0.2303067              -6.2670
       131                         -0.2242310              -6.1016
       132                         -0.2140404              -5.8243
       ...                                ...                  ...
       234                          1.1547753              31.4230
      -------------------------------------------------------------
                  HL-Gap            0.0104233 Eh            0.2836 eV

     #   Z          covCN         q      C6AA      α(0)
     1   7 N        0.911    -0.289    27.439     7.576
     2   6 C        1.913     0.121    28.135     8.566
     3   6 C        2.967     0.001    28.000     8.679
     4   6 C        2.932    -0.025    28.632     8.775
     5   6 C        2.975    -0.018    28.457     8.750
     6   6 C        2.939     0.171    24.331     8.090
     7   7 N        1.845    -0.298    28.568     7.921
     8   6 C        2.936     0.210    23.567     7.962
     9   6 C        2.983    -0.008    28.224     8.714
    10   6 C        2.923    -0.028    28.712     8.787
    11   6 C        2.918    -0.029    28.716     8.788
    12   6 C        2.920    -0.026    28.661     8.779
    13   6 C        2.918    -0.029    28.716     8.787
    14   6 C        2.924    -0.028    28.708     8.787
    15   7 N        1.844    -0.331    29.427     8.040
    16   6 C        2.936     0.210    23.572     7.962
    17   6 C        2.983    -0.008    28.216     8.713
    18   6 C        2.923    -0.029    28.720     8.788
    19   6 C        2.918    -0.029    28.718     8.788
    20   6 C        2.920    -0.026    28.662     8.779
    21   6 C        2.918    -0.029    28.715     8.787
    22   6 C        2.924    -0.028    28.703     8.786
    23   7 N        1.845    -0.295    28.491     7.911
    24   6 C        2.919    -0.042    29.037     8.837
    25   6 C        2.912    -0.040    28.986     8.828
    26   6 C        2.917     0.035    27.216     8.555
    27   7 N        2.798    -0.008    21.406     6.872
    28   6 C        3.072     0.046    26.906     8.505
    29   6 C        2.909    -0.040    28.983     8.828
    30   6 C        2.923    -0.030    28.738     8.791
    31   6 C        2.920    -0.030    28.745     8.792
    32   6 C        2.913    -0.028    28.689     8.783
    33   6 C        3.062    -0.008    28.156     8.701
    34   6 C        3.057    -0.019    28.416     8.742
    35   6 C        2.921    -0.026    28.650     8.778
    36   6 C        3.029    -0.011    28.260     8.720
    37   6 C        3.104    -0.006    28.025     8.674
    38   6 C        2.911    -0.027    28.680     8.781
    39   6 C        2.918    -0.034    28.840     8.807
    40   6 C        2.923    -0.026    28.648     8.777
    41   6 C        2.908    -0.042    29.039     8.836
    42   6 C        3.078     0.053    26.735     8.477
    43   7 N        2.836    -0.020    21.629     6.907
    44   6 C        3.085     0.052    26.741     8.477
    45   6 C        2.908    -0.043    29.061     8.840
    46   6 C        2.923    -0.027    28.687     8.783
    47   6 C        2.918    -0.035    28.881     8.813
    48   6 C        2.911    -0.031    28.785     8.798
    49   6 C        3.103    -0.009    28.106     8.687
    50   6 C        3.016    -0.026    28.626     8.776
    51   6 C        3.089     0.049    26.792     8.484
    52   6 C        3.439     0.036    22.599     7.222
    53   1 H        0.926     0.042     2.421     2.433
    54   1 H        0.926     0.041     2.435     2.440
    55   1 H        0.926     0.043     2.408     2.427
    56   1 H        0.926     0.046     2.373     2.409
    57   1 H        0.926     0.044     2.396     2.421
    58   1 H        0.926     0.046     2.373     2.409
    59   1 H        0.926     0.044     2.392     2.419
    60   1 H        0.926     0.044     2.398     2.421
    61   1 H        0.926     0.045     2.377     2.411
    62   1 H        0.926     0.043     2.404     2.425
    63   1 H        0.926     0.045     2.381     2.413
    64   1 H        0.926     0.046     2.375     2.410
    65   1 H        0.926     0.048     2.344     2.394
    66   1 H        0.926     0.043     2.405     2.425
    67   1 H        0.926     0.047     2.355     2.400
    68   1 H        0.926     0.049     2.334     2.389
    69   1 H        0.926     0.051     2.309     2.376
    70   1 H        0.926     0.059     2.207     2.323
    71   1 H        0.926     0.049     2.330     2.387
    72   1 H        0.926     0.045     2.378     2.411
    73   1 H        0.926     0.047     2.355     2.400
    74   1 H        0.926     0.045     2.387     2.416
    75   1 H        0.926     0.048     2.343     2.393
    76   1 H        0.926     0.046     2.365     2.405
    77   1 H        0.926     0.036     2.509     2.477
    78   1 H        0.926     0.031     2.566     2.505

molecular dipole:
                 x           y           z       tot (Debye)
 q only:       -3.092      -0.664      -1.077
   full:       -2.608      -0.721      -1.274       7.602

 projected vibrational frequencies (cm⁻¹)
eigval :       -0.00    -0.00     0.00     0.00     0.00     0.00
eigval :       11.85    13.08    16.15    31.36    34.91    39.22
eigval :       42.19    45.96    50.98    55.49    70.13    79.00
eigval :       85.92   102.16   109.69   111.30   118.33   124.42
eigval :      130.68   139.87   153.54   154.38   161.60   182.87
eigval :      199.82   213.23   218.40   239.99   246.31   254.25
eigval :      260.78   275.55   282.37   319.20   326.70   347.95
eigval :      364.69   369.37   370.59   371.99   374.51   389.29
eigval :      389.98   397.35   400.09   407.45   408.76   410.92
eigval :      422.35   434.98   444.14   487.15   490.04   521.94
eigval :      533.40   538.90   543.83   546.04   550.49   557.79
eigval :      559.70   570.45   570.81   586.83   587.49   588.71
eigval :      599.28   606.88   611.08   611.38   626.62   641.23
eigval :      649.72   655.66   660.49   663.68   667.70   680.00
eigval :      689.18   698.17   699.91   704.92   709.50   733.64
eigval :      738.10   765.22   765.92   767.74   769.93   774.01
eigval :      799.90   810.32   818.61   836.19   837.80   857.22
eigval :      862.83   866.52   868.46   871.80   874.39   875.81
eigval :      887.65   897.41   902.77   903.52   904.92   905.01
eigval :      906.78   911.31   915.50   917.55   919.42   921.61
eigval :      926.33   926.47   928.85   929.86   930.57   962.99
eigval :      986.49   991.87   995.33  1049.42  1057.94  1064.97
eigval :     1066.40  1074.29  1075.08  1076.07  1080.73  1093.24
eigval :     1101.39  1108.37  1109.82  1121.27  1138.47  1144.41
eigval :     1160.68  1162.76  1169.07  1173.39  1175.21  1177.33
eigval :     1182.62  1185.29  1186.47  1189.56  1195.05  1203.62
eigval :     1213.45  1223.19  1239.45  1247.93  1256.94  1260.16
eigval :     1265.22  1267.20  1270.04  1288.50  1290.68  1297.97
eigval :     1325.75  1328.10  1328.55  1334.83  1340.25  1342.18
eigval :     1357.22  1370.05  1371.32  1384.18  1395.73  1403.66
eigval :     1404.35  1417.33  1424.98  1427.70  1434.68  1436.82
eigval :     1449.65  1456.99  1463.86  1469.01  1472.52  1476.13
eigval :     1489.63  1493.04  1506.29  1544.63  1550.76  1565.47
eigval :     1573.05  1573.54  1574.75  1576.27  1585.44  1586.86
eigval :     1590.20  1590.71  1603.55  2336.52  3074.65  3075.46
eigval :     3077.76  3079.16  3081.27  3083.19  3083.31  3084.47
eigval :     3089.08  3089.37  3090.01  3090.49  3091.78  3094.14
eigval :     3095.95  3097.63  3097.92  3098.38  3098.84  3100.39
eigval :     3102.63  3103.07  3105.01  3108.82  3109.09  3113.05

   temp. (K)  partition function   enthalpy   heat capacity  entropy
                                   cal/mol     cal/K/mol   cal/K/mol   J/K/mol
 298.15  VIB  0.635E+18            23395.930    148.462    145.062
         ROT  0.111E+09              888.752      2.981     39.796
         INT  0.705E+26            24284.682    151.443    184.859
         TR   0.165E+29             1481.254      4.968     45.335
         TOT                       25765.9362   156.4108   230.1932   963.1285

       T/K    H(0)-H(T)+PV         H(T)/Eh          T*S/Eh         G(T)/Eh
   ------------------------------------------------------------------------
    298.15    0.410606E-01    0.612873E+00    0.109372E+00    0.503501E+00
   ------------------------------------------------------------------------

         :::::::::::::::::::::::::::::::::::::::::::::::::::::
         ::                  THERMODYNAMIC                  ::
         :::::::::::::::::::::::::::::::::::::::::::::::::::::
         :: total free energy        -128.839953696800 Eh   ::
         ::.................................................::
         :: total energy             -129.343454814467 Eh   ::
         :: zero point energy           0.571812720489 Eh   ::
         :: G(RRHO) w/o ZPVE           -0.068311602822 Eh   ::
         :: G(RRHO) contrib.            0.503501117667 Eh   ::
         :::::::::::::::::::::::::::::::::::::::::::::::::::::

           -------------------------------------------------
          | TOTAL ENERGY             -129.343454814467 Eh   |
          | TOTAL ENTHALPY           -128.730581461068 Eh   |
          | TOTAL FREE ENERGY        -128.839953696800 Eh   |
          | GRADIENT NORM               0.000077423759 Eh/α |
          | HOMO-LUMO GAP               0.283633526509 eV   |
           -------------------------------------------------

 * finished run on 2025/08/29 at 19:46:33.852
