   * xtb version 6.7.1 (edcfbbe) compiled by 'albert@albert-system' on 2024-07-22

   ID    Z sym.   atoms
    1    7 N      1, 7, 15, 23, 27, 43
    2    6 C      2-6, 8-14, 16-22, 24-26, 28-42, 44-52
    3    1 H      53-78

          program call               : xtb data2507/toluene/DICzTrz/DICzTrz_toluene_S0_finalOpt.xtbopt.xyz --gfn 2 --uhf 2 --gbsa toluene --ohess vtight --parallel 40 --molden --ceasefiles --namespace data2507/toluene/DICzTrz/DICzTrz_toluene_T1_preOpt
      * Solvation model:               GBSA
        Solvent                        toluene
        Solvent mass                       9.2140E+01 g/mol
          :  Hamiltonian                  GFN2-xTB          :
 * total energy  :  -129.3389491 Eh     change       -0.1489508E-07 Eh
 * total energy  :  -129.3414592 Eh     change       -0.2510076E-02 Eh
 * total energy  :  -129.3429277 Eh     change       -0.1468535E-02 Eh
 * total energy  :  -129.3430650 Eh     change       -0.1372942E-03 Eh
 * total energy  :  -129.3431706 Eh     change       -0.1056180E-03 Eh
 * total energy  :  -129.3432098 Eh     change       -0.3919659E-04 Eh
 * total energy  :  -129.3432241 Eh     change       -0.1427008E-04 Eh
 * total energy  :  -129.3432395 Eh     change       -0.1543972E-04 Eh
 * total energy  :  -129.3432481 Eh     change       -0.8549865E-05 Eh
 * total energy  :  -129.3432600 Eh     change       -0.1194389E-04 Eh
 * total energy  :  -129.3434169 Eh     change       -0.8161609E-06 Eh
 * total energy  :  -129.3434178 Eh     change       -0.8605084E-06 Eh
 * total energy  :  -129.3434187 Eh     change       -0.9147459E-06 Eh
 * total energy  :  -129.3434197 Eh     change       -0.9630969E-06 Eh
 * total energy  :  -129.3434207 Eh     change       -0.1004699E-05 Eh
 * total energy  :  -129.3434217 Eh     change       -0.1017039E-05 Eh
 * total energy  :  -129.3434227 Eh     change       -0.1010464E-05 Eh
 * total energy  :  -129.3434237 Eh     change       -0.1008649E-05 Eh
 * total energy  :  -129.3434237 Eh     change       -0.8117780E-08 Eh
   *** GEOMETRY OPTIMIZATION CONVERGED AFTER 68 ITERATIONS ***

 final structure:
================
78
 xtb: 6.7.1 (edcfbbe)
N           -1.92212656326613        0.91044355665661        2.44596769058940
C           -1.18834804416997        0.32534220651006        1.78180115457486
C           -0.27096259311194       -0.39672431122407        0.99466435392516
C            1.04751254079193        0.01296936713145        0.94758518879957
C            2.00279221968410       -0.70628312074718        0.20782318700235
C            3.35354284139582       -0.27552739793938        0.15962851046731
N            3.72131649601903        0.85837138823614        0.80599828888920
C            4.97424027989468        1.23217289880820        0.73296775625182
C            5.38075578487377        2.46437987617635        1.40419060397804
C            4.44364029214191        3.23923030107263        2.08906840466521
C            4.83354122576406        4.40370256955181        2.72021029792534
C            6.15912754920704        4.81062059108694        2.67638072423693
C            7.09571728575774        4.04616915655821        1.99718896296722
C            6.71194414265233        2.88021118326821        1.36377567332802
N            5.91808728458842        0.53576636901849        0.07131711736207
C            5.50626768190450       -0.58730691839677       -0.54553254347449
C            6.50430719691115       -1.37496528080269       -1.26571988149215
C            6.14088790019644       -2.55788419516952       -1.91067407869880
C            7.08919472241057       -3.30036085384834       -2.58584085730972
C            8.40887041204227       -2.87438369750414       -2.62676055073952
C            8.77730657600501       -1.70007742732891       -1.98807547995954
C            7.83309371504610       -0.95262021926749       -1.31131418457589
N            4.26424053541797       -1.00281499152401       -0.53392989607409
C            1.57606639546559       -1.87169204723454       -0.48416050697882
C            0.26908457707451       -2.27897439833324       -0.43970760479238
C           -0.68414292467175       -1.55660503509826        0.28644007513682
N           -2.01540270477403       -1.98530875133573        0.36199684319761
C           -2.41598989189877       -3.20001772533390        0.89326340144031
C           -1.64190782993290       -4.27260082162156        1.30988416438969
C           -2.30070465273595       -5.37945450962867        1.81805177257321
C           -3.68811267966959       -5.41032785001305        1.91916030270420
C           -4.46090073686245       -4.32894639725271        1.52558848258492
C           -3.82341382285073       -3.21189350021966        1.00890567516177
C           -4.29612593594851       -1.93421688479576        0.53215258303315
C           -5.59550748256920       -1.43809057451350        0.47946416410438
C           -5.75721278165793       -0.14593640320708       -0.02250211668404
C           -6.77841902103715        0.83648285574129       -0.31527281008391
C           -8.15411261121189        0.85080698238741       -0.13093841188142
C           -8.86895990299197        1.96884604233761       -0.52344625792015
C           -8.23181498794061        3.06495152507203       -1.09509622775272
C           -6.85866784445210        3.08163353361954       -1.29390750322489
C           -6.13410166278577        1.97206014638892       -0.90565382195613
N           -4.77315764796848        1.70779049185581       -0.97844535502937
C           -3.53740372650968        2.15745834770928       -1.40868081815529
C           -3.18712706484312        3.33681835599978       -2.03819061688702
C           -1.86194869114383        3.51529477810253       -2.40079488595615
C           -0.91184445859153        2.52931640113581       -2.15831143293590
C           -1.24947707828452        1.34501242343591       -1.52861384411911
C           -2.56235280115159        1.14475359377081       -1.11976231002847
C           -3.25407750967211        0.05313818765737       -0.46516305483146
C           -3.11811424015902       -1.21968017095157        0.11807735550286
C           -4.57990979915569        0.47318855381116       -0.44642361316736
H            1.36131831703069        0.89275273209782        1.48866694968418
H            3.41551600789565        2.91126755150192        2.11435854201690
H            4.10242008600909        4.99814371257483        3.24831338111458
H            6.46083051609865        5.72204751389140        3.17082575181090
H            8.12820292717866        4.36163188033607        1.96178215605203
H            7.42821576204877        2.27390186503681        0.83082246013135
H            5.11058620375206       -2.87660106345928       -1.86870505652319
H            6.80148514407658       -4.21536800251026       -3.08267540535477
H            9.14865601399933       -3.45743218348660       -3.15492543491098
H            9.80452067113190       -1.36732195809663       -2.01884036963842
H            8.10301267657299       -0.03625442458575       -0.80919311500057
H            2.30915920100973       -2.42015374689181       -1.05318310173130
H           -0.05059616595385       -3.15259488914207       -0.98861354857447
H           -0.56510912850188       -4.24375816548697        1.24692240722687
H           -1.72461128511297       -6.23176392309962        2.14476889774337
H           -4.16822417195738       -6.29013671680840        2.32014363279340
H           -5.53498564272272       -4.35491846170512        1.62169857042261
H           -6.42332718617464       -2.04035740202571        0.81665620615265
H           -8.65243267027595        0.00324591956522        0.31393081834308
H           -9.93922564970542        1.99357022153189       -0.38431103693289
H           -8.81639313667912        3.92323780818035       -1.39045228516822
H           -6.37558688951895        3.93810018707368       -1.73684526244568
H           -3.92391341808820        4.09620746900170       -2.24646561420388
H           -1.56450425011276        4.43030098003758       -2.89032737447471
H            0.11032950373938        2.68810567117709       -2.46855238713589
H           -0.49866600259402        0.58769374139936       -1.36885925175094

          :  Hamiltonian                  GFN2-xTB          :
         :: gradient norm              0.000068590752 Eh/a0 ::
         :: HOMO-LUMO gap              0.282787202066 eV    ::
         :: SCC energy              -131.740728063497 Eh    ::
         :: -> dispersion             -0.115680455282 Eh    ::
         :: -> Gsolv                  -0.063250638553 Eh    ::
         :: repulsion energy           2.397304355061 Eh    ::

    * Orbital Energies and Occupations

         #    Occupation            Energy/Eh            Energy/eV
      -------------------------------------------------------------
         1        2.0000           -0.6992614             -19.0279
       ...           ...                  ...                  ...
       109        2.0000           -0.4137941             -11.2599
       110        2.0000           -0.4133142             -11.2469
       111        2.0000           -0.4131494             -11.2424
       112        2.0000           -0.4129204             -11.2361
       113        2.0000           -0.4087175             -11.1218
       114        2.0000           -0.4086353             -11.1195
       115        2.0000           -0.4053629             -11.0305
       116        2.0000           -0.3938193             -10.7164
       117        1.9578           -0.3791666             -10.3176
       118        1.8526           -0.3778672             -10.2823
       119        1.7725           -0.3773615             -10.2685
       120        1.4171           -0.3758821             -10.2283
       121        0.9958           -0.2950936              -8.0299 (HOMO)
       122        0.0042           -0.2847016              -7.7471 (LUMO)
       123        0.0000           -0.2767412              -7.5305
       124                         -0.2706384              -7.3644
       125                         -0.2556511              -6.9566
       126                         -0.2485993              -6.7647
       127                         -0.2408725              -6.5545
       128                         -0.2395277              -6.5179
       129                         -0.2304294              -6.2703
       130                         -0.2302797              -6.2662
       131                         -0.2242841              -6.1031
       132                         -0.2140561              -5.8248
       ...                                ...                  ...
       234                          1.1545218              31.4161
      -------------------------------------------------------------
                  HL-Gap            0.0103921 Eh            0.2828 eV

     #   Z          covCN         q      C6AA      α(0)
     1   7 N        0.911    -0.289    27.443     7.577
     2   6 C        1.913     0.121    28.133     8.566
     3   6 C        2.967     0.001    28.000     8.679
     4   6 C        2.932    -0.025    28.631     8.775
     5   6 C        2.975    -0.018    28.456     8.750
     6   6 C        2.939     0.171    24.330     8.090
     7   7 N        1.845    -0.298    28.572     7.922
     8   6 C        2.936     0.210    23.566     7.962
     9   6 C        2.983    -0.009    28.224     8.715
    10   6 C        2.923    -0.028    28.712     8.787
    11   6 C        2.918    -0.029    28.717     8.788
    12   6 C        2.920    -0.026    28.661     8.779
    13   6 C        2.918    -0.029    28.716     8.787
    14   6 C        2.924    -0.028    28.708     8.787
    15   7 N        1.844    -0.331    29.428     8.040
    16   6 C        2.936     0.210    23.571     7.962
    17   6 C        2.983    -0.008    28.217     8.714
    18   6 C        2.923    -0.029    28.720     8.788
    19   6 C        2.918    -0.029    28.718     8.788
    20   6 C        2.920    -0.026    28.662     8.779
    21   6 C        2.918    -0.029    28.715     8.787
    22   6 C        2.924    -0.028    28.703     8.786
    23   7 N        1.845    -0.295    28.494     7.911
    24   6 C        2.919    -0.042    29.037     8.836
    25   6 C        2.912    -0.040    28.988     8.829
    26   6 C        2.917     0.035    27.215     8.555
    27   7 N        2.798    -0.008    21.402     6.871
    28   6 C        3.071     0.045    26.908     8.505
    29   6 C        2.909    -0.040    28.984     8.828
    30   6 C        2.923    -0.030    28.738     8.791
    31   6 C        2.920    -0.030    28.745     8.792
    32   6 C        2.913    -0.028    28.689     8.783
    33   6 C        3.061    -0.008    28.156     8.701
    34   6 C        3.057    -0.019    28.416     8.742
    35   6 C        2.921    -0.026    28.651     8.778
    36   6 C        3.029    -0.011    28.260     8.720
    37   6 C        3.104    -0.006    28.025     8.674
    38   6 C        2.911    -0.027    28.680     8.781
    39   6 C        2.918    -0.034    28.840     8.807
    40   6 C        2.923    -0.026    28.648     8.777
    41   6 C        2.908    -0.042    29.039     8.836
    42   6 C        3.078     0.053    26.735     8.477
    43   7 N        2.836    -0.020    21.629     6.907
    44   6 C        3.085     0.052    26.740     8.477
    45   6 C        2.908    -0.043    29.061     8.839
    46   6 C        2.923    -0.027    28.688     8.783
    47   6 C        2.918    -0.035    28.881     8.813
    48   6 C        2.911    -0.031    28.785     8.798
    49   6 C        3.103    -0.009    28.105     8.687
    50   6 C        3.016    -0.026    28.625     8.776
    51   6 C        3.089     0.049    26.797     8.485
    52   6 C        3.439     0.036    22.598     7.222
    53   1 H        0.926     0.042     2.422     2.434
    54   1 H        0.926     0.041     2.434     2.440
    55   1 H        0.926     0.043     2.408     2.427
    56   1 H        0.926     0.046     2.374     2.409
    57   1 H        0.926     0.044     2.397     2.421
    58   1 H        0.926     0.046     2.373     2.409
    59   1 H        0.926     0.044     2.392     2.418
    60   1 H        0.926     0.044     2.398     2.421
    61   1 H        0.926     0.045     2.377     2.411
    62   1 H        0.926     0.043     2.404     2.425
    63   1 H        0.926     0.045     2.381     2.413
    64   1 H        0.926     0.046     2.375     2.410
    65   1 H        0.926     0.048     2.342     2.393
    66   1 H        0.926     0.044     2.402     2.424
    67   1 H        0.926     0.047     2.355     2.400
    68   1 H        0.926     0.049     2.334     2.389
    69   1 H        0.926     0.051     2.309     2.376
    70   1 H        0.926     0.059     2.207     2.323
    71   1 H        0.926     0.049     2.330     2.387
    72   1 H        0.926     0.045     2.378     2.411
    73   1 H        0.926     0.047     2.355     2.400
    74   1 H        0.926     0.045     2.387     2.416
    75   1 H        0.926     0.048     2.343     2.394
    76   1 H        0.926     0.046     2.365     2.405
    77   1 H        0.926     0.036     2.507     2.476
    78   1 H        0.926     0.031     2.567     2.505

molecular dipole:
                 x           y           z       tot (Debye)
 q only:       -3.088      -0.696      -1.074
   full:       -2.604      -0.748      -1.268       7.603

 projected vibrational frequencies (cm⁻¹)
eigval :       -0.00     0.00     0.00     0.00     0.00     0.00
eigval :       10.87    11.99    16.20    19.88    32.81    35.02
eigval :       40.00    44.34    50.39    55.25    69.75    80.98
eigval :       85.47    99.85   108.76   111.29   119.36   124.38
eigval :      131.58   139.70   153.59   154.29   160.89   183.69
eigval :      197.40   213.04   215.22   239.97   246.83   253.85
eigval :      261.86   276.61   281.94   319.21   326.46   347.56
eigval :      364.57   367.24   369.13   369.61   374.94   389.33
eigval :      390.29   396.88   399.97   407.10   407.57   411.10
eigval :      422.52   434.49   444.29   487.10   490.11   522.03
eigval :      533.62   538.40   543.94   546.06   550.61   558.38
eigval :      561.50   570.59   570.96   586.64   587.63   589.13
eigval :      599.11   606.59   609.73   611.50   626.48   641.19
eigval :      649.39   655.67   659.22   663.39   665.76   679.86
eigval :      689.01   696.59   700.11   704.87   709.51   733.24
eigval :      738.04   764.62   765.29   769.47   772.18   774.16
eigval :      800.36   808.05   818.64   835.60   836.73   857.01
eigval :      862.17   866.92   868.31   869.91   872.88   876.12
eigval :      888.06   899.42   902.43   902.54   904.10   904.90
eigval :      907.46   911.54   915.53   919.33   920.99   921.57
eigval :      925.74   926.95   927.99   929.04   929.65   962.73
eigval :      986.35   991.95   995.04  1049.40  1057.88  1065.24
eigval :     1066.36  1073.31  1074.95  1075.78  1080.50  1093.13
eigval :     1101.46  1108.21  1109.71  1121.27  1138.38  1144.71
eigval :     1160.24  1162.69  1169.29  1174.15  1175.38  1177.13
eigval :     1182.46  1185.10  1188.66  1189.99  1194.49  1203.59
eigval :     1213.74  1223.32  1239.53  1247.96  1257.19  1260.27
eigval :     1264.79  1266.79  1269.83  1288.22  1290.58  1298.07
eigval :     1325.71  1328.13  1328.55  1334.70  1340.17  1342.02
eigval :     1357.26  1369.79  1371.37  1384.24  1395.75  1403.13
eigval :     1403.87  1417.44  1424.84  1427.74  1433.89  1436.60
eigval :     1449.49  1456.86  1464.11  1469.20  1472.41  1475.90
eigval :     1489.26  1493.18  1505.67  1544.52  1550.57  1565.41
eigval :     1573.03  1573.58  1574.57  1576.37  1585.44  1586.84
eigval :     1590.24  1590.67  1603.50  2336.11  3075.42  3075.59
eigval :     3078.52  3079.32  3081.13  3083.07  3083.60  3084.89
eigval :     3089.41  3089.68  3090.23  3090.86  3091.81  3094.12
eigval :     3095.94  3097.89  3098.10  3098.46  3099.11  3100.52
eigval :     3102.70  3103.25  3105.11  3108.72  3109.21  3112.22

   temp. (K)  partition function   enthalpy   heat capacity  entropy
                                   cal/mol     cal/K/mol   cal/K/mol   J/K/mol
 298.15  VIB  0.152E+19            23440.335    148.180    145.621
         ROT  0.111E+09              888.752      2.981     39.796
         INT  0.169E+27            24329.088    151.161    185.417
         TR   0.165E+29             1481.254      4.968     45.335
         TOT                       25810.3417   156.1291   230.7521   965.4669

       T/K    H(0)-H(T)+PV         H(T)/Eh          T*S/Eh         G(T)/Eh
   ------------------------------------------------------------------------
    298.15    0.411314E-01    0.612842E+00    0.109638E+00    0.503204E+00
   ------------------------------------------------------------------------

         :::::::::::::::::::::::::::::::::::::::::::::::::::::
         ::                  THERMODYNAMIC                  ::
         :::::::::::::::::::::::::::::::::::::::::::::::::::::
         :: total free energy        -128.840219816070 Eh   ::
         ::.................................................::
         :: total energy             -129.343423710546 Eh   ::
         :: zero point energy           0.571710283887 Eh   ::
         :: G(RRHO) w/o ZPVE           -0.068506389411 Eh   ::
         :: G(RRHO) contrib.            0.503203894476 Eh   ::
         :::::::::::::::::::::::::::::::::::::::::::::::::::::

           -------------------------------------------------
          | TOTAL ENERGY             -129.343423710546 Eh   |
          | TOTAL ENTHALPY           -128.730582029059 Eh   |
          | TOTAL FREE ENERGY        -128.840219816070 Eh   |
          | GRADIENT NORM               0.000066115783 Eh/α |
          | HOMO-LUMO GAP               0.282782246279 eV   |
           -------------------------------------------------

 * finished run on 2025/08/29 at 19:39:25.110
