   * xtb version 6.7.1 (edcfbbe) compiled by 'albert@albert-system' on 2024-07-22

   ID    Z sym.   atoms
    1    6 C      1-4, 6, 8-10, 12-24, 26-39
    2    7 N      5, 11, 25
    3    8 O      7, 41, 42
    4   16 S      40
    5    1 H      43-69

          program call               : xtb data2507/toluene/DiCz-Sac/DiCz-Sac_toluene_T1_crest.xyz --gfn 2 --uhf 2 --gbsa toluene --ohess vtight --parallel 40 --molden --ceasefiles --namespace data2507/toluene/DiCz-Sac/DiCz-Sac_toluene_T1_finalOpt
      * Solvation model:               GBSA
        Solvent                        toluene
        Solvent mass                       9.2140E+01 g/mol
          :  Hamiltonian                  GFN2-xTB          :
 * total energy  :  -113.0074310 Eh     change       -0.1057529E-08 Eh
 * total energy  :  -113.0076786 Eh     change       -0.2476107E-03 Eh
 * total energy  :  -113.0078220 Eh     change       -0.1434612E-03 Eh
 * total energy  :  -113.0078760 Eh     change       -0.5397903E-04 Eh
 * total energy  :  -113.0079305 Eh     change       -0.5448266E-04 Eh
 * total energy  :  -113.0079761 Eh     change       -0.4559170E-04 Eh
 * total energy  :  -113.0080110 Eh     change       -0.3488830E-04 Eh
 * total energy  :  -113.0080409 Eh     change       -0.2989423E-04 Eh
 * total energy  :  -113.0080704 Eh     change       -0.2949368E-04 Eh
 * total energy  :  -113.0081152 Eh     change       -0.4484752E-04 Eh
 * total energy  :  -113.0085661 Eh     change       -0.2203996E-06 Eh
 * total energy  :  -113.0085663 Eh     change       -0.2214345E-06 Eh
 * total energy  :  -113.0085665 Eh     change       -0.1936626E-06 Eh
 * total energy  :  -113.0085666 Eh     change       -0.1292067E-06 Eh
 * total energy  :  -113.0085668 Eh     change       -0.1692834E-06 Eh
 * total energy  :  -113.0085670 Eh     change       -0.2090246E-06 Eh
 * total energy  :  -113.0085672 Eh     change       -0.1519032E-06 Eh
 * total energy  :  -113.0085673 Eh     change       -0.1537405E-06 Eh
 * total energy  :  -113.0085674 Eh     change       -0.7462300E-07 Eh
   *** GEOMETRY OPTIMIZATION CONVERGED AFTER 65 ITERATIONS ***

 final structure:
================
69
 xtb: 6.7.1 (edcfbbe)
C            6.51795520096173       -0.91375550449508        1.67473015969186
C            6.11691411484681       -0.48235431458756        0.25930684057029
C            6.42803767030343       -1.59029528616816       -0.75522254315227
C            6.88077975949868        0.78749103499323       -0.11842213866541
N            4.67765229422492       -0.19816939867167        0.23318521061195
C            3.71256974577497       -1.16421529532288        0.55377312713700
O            3.98836550088017       -2.29397232188928        0.98481001730229
C            2.40380475742590       -0.66271332975159        0.30312407258659
C            1.18682689845023       -1.31276734695936        0.57537799207721
C           -0.00371208149610       -0.67687997089812        0.32172261413778
N           -1.21562979972318       -1.27209547424287        0.68102745050615
C           -1.64067438491498       -2.52481467502034        0.29335109269778
C           -0.97503598221274       -3.49320085094631       -0.45131266124601
C           -1.65611175177410       -4.65948225271678       -0.74653061881124
C           -2.96738161489528       -4.86129166720643       -0.32017635246513
C           -3.64276826149379       -3.89192396543228        0.40528321534457
C           -2.98014201548656       -2.71615891391762        0.71468640400566
C           -3.35988051397424       -1.52014916431623        1.42332585316896
C           -4.51281956799838       -1.12416966377487        2.08045235564516
C           -4.52014252754418        0.10551160114754        2.72153502495365
C           -3.38772282790619        0.91411160171882        2.73826572585419
C           -2.22657136906213        0.53891143416849        2.08591666092434
C           -2.23382570518605       -0.66487619388140        1.39298816925911
C           -0.02553665818981        0.64501932038792       -0.27700416921211
N           -1.23475178394625        1.22985225054688       -0.64503121663320
C           -2.24756218851251        0.61734375308427       -1.35975866897795
C           -2.23287139064140       -0.58942758355257       -2.04839728629429
C           -3.38976388190796       -0.97315904371968       -2.70250704560915
C           -4.52797529864130       -0.17125656368887       -2.68866507924335
C           -4.52874271446787        1.06118574999651       -2.05268670554875
C           -3.37882833125871        1.46803444141813       -1.39678096214961
C           -3.00524102201312        2.66934340643880       -0.69626384790345
C           -3.66991112368598        3.84702543344369       -0.39844263766398
C           -2.99990324718877        4.82133897254487        0.32548852071525
C           -1.69074644286412        4.62343779789700        0.76271880078362
C           -1.00695705120796        3.45622324146338        0.47906831766739
C           -1.66681792109099        2.48247258269779       -0.26493464245906
C            1.19205537488236        1.29284410019412       -0.54225510587540
C            2.35927845227765        0.64974944837823       -0.26662759719401
S            4.02121943911861        1.15553765762038       -0.52912589524236
O            4.33669897382323        2.35906300636898        0.20245580522868
O            4.36670034866840        1.18225400831689       -1.93290713714377
H            5.97168714938573       -1.80957988702340        1.95780446054998
H            6.28617403288788       -0.12213937813744        2.38405345836600
H            7.58399507376392       -1.12039032059625        1.70555907983644
H            7.49506445387105       -1.79411468297860       -0.76830439421769
H            5.89514689017646       -2.49809651050119       -0.48232694442042
H            6.11055895342087       -1.27741827144423       -1.74842616692580
H            6.63986864600587        1.59494956440452        0.56851122475161
H            6.61545741642630        1.10721443985592       -1.12302847743671
H            7.94902970388873        0.58984151805029       -0.07862882555868
H            1.21258237187513       -2.28383913658773        1.04530303836426
H            0.03904981697441       -3.34092255284004       -0.78755423814526
H           -1.16009201475235       -5.42865547335381       -1.31867865255674
H           -3.46482722831773       -5.78699133847811       -0.56655814789245
H           -4.66345074817102       -4.04644560128066        0.71809616087580
H           -5.38192800152946       -1.76274067515876        2.09918484979795
H           -5.41054678213379        0.43355456907852        3.23569142847784
H           -3.40968117235957        1.84944871852205        3.27603012877752
H           -1.33948230273168        1.15106064553148        2.13308013750145
H           -1.34145646508095       -1.19555066435410       -2.09306377027982
H           -3.40505203742484       -1.90906196193667       -3.23942707996375
H           -5.41594817388552       -0.50694384898713       -3.20209125232880
H           -5.40203713461688        1.69399321461791       -2.07511330094494
H           -4.68870343297285        3.99940872431220       -0.71855158256717
H           -3.49992275631206        5.74786579249724        0.56343533008129
H           -1.20036449645174        5.39590674775690        1.33524625207908
H            0.00386443578360        3.30590350721612        0.82646884468726
H            1.20020808172708        2.26708054794476       -1.00587226218818

          :  Hamiltonian                  GFN2-xTB          :
         :: gradient norm              0.000040902814 Eh/a0 ::
         :: HOMO-LUMO gap              0.630691115685 eV    ::
         :: SCC energy              -114.816845362455 Eh    ::
         :: -> dispersion             -0.108770500542 Eh    ::
         :: -> Gsolv                  -0.056373276692 Eh    ::
         :: repulsion energy           1.808277920572 Eh    ::

    * Orbital Energies and Occupations

         #    Occupation            Energy/Eh            Energy/eV
      -------------------------------------------------------------
         1        2.0000           -0.7781319             -21.1740
       ...           ...                  ...                  ...
        92        2.0000           -0.4357281             -11.8568
        93        2.0000           -0.4340295             -11.8105
        94        2.0000           -0.4253774             -11.5751
        95        2.0000           -0.4234906             -11.5238
        96        2.0000           -0.4206236             -11.4458
        97        2.0000           -0.4200245             -11.4294
        98        2.0000           -0.4011860             -10.9168
        99        2.0000           -0.4010041             -10.9119
       100        2.0000           -0.3969389             -10.8013
       101        1.9986           -0.3903298             -10.6214
       102        1.9284           -0.3864901             -10.5169
       103        1.0730           -0.3816410             -10.3850
       104        1.0000           -0.2877254              -7.8294 (HOMO)
       105        0.0000           -0.2645487              -7.1987 (LUMO)
       106        0.0000           -0.2632303              -7.1629
       107                         -0.2542823              -6.9194
       108                         -0.2468057              -6.7159
       109                         -0.2399262              -6.5287
       110                         -0.2217114              -6.0331
       111                         -0.2153280              -5.8594
       112                         -0.2057780              -5.5995
       113                         -0.2048922              -5.5754
       114                         -0.1885936              -5.1319
       115                         -0.1384957              -3.7687
       ...                                ...                  ...
       200                          1.2047168              32.7820
      -------------------------------------------------------------
                  HL-Gap            0.0231767 Eh            0.6307 eV

     #   Z          covCN         q      C6AA      α(0)
     1   6 C        3.759    -0.116    22.771     6.803
     2   6 C        3.863     0.104    18.833     6.171
     3   6 C        3.758    -0.114    22.727     6.797
     4   6 C        3.767    -0.125    22.933     6.825
     5   7 N        2.758    -0.284    27.312     7.762
     6   6 C        2.924     0.249    22.845     7.838
     7   8 O        0.857    -0.501    23.809     6.542
     8   6 C        3.149    -0.064    29.298     8.854
     9   6 C        2.912    -0.035    28.877     8.812
    10   6 C        2.905     0.041    27.085     8.533
    11   7 N        2.801     0.002    21.223     6.842
    12   6 C        3.071     0.047    26.863     8.498
    13   6 C        2.909    -0.037    28.918     8.818
    14   6 C        2.922    -0.027    28.682     8.782
    15   6 C        2.920    -0.026    28.643     8.776
    16   6 C        2.911    -0.025    28.631     8.774
    17   6 C        3.065    -0.005    28.092     8.691
    18   6 C        3.062    -0.008    28.160     8.702
    19   6 C        2.912    -0.025    28.624     8.773
    20   6 C        2.920    -0.028    28.705     8.786
    21   6 C        2.922    -0.028    28.705     8.786
    22   6 C        2.910    -0.038    28.952     8.823
    23   6 C        3.073     0.042    26.987     8.518
    24   6 C        2.912     0.014    27.697     8.630
    25   7 N        2.797     0.008    21.109     6.824
    26   6 C        3.075     0.039    27.043     8.526
    27   6 C        2.909    -0.037    28.927     8.819
    28   6 C        2.922    -0.029    28.728     8.790
    29   6 C        2.920    -0.028    28.705     8.786
    30   6 C        2.912    -0.025    28.621     8.773
    31   6 C        3.062    -0.009    28.179     8.705
    32   6 C        3.064    -0.006    28.104     8.693
    33   6 C        2.911    -0.025    28.631     8.774
    34   6 C        2.920    -0.026    28.643     8.776
    35   6 C        2.921    -0.028    28.710     8.787
    36   6 C        2.909    -0.037    28.915     8.817
    37   6 C        3.072     0.044    26.932     8.509
    38   6 C        2.922    -0.032    28.788     8.799
    39   6 C        2.980    -0.119    31.015     9.135
    40  16 S        3.984     1.111   103.514    17.124
    41   8 O        0.860    -0.588    25.833     6.815
    42   8 O        0.860    -0.600    26.113     6.851
    43   1 H        0.925     0.065     2.136     2.285
    44   1 H        0.925     0.040     2.450     2.448
    45   1 H        0.925     0.054     2.269     2.356
    46   1 H        0.925     0.054     2.270     2.356
    47   1 H        0.925     0.057     2.237     2.339
    48   1 H        0.925     0.037     2.496     2.471
    49   1 H        0.925     0.049     2.337     2.391
    50   1 H        0.925     0.044     2.390     2.418
    51   1 H        0.925     0.059     2.215     2.328
    52   1 H        0.926     0.066     2.135     2.285
    53   1 H        0.926     0.045     2.389     2.417
    54   1 H        0.926     0.050     2.323     2.384
    55   1 H        0.926     0.053     2.282     2.362
    56   1 H        0.926     0.056     2.246     2.344
    57   1 H        0.926     0.055     2.258     2.350
    58   1 H        0.926     0.052     2.292     2.368
    59   1 H        0.926     0.049     2.334     2.389
    60   1 H        0.926     0.040     2.449     2.447
    61   1 H        0.926     0.039     2.461     2.453
    62   1 H        0.926     0.048     2.341     2.393
    63   1 H        0.926     0.052     2.296     2.370
    64   1 H        0.926     0.055     2.263     2.353
    65   1 H        0.926     0.056     2.251     2.346
    66   1 H        0.926     0.053     2.288     2.365
    67   1 H        0.926     0.049     2.334     2.389
    68   1 H        0.926     0.043     2.409     2.427
    69   1 H        0.926     0.056     2.250     2.346

molecular dipole:
                 x           y           z       tot (Debye)
 q only:       -6.782      -0.323       0.303
   full:       -6.246      -0.170       0.190      15.889

 projected vibrational frequencies (cm⁻¹)
eigval :       -0.00    -0.00    -0.00    -0.00     0.00     0.00
eigval :       19.77    22.76    28.43    30.26    35.39    45.05
eigval :       48.54    58.30    85.08   101.95   105.64   118.08
eigval :      120.55   136.06   139.71   141.67   154.27   159.19
eigval :      179.53   194.72   205.30   209.34   236.28   244.55
eigval :      246.77   254.29   268.07   270.54   271.01   272.21
eigval :      293.73   310.76   316.59   345.32   361.88   366.17
eigval :      373.29   391.27   396.22   399.38   409.63   413.49
eigval :      416.47   421.19   433.28   435.58   459.16   465.78
eigval :      497.96   504.19   510.58   511.92   520.63   530.77
eigval :      532.70   540.40   545.13   550.56   554.12   565.59
eigval :      584.11   584.81   622.43   628.53   640.28   646.07
eigval :      662.43   669.46   673.63   694.47   706.78   709.12
eigval :      749.98   753.32   766.83   768.66   770.28   776.00
eigval :      777.31   828.51   854.13   865.48   870.51   873.63
eigval :      874.61   875.32   883.62   889.49   893.94   905.35
eigval :      906.27   907.22   908.21   918.00   919.37   923.58
eigval :      924.39   925.60   940.61   952.56   965.63   968.68
eigval :      996.33  1006.05  1009.77  1035.05  1045.90  1063.58
eigval :     1064.84  1066.22  1068.78  1074.73  1080.68  1102.30
eigval :     1115.59  1127.24  1132.00  1158.88  1159.97  1170.11
eigval :     1171.04  1174.06  1176.19  1181.15  1192.81  1215.22
eigval :     1218.44  1221.19  1221.55  1223.43  1231.95  1244.77
eigval :     1254.94  1258.01  1267.62  1277.42  1283.03  1287.45
eigval :     1313.12  1315.44  1322.05  1330.66  1361.62  1364.22
eigval :     1373.93  1384.27  1388.36  1391.40  1398.12  1401.33
eigval :     1414.10  1416.90  1422.54  1451.24  1453.26  1465.52
eigval :     1468.50  1474.33  1475.11  1480.93  1482.61  1486.75
eigval :     1491.47  1506.86  1535.15  1549.67  1555.39  1558.90
eigval :     1561.40  1564.88  1569.72  1585.97  1589.77  1592.90
eigval :     3024.56  3030.31  3032.93  3039.54  3042.63  3043.91
eigval :     3045.83  3050.59  3051.66  3086.13  3086.69  3088.31
eigval :     3088.38  3090.58  3091.64  3093.45  3093.77  3094.58
eigval :     3097.88  3098.47  3099.57  3100.51  3101.16  3104.20
eigval :     3104.58  3105.52  3106.18

   temp. (K)  partition function   enthalpy   heat capacity  entropy
                                   cal/mol     cal/K/mol   cal/K/mol   J/K/mol
 298.15  VIB  0.245E+15            20432.651    130.735    123.670
         ROT  0.432E+08              888.752      2.981     37.917
         INT  0.106E+23            21321.403    133.715    161.588
         TR   0.132E+29             1481.254      4.968     44.884
         TOT                       22802.6571   138.6836   206.4717   863.8776

       T/K    H(0)-H(T)+PV         H(T)/Eh          T*S/Eh         G(T)/Eh
   ------------------------------------------------------------------------
    298.15    0.363383E-01    0.557826E+00    0.981014E-01    0.459724E+00
   ------------------------------------------------------------------------

         :::::::::::::::::::::::::::::::::::::::::::::::::::::
         ::                  THERMODYNAMIC                  ::
         :::::::::::::::::::::::::::::::::::::::::::::::::::::
         :: total free energy        -112.548843128883 Eh   ::
         ::.................................................::
         :: total energy             -113.008567442138 Eh   ::
         :: zero point energy           0.521487328729 Eh   ::
         :: G(RRHO) w/o ZPVE           -0.061763015474 Eh   ::
         :: G(RRHO) contrib.            0.459724313255 Eh   ::
         :::::::::::::::::::::::::::::::::::::::::::::::::::::

           -------------------------------------------------
          | TOTAL ENERGY             -113.008567442138 Eh   |
          | TOTAL ENTHALPY           -112.450741766344 Eh   |
          | TOTAL FREE ENERGY        -112.548843128883 Eh   |
          | GRADIENT NORM               0.000038906864 Eh/α |
          | HOMO-LUMO GAP               0.630669785374 eV   |
           -------------------------------------------------

 * finished run on 2025/08/23 at 09:42:42.063
