   * xtb version 6.7.1 (edcfbbe) compiled by 'albert@albert-system' on 2024-07-22

   ID    Z sym.   atoms
    1    6 C      1-4, 6, 8-10, 12-24, 26-39
    2    7 N      5, 11, 25
    3    8 O      7, 41, 42
    4   16 S      40
    5    1 H      43-69

          program call               : xtb data2507/toluene/DiCz-Sac/DiCz-Sac_toluene_S0_crest.xyz --gfn 2 --gbsa toluene --ohess vtight --parallel 40 --molden --ceasefiles --namespace data2507/toluene/DiCz-Sac/DiCz-Sac_toluene_S0_finalOpt
      * Solvation model:               GBSA
        Solvent                        toluene
        Solvent mass                       9.2140E+01 g/mol
          :  Hamiltonian                  GFN2-xTB          :
 * total energy  :  -113.0940330 Eh     change       -0.2920714E-08 Eh
 * total energy  :  -113.0941469 Eh     change       -0.1139387E-03 Eh
 * total energy  :  -113.0942446 Eh     change       -0.9769654E-04 Eh
 * total energy  :  -113.0942910 Eh     change       -0.4640848E-04 Eh
 * total energy  :  -113.0943361 Eh     change       -0.4507893E-04 Eh
 * total energy  :  -113.0943850 Eh     change       -0.4893901E-04 Eh
 * total energy  :  -113.0944496 Eh     change       -0.6459056E-04 Eh
 * total energy  :  -113.0945006 Eh     change       -0.5099475E-04 Eh
 * total energy  :  -113.0945370 Eh     change       -0.3640503E-04 Eh
 * total energy  :  -113.0946069 Eh     change       -0.6990698E-04 Eh
 * total energy  :  -113.0949014 Eh     change       -0.4990947E-06 Eh
 * total energy  :  -113.0949016 Eh     change       -0.2624543E-06 Eh
 * total energy  :  -113.0949019 Eh     change       -0.2375561E-06 Eh
 * total energy  :  -113.0949021 Eh     change       -0.2650963E-06 Eh
 * total energy  :  -113.0949023 Eh     change       -0.1981099E-06 Eh
 * total energy  :  -113.0949025 Eh     change       -0.1267697E-06 Eh
 * total energy  :  -113.0949026 Eh     change       -0.1380059E-06 Eh
 * total energy  :  -113.0949027 Eh     change       -0.1184088E-06 Eh
 * total energy  :  -113.0949028 Eh     change       -0.7760556E-07 Eh
   *** GEOMETRY OPTIMIZATION CONVERGED AFTER 37 ITERATIONS ***

 final structure:
================
69
 xtb: 6.7.1 (edcfbbe)
C            6.48263863088517       -0.86370286278759        1.69667000548648
C            6.13017587610019       -0.50274006176022        0.25047882211558
C            6.47868742412841       -1.64788140771182       -0.70467697510103
C            6.88366957293636        0.76140549266099       -0.15811960359688
N            4.67764086311647       -0.24026080752045        0.16378733199976
C            3.73612057438396       -1.16733335387199        0.49785385015008
O            3.95414183002789       -2.28467644014360        0.92463247120280
C            2.37602356205545       -0.62634690670068        0.26350704733059
C            1.19190074984734       -1.28061165911139        0.55984410270060
C           -0.02571466444357       -0.65358198039881        0.29866914300126
N           -1.21236654122573       -1.29124861441304        0.64666076276038
C           -1.59314939336848       -2.56805357257889        0.25292662192262
C           -0.89257190466215       -3.51143685023632       -0.48239352636810
C           -1.52960601814733       -4.70424477107232       -0.77460446477614
C           -2.83353376558754       -4.95299705966986       -0.35485023016708
C           -3.54156234537352       -4.00749999808814        0.36161122481387
C           -2.92160333061847       -2.80346375691220        0.66769255400034
C           -3.35304245670159       -1.62241052466551        1.36643387784182
C           -4.53002860748147       -1.27328743773384        2.01422127778085
C           -4.60054591025010       -0.04377653404838        2.64065301003817
C           -3.50526916592360        0.81514770724697        2.65780541125875
C           -2.32289351306287        0.48668712406802        2.02048869540649
C           -2.26942247759262       -0.71930576920232        1.33989148131746
C           -0.04268340818283        0.63067122711661       -0.30532104615005
N           -1.24037432512866        1.25210893359477       -0.63539991731628
C           -2.30106826202576        0.66758641585230       -1.31387183253132
C           -2.35033523285042       -0.53970162765496       -1.99207702919577
C           -3.53755167163482       -0.88147377664810       -2.61347517334067
C           -4.64127533375362       -0.03398324083339       -2.58321082743809
C           -4.57543853852967        1.19740489403107       -1.95967124350140
C           -3.39385025346315        1.55947953735233       -1.32776531760427
C           -2.96534337771064        2.74676172718842       -0.63718673683934
C           -3.59433580547388        3.94448687583039       -0.32537788649904
C           -2.88734744082516        4.89910289860371        0.38020983458217
C           -1.57587713382635        4.66494094184632        0.78419683711859
C           -0.92944822851148        3.47843908246760        0.48581488159094
C           -1.62900491792190        2.52674191997611       -0.23984077770198
C            1.16498653456058        1.28266575519294       -0.58031679251237
C            2.34407503225422        0.64486706988365       -0.28601999072718
S            4.01937275323096        1.19009066661775       -0.49928072350628
O            4.31357579200192        2.31193508995578        0.34297690061696
O            4.37504664974075        1.30104721962858       -1.88409687438735
H            5.96421694439347       -1.76889493795120        2.00016621826789
H            6.19802530190077       -0.05286183206453        2.36369565292323
H            7.55320764066078       -1.02763967118953        1.77702279695776
H            7.54779138158305       -1.83641030273583       -0.67377859034903
H            5.95343134223027       -2.55421748611727       -0.41475495005869
H            6.19460016423065       -1.38270039432397       -1.72106159862624
H            6.62627479383092        1.59041859243309        0.49584612149207
H            6.64038322881903        1.04200179172309       -1.17948637774266
H            7.95239404774314        0.57623813352030       -0.08948974293918
H            1.21910618572159       -2.25240275949029        1.02820521576346
H            0.11436722672661       -3.32667131825593       -0.82571126559652
H           -1.00254609009417       -5.45673722814033       -1.34224141893358
H           -3.29606673056334       -5.89712926605124       -0.60110974325286
H           -4.55714625829107       -4.19432470499856        0.67510918022120
H           -5.36681149454485       -1.95448310724462        2.03273790721160
H           -5.50925583338211        0.24977902097282        3.14448233070003
H           -3.57482496518638        1.75629181604318        3.18251091397125
H           -1.47024477075014        1.14608896197652        2.06965106721082
H           -1.49161399185797       -1.19008141806738       -2.05119518971601
H           -3.60407238148365       -1.82405513327046       -3.13582821638941
H           -5.55343993292709       -0.33780604862510       -3.07446012434264
H           -5.41941106596321        1.86978977448132       -1.96839103485580
H           -4.61582049910160        4.11954456698467       -0.62597450092446
H           -3.35684263130257        5.83862544708752        0.63064622206050
H           -1.04976448714383        5.42342545165277        1.34462222013566
H            0.08324919934256        3.30530062423584        0.81887584066956
H            1.16328251082147        2.25345580636328       -1.04925045533710

          :  Hamiltonian                  GFN2-xTB          :
         :: gradient norm              0.000057068323 Eh/a0 ::
         :: HOMO-LUMO gap              1.998827421265 eV    ::
         :: SCC energy              -114.926278575721 Eh    ::
         :: -> dispersion             -0.108799945900 Eh    ::
         :: -> Gsolv                  -0.043356841325 Eh    ::
         :: repulsion energy           1.831375785459 Eh    ::

    * Orbital Energies and Occupations

         #    Occupation            Energy/Eh            Energy/eV
      -------------------------------------------------------------
         1        2.0000           -0.8054558             -21.9176
       ...           ...                  ...                  ...
        91        2.0000           -0.4295434             -11.6885
        92        2.0000           -0.4273439             -11.6286
        93        2.0000           -0.4270989             -11.6220
        94        2.0000           -0.4265167             -11.6061
        95        2.0000           -0.4258472             -11.5879
        96        2.0000           -0.4247613             -11.5583
        97        2.0000           -0.4194801             -11.4146
        98        2.0000           -0.4136314             -11.2555
        99        2.0000           -0.4123747             -11.2213
       100        2.0000           -0.3893297             -10.5942
       101        2.0000           -0.3853535             -10.4860
       102        2.0000           -0.3792078             -10.3188
       103        2.0000           -0.3754686             -10.2170 (HOMO)
       104                         -0.3020130              -8.2182 (LUMO)
       105                         -0.2789877              -7.5916
       106                         -0.2538224              -6.9069
       107                         -0.2522473              -6.8640
       108                         -0.2336523              -6.3580
       109                         -0.2272305              -6.1833
       110                         -0.2266193              -6.1666
       111                         -0.2042521              -5.5580
       112                         -0.1967401              -5.3536
       113                         -0.1949223              -5.3041
       114                         -0.1935568              -5.2669
       ...                                ...                  ...
       200                          1.2227106              33.2716
      -------------------------------------------------------------
                  HL-Gap            0.0734556 Eh            1.9988 eV

     #   Z          covCN         q      C6AA      α(0)
     1   6 C        3.759    -0.121    22.875     6.819
     2   6 C        3.855     0.099    18.913     6.185
     3   6 C        3.758    -0.121    22.864     6.817
     4   6 C        3.766    -0.134    23.120     6.853
     5   7 N        2.753    -0.262    26.784     7.686
     6   6 C        2.925     0.278    22.307     7.745
     7   8 O        0.857    -0.424    22.167     6.312
     8   6 C        3.159    -0.037    28.581     8.740
     9   6 C        2.921    -0.028    28.694     8.784
    10   6 C        2.910     0.060    26.652     8.465
    11   7 N        2.800    -0.035    21.916     6.953
    12   6 C        3.066     0.046    26.911     8.507
    13   6 C        2.910    -0.050    29.250     8.868
    14   6 C        2.924    -0.031    28.785     8.798
    15   6 C        2.920    -0.038    28.947     8.823
    16   6 C        2.913    -0.031    28.779     8.797
    17   6 C        3.066    -0.012    28.249     8.715
    18   6 C        3.065    -0.013    28.269     8.719
    19   6 C        2.913    -0.032    28.795     8.799
    20   6 C        2.920    -0.038    28.940     8.822
    21   6 C        2.924    -0.031    28.784     8.798
    22   6 C        2.910    -0.049    29.205     8.862
    23   6 C        3.068     0.045    26.933     8.510
    24   6 C        2.915     0.063    26.597     8.457
    25   7 N        2.800    -0.033    21.886     6.948
    26   6 C        3.067     0.045    26.934     8.510
    27   6 C        2.910    -0.048    29.188     8.859
    28   6 C        2.924    -0.031    28.772     8.796
    29   6 C        2.920    -0.037    28.925     8.820
    30   6 C        2.913    -0.032    28.786     8.798
    31   6 C        3.065    -0.012    28.256     8.717
    32   6 C        3.066    -0.011    28.230     8.712
    33   6 C        2.913    -0.031    28.770     8.796
    34   6 C        2.920    -0.038    28.934     8.821
    35   6 C        2.924    -0.031    28.782     8.798
    36   6 C        2.910    -0.051    29.261     8.870
    37   6 C        3.065     0.045    26.932     8.510
    38   6 C        2.928    -0.033    28.829     8.805
    39   6 C        2.984    -0.103    30.586     9.072
    40  16 S        3.980     1.158   102.245    17.019
    41   8 O        0.860    -0.566    25.287     6.742
    42   8 O        0.860    -0.569    25.373     6.754
    43   1 H        0.925     0.065     2.137     2.286
    44   1 H        0.925     0.045     2.382     2.413
    45   1 H        0.925     0.066     2.133     2.284
    46   1 H        0.925     0.066     2.131     2.283
    47   1 H        0.925     0.061     2.182     2.310
    48   1 H        0.925     0.044     2.396     2.421
    49   1 H        0.925     0.054     2.275     2.359
    50   1 H        0.925     0.052     2.301     2.372
    51   1 H        0.925     0.070     2.083     2.257
    52   1 H        0.926     0.090     1.884     2.146
    53   1 H        0.926     0.030     2.582     2.513
    54   1 H        0.926     0.038     2.476     2.461
    55   1 H        0.926     0.038     2.479     2.462
    56   1 H        0.926     0.041     2.435     2.440
    57   1 H        0.926     0.041     2.432     2.439
    58   1 H        0.926     0.038     2.473     2.459
    59   1 H        0.926     0.037     2.492     2.468
    60   1 H        0.926     0.026     2.647     2.544
    61   1 H        0.926     0.027     2.622     2.532
    62   1 H        0.926     0.038     2.473     2.459
    63   1 H        0.926     0.039     2.457     2.451
    64   1 H        0.926     0.042     2.417     2.431
    65   1 H        0.926     0.042     2.416     2.431
    66   1 H        0.926     0.039     2.462     2.453
    67   1 H        0.926     0.039     2.467     2.456
    68   1 H        0.926     0.029     2.600     2.521
    69   1 H        0.926     0.078     2.002     2.212

molecular dipole:
                 x           y           z       tot (Debye)
 q only:       -1.915      -0.416       0.210
   full:       -1.585      -0.264       0.142       4.101

 projected vibrational frequencies (cm⁻¹)
eigval :       -0.00    -0.00     0.00     0.00     0.00     0.00
eigval :       20.83    24.39    25.18    29.96    36.34    41.92
eigval :       47.21    60.62    86.33   101.99   103.45   118.47
eigval :      122.08   132.80   138.32   144.55   155.83   160.78
eigval :      185.59   199.28   205.40   209.20   238.65   246.10
eigval :      248.19   250.14   268.73   273.21   275.33   276.29
eigval :      296.69   306.73   316.74   351.90   364.18   375.60
eigval :      395.79   401.87   405.73   407.53   418.80   421.07
eigval :      429.61   430.26   441.94   442.88   469.64   480.53
eigval :      503.34   515.80   517.31   519.96   526.51   535.79
eigval :      542.28   543.74   548.98   552.32   559.56   585.47
eigval :      587.28   597.65   628.13   649.58   670.86   672.42
eigval :      675.40   688.16   703.04   708.40   710.39   713.79
eigval :      752.50   755.56   770.13   770.78   773.84   782.08
eigval :      782.64   828.68   864.02   869.53   876.03   876.53
eigval :      879.42   882.25   893.74   894.86   899.19   904.77
eigval :      905.34   907.39   908.85   922.03   923.34   925.11
eigval :      925.41   944.17   946.50   953.95   968.20   981.41
eigval :     1007.41  1011.79  1016.05  1036.76  1046.88  1069.61
eigval :     1070.37  1073.29  1074.43  1087.94  1107.89  1113.21
eigval :     1146.43  1150.21  1151.91  1165.94  1176.61  1178.01
eigval :     1178.79  1180.15  1191.38  1199.65  1213.04  1229.91
eigval :     1231.93  1233.87  1234.51  1243.62  1244.91  1254.91
eigval :     1267.85  1288.38  1290.82  1294.45  1296.07  1313.87
eigval :     1327.05  1354.02  1355.60  1357.77  1358.68  1366.07
eigval :     1390.37  1396.85  1409.26  1418.07  1419.74  1422.34
eigval :     1424.88  1426.57  1465.61  1467.96  1470.78  1471.40
eigval :     1480.35  1482.13  1483.63  1484.16  1485.72  1487.67
eigval :     1503.49  1541.73  1565.22  1576.45  1576.95  1589.93
eigval :     1590.25  1597.59  1598.18  1609.83  1610.95  1700.56
eigval :     3031.66  3034.50  3040.65  3047.85  3050.91  3051.33
eigval :     3054.09  3054.46  3058.99  3076.11  3076.83  3079.80
eigval :     3080.79  3081.75  3082.30  3085.80  3086.99  3089.39
eigval :     3089.69  3093.56  3094.96  3097.21  3098.52  3100.28
eigval :     3101.43  3105.87  3111.32

   temp. (K)  partition function   enthalpy   heat capacity  entropy
                                   cal/mol     cal/K/mol   cal/K/mol   J/K/mol
 298.15  VIB  0.193E+15            20183.462    129.021    122.237
         ROT  0.434E+08              888.752      2.981     37.931
         INT  0.840E+22            21072.214    132.002    160.168
         TR   0.132E+29             1481.254      4.968     44.884
         TOT                       22553.4684   136.9702   205.0515   857.9357

       T/K    H(0)-H(T)+PV         H(T)/Eh          T*S/Eh         G(T)/Eh
   ------------------------------------------------------------------------
    298.15    0.359412E-01    0.561530E+00    0.974266E-01    0.464103E+00
   ------------------------------------------------------------------------

         :::::::::::::::::::::::::::::::::::::::::::::::::::::
         ::                  THERMODYNAMIC                  ::
         :::::::::::::::::::::::::::::::::::::::::::::::::::::
         :: total free energy        -112.630799407405 Eh   ::
         ::.................................................::
         :: total energy             -113.094902788327 Eh   ::
         :: zero point energy           0.525588748086 Eh   ::
         :: G(RRHO) w/o ZPVE           -0.061485367165 Eh   ::
         :: G(RRHO) contrib.            0.464103380921 Eh   ::
         :::::::::::::::::::::::::::::::::::::::::::::::::::::

           -------------------------------------------------
          | TOTAL ENERGY             -113.094902788327 Eh   |
          | TOTAL ENTHALPY           -112.533372800604 Eh   |
          | TOTAL FREE ENERGY        -112.630799407405 Eh   |
          | GRADIENT NORM               0.000057100198 Eh/α |
          | HOMO-LUMO GAP               1.998828450058 eV   |
           -------------------------------------------------

 * finished run on 2025/08/23 at 09:37:07.538
