   * xtb version 6.7.1 (edcfbbe) compiled by 'albert@albert-system' on 2024-07-22

   ID    Z sym.   atoms
    1    6 C      1-4, 6, 8-10, 12-24, 26-39
    2    7 N      5, 11, 25
    3    8 O      7, 41, 42
    4   16 S      40
    5    1 H      43-69

          program call               : xtb data2507/toluene/DiCz-Sac/DiCz-Sac_toluene_S0_finalOpt.xtbopt.xyz --gfn 2 --uhf 2 --gbsa toluene --ohess vtight --parallel 40 --molden --ceasefiles --namespace data2507/toluene/DiCz-Sac/DiCz-Sac_toluene_T1_preOpt
      * Solvation model:               GBSA
        Solvent                        toluene
        Solvent mass                       9.2140E+01 g/mol
          :  Hamiltonian                  GFN2-xTB          :
 * total energy  :  -113.0014501 Eh     change       -0.4344798E-08 Eh
 * total energy  :  -113.0063768 Eh     change       -0.4926649E-02 Eh
 * total energy  :  -113.0080120 Eh     change       -0.1635201E-02 Eh
 * total energy  :  -113.0081712 Eh     change       -0.1591866E-03 Eh
 * total energy  :  -113.0083009 Eh     change       -0.1297181E-03 Eh
 * total energy  :  -113.0083300 Eh     change       -0.2910664E-04 Eh
 * total energy  :  -113.0083574 Eh     change       -0.2736404E-04 Eh
 * total energy  :  -113.0083712 Eh     change       -0.1379699E-04 Eh
 * total energy  :  -113.0083880 Eh     change       -0.1679988E-04 Eh
 * total energy  :  -113.0084103 Eh     change       -0.2230593E-04 Eh
 * total energy  :  -113.0085406 Eh     change       -0.9603464E-06 Eh
 * total energy  :  -113.0085417 Eh     change       -0.1017211E-05 Eh
 * total energy  :  -113.0085427 Eh     change       -0.1050913E-05 Eh
 * total energy  :  -113.0085439 Eh     change       -0.1173031E-05 Eh
 * total energy  :  -113.0085450 Eh     change       -0.1160356E-05 Eh
 * total energy  :  -113.0085461 Eh     change       -0.1085197E-05 Eh
 * total energy  :  -113.0085468 Eh     change       -0.7173026E-06 Eh
 * total energy  :  -113.0085473 Eh     change       -0.4467042E-06 Eh
 * total energy  :  -113.0085473 Eh     change       -0.1412670E-07 Eh
   *** GEOMETRY OPTIMIZATION CONVERGED AFTER 44 ITERATIONS ***

 final structure:
================
69
 xtb: 6.7.1 (edcfbbe)
C            6.51815102556517       -0.91324614795649        1.67416227434077
C            6.11783640186675       -0.47804481721567        0.25969146162378
C            6.43135661836485       -1.58257329893385       -0.75785142445806
C            6.88034375291155        0.79377089741549       -0.11406147116096
N            4.67819739758288       -0.19573416842202        0.23374265989285
C            3.71441255655247       -1.16606368553378        0.54545852557086
O            3.99190946656542       -2.29882072272112        0.96759252476188
C            2.40510288841204       -0.66447271995883        0.29820474776591
C            1.18884779150146       -1.32025780116941        0.55969470494512
C           -0.00282321021950       -0.68357900507500        0.31294642351223
N           -1.21317282684911       -1.29027982852792        0.65823500725815
C           -1.62840985586270       -2.53945333908919        0.24854030923120
C           -0.95523629954621       -3.48893720753581       -0.51340976141053
C           -1.62721200364562       -4.65498776969233       -0.82976971726488
C           -2.93681861279473       -4.87468446129233       -0.40730648285247
C           -3.61984846268674       -3.92371487412450        0.33519700286409
C           -2.96658517770940       -2.74830991231749        0.66525135724923
C           -3.35645810905930       -1.56697232242941        1.39277132067319
C           -4.51381997451012       -1.19033834450752        2.05339284563784
C           -4.53232409232271        0.02935444649616        2.71307896363714
C           -3.40629683853464        0.84646493567068        2.74487585796882
C           -2.24066723955904        0.49023046281525        2.08999850312611
C           -2.23692321664023       -0.70258810680391        1.37821208231254
C           -0.02633418866624        0.64718915916154       -0.26524130563622
N           -1.23543522444689        1.24076252600914       -0.61962153036218
C           -2.25215577800582        0.64603331690975       -1.34337742202003
C           -2.24555043540125       -0.54951132896145       -2.05154975386083
C           -3.40558167339858       -0.91598166855678       -2.70986847710885
C           -4.53899074353264       -0.10757251420098       -2.68176670650758
C           -4.53175279995435        1.11432977081517       -2.02580570718607
C           -3.37880030174990        1.50356456301780       -1.36464673122418
C           -2.99839523813715        2.69029366762025       -0.64321480244290
C           -3.65700644800406        3.86539615447495       -0.32252720704894
C           -2.98233540478588        4.82147920661837        0.42116371525247
C           -1.67433524351968        4.60825990562127        0.85450486233507
C           -0.99628711648003        3.44361648359227        0.54735991571420
C           -1.66095654567966        2.48844167599358       -0.21609023363187
C            1.19063019830783        1.29937861199405       -0.52288101127347
C            2.35884120514419        0.65425669374570       -0.25655055822763
S            4.02001276262483        1.16358096033867       -0.51698527788544
O            4.33603749487182        2.36152493449589        0.22339819050396
O            4.36320939116657        1.20137903401612       -1.92109009931211
H            5.97204621120407       -1.81012631163471        1.95426544371864
H            6.28554885683268       -0.12368709986975        2.38550789519338
H            7.58424681388984       -1.11955226098782        1.70520974623081
H            7.49853688818925       -1.78563240601110       -0.76970040465432
H            5.89863744158091       -2.49157279751747       -0.48870655859980
H            6.11538414085610       -1.26683328150808       -1.75061584905323
H            6.63938147850876        1.59867002072735        0.57583465757591
H            6.61389620307275        1.11677527928237       -1.11733113741660
H            7.94877926916256        0.59682063164525       -0.07589286903028
H            1.21567270500462       -2.29795306275675        1.01560971953580
H            0.05759597252523       -3.32254971728496       -0.84675543680593
H           -1.12522866487771       -5.40971332100783       -1.41579456734398
H           -3.42685470778787       -5.79981023011794       -0.67014912393928
H           -4.63930491168001       -4.09180570889180        0.64501203538186
H           -5.37779660206182       -1.83607851720105        2.06039925135929
H           -5.42649603805190        0.34249617253433        3.22996263603721
H           -3.43682352134503        1.77345646723474        3.29650165698066
H           -1.35855229562144        1.10844591909714        2.14906169842857
H           -1.35795483375464       -1.16025521710670       -2.10723316328118
H           -3.42712826432883       -1.84331195932751       -3.26127166070854
H           -5.42952530061745       -0.42954592875377       -3.19951306187429
H           -5.40122895958658        1.75268083898471       -2.03682364209210
H           -4.67492036613463        4.02934285658883       -0.63973005795654
H           -3.47769294356244        5.74555585096762        0.67768702068510
H           -1.18027459381640        5.36636976613546        1.44285348380475
H            0.01369266782587        3.28109811744651        0.89174933688440
H            1.19724073517714        2.27963152654975       -0.97367581160971

          :  Hamiltonian                  GFN2-xTB          :
         :: gradient norm              0.000066315387 Eh/a0 ::
         :: HOMO-LUMO gap              0.630953754991 eV    ::
         :: SCC energy              -114.816840705608 Eh    ::
         :: -> dispersion             -0.108688698122 Eh    ::
         :: -> Gsolv                  -0.056381181085 Eh    ::
         :: repulsion energy           1.808293397079 Eh    ::

    * Orbital Energies and Occupations

         #    Occupation            Energy/Eh            Energy/eV
      -------------------------------------------------------------
         1        2.0000           -0.7781372             -21.1742
       ...           ...                  ...                  ...
        92        2.0000           -0.4357362             -11.8570
        93        2.0000           -0.4340039             -11.8098
        94        2.0000           -0.4253001             -11.5730
        95        2.0000           -0.4235599             -11.5257
        96        2.0000           -0.4206327             -11.4460
        97        2.0000           -0.4200338             -11.4297
        98        2.0000           -0.4011806             -10.9167
        99        2.0000           -0.4009595             -10.9107
       100        2.0000           -0.3969751             -10.8022
       101        1.9987           -0.3903562             -10.6221
       102        1.9251           -0.3864619             -10.5162
       103        1.0762           -0.3817035             -10.3867
       104        1.0000           -0.2877194              -7.8292 (HOMO)
       105        0.0000           -0.2645323              -7.1983 (LUMO)
       106        0.0000           -0.2632157              -7.1625
       107                         -0.2542964              -6.9198
       108                         -0.2467563              -6.7146
       109                         -0.2400047              -6.5309
       110                         -0.2216937              -6.0326
       111                         -0.2152648              -5.8577
       112                         -0.2057585              -5.5990
       113                         -0.2049133              -5.5760
       114                         -0.1885908              -5.1318
       115                         -0.1385127              -3.7691
       ...                                ...                  ...
       200                          1.2047987              32.7842
      -------------------------------------------------------------
                  HL-Gap            0.0231871 Eh            0.6310 eV

     #   Z          covCN         q      C6AA      α(0)
     1   6 C        3.759    -0.116    22.770     6.803
     2   6 C        3.863     0.104    18.833     6.171
     3   6 C        3.758    -0.114    22.727     6.797
     4   6 C        3.767    -0.125    22.933     6.825
     5   7 N        2.758    -0.284    27.311     7.762
     6   6 C        2.924     0.249    22.846     7.838
     7   8 O        0.857    -0.501    23.809     6.542
     8   6 C        3.149    -0.064    29.298     8.854
     9   6 C        2.912    -0.035    28.878     8.812
    10   6 C        2.905     0.041    27.085     8.533
    11   7 N        2.801     0.002    21.222     6.842
    12   6 C        3.071     0.047    26.864     8.498
    13   6 C        2.909    -0.037    28.919     8.818
    14   6 C        2.922    -0.027    28.682     8.783
    15   6 C        2.920    -0.026    28.643     8.777
    16   6 C        2.911    -0.025    28.631     8.774
    17   6 C        3.065    -0.005    28.093     8.691
    18   6 C        3.063    -0.008    28.158     8.702
    19   6 C        2.912    -0.025    28.624     8.773
    20   6 C        2.920    -0.028    28.704     8.786
    21   6 C        2.922    -0.028    28.705     8.786
    22   6 C        2.910    -0.038    28.952     8.823
    23   6 C        3.073     0.042    26.985     8.517
    24   6 C        2.912     0.014    27.698     8.630
    25   7 N        2.797     0.008    21.108     6.824
    26   6 C        3.074     0.039    27.041     8.526
    27   6 C        2.909    -0.037    28.928     8.819
    28   6 C        2.922    -0.029    28.727     8.789
    29   6 C        2.920    -0.028    28.703     8.786
    30   6 C        2.912    -0.025    28.622     8.773
    31   6 C        3.062    -0.009    28.178     8.705
    32   6 C        3.064    -0.006    28.106     8.693
    33   6 C        2.911    -0.025    28.630     8.774
    34   6 C        2.920    -0.026    28.644     8.777
    35   6 C        2.922    -0.028    28.710     8.787
    36   6 C        2.909    -0.037    28.916     8.817
    37   6 C        3.073     0.044    26.932     8.509
    38   6 C        2.922    -0.032    28.788     8.799
    39   6 C        2.980    -0.119    31.015     9.135
    40  16 S        3.984     1.111   103.514    17.124
    41   8 O        0.860    -0.588    25.831     6.814
    42   8 O        0.860    -0.600    26.114     6.851
    43   1 H        0.925     0.065     2.138     2.287
    44   1 H        0.925     0.040     2.450     2.448
    45   1 H        0.925     0.054     2.269     2.355
    46   1 H        0.925     0.054     2.271     2.357
    47   1 H        0.925     0.057     2.234     2.337
    48   1 H        0.925     0.036     2.497     2.471
    49   1 H        0.925     0.049     2.337     2.391
    50   1 H        0.925     0.044     2.390     2.418
    51   1 H        0.925     0.059     2.215     2.328
    52   1 H        0.926     0.066     2.135     2.285
    53   1 H        0.926     0.044     2.391     2.418
    54   1 H        0.926     0.050     2.324     2.384
    55   1 H        0.926     0.053     2.283     2.363
    56   1 H        0.926     0.056     2.246     2.344
    57   1 H        0.926     0.055     2.258     2.350
    58   1 H        0.926     0.052     2.292     2.368
    59   1 H        0.926     0.049     2.333     2.389
    60   1 H        0.926     0.040     2.449     2.447
    61   1 H        0.926     0.039     2.461     2.453
    62   1 H        0.926     0.048     2.340     2.392
    63   1 H        0.926     0.052     2.296     2.370
    64   1 H        0.926     0.055     2.263     2.353
    65   1 H        0.926     0.056     2.251     2.346
    66   1 H        0.926     0.053     2.288     2.365
    67   1 H        0.926     0.049     2.334     2.389
    68   1 H        0.926     0.043     2.410     2.428
    69   1 H        0.926     0.056     2.250     2.346

molecular dipole:
                 x           y           z       tot (Debye)
 q only:       -6.778      -0.333       0.303
   full:       -6.243      -0.178       0.190      15.881

 projected vibrational frequencies (cm⁻¹)
eigval :       -0.00    -0.00    -0.00     0.00     0.00     0.00
eigval :       20.51    24.64    29.93    32.01    34.95    45.23
eigval :       49.88    58.90    85.55   102.15   106.97   118.44
eigval :      120.84   135.98   140.12   141.07   154.24   158.31
eigval :      179.29   195.12   205.55   209.46   236.57   244.50
eigval :      246.33   254.18   268.81   270.82   271.40   273.28
eigval :      294.12   310.74   316.61   345.45   361.81   366.29
eigval :      373.18   391.50   396.37   399.22   409.64   413.65
eigval :      416.46   421.18   433.29   435.65   459.26   465.87
eigval :      498.66   504.21   510.49   511.90   520.63   531.21
eigval :      533.23   540.76   545.22   550.38   554.53   565.53
eigval :      584.09   584.77   622.51   628.54   640.35   646.16
eigval :      662.46   669.39   673.54   694.44   707.18   709.59
eigval :      749.94   753.35   767.58   768.64   770.39   776.26
eigval :      777.31   828.64   852.92   865.36   870.48   873.55
eigval :      874.40   874.72   883.25   889.37   893.91   904.43
eigval :      905.50   907.70   908.25   919.02   919.47   923.95
eigval :      925.22   926.07   940.59   952.44   965.54   968.58
eigval :      996.46  1006.09  1009.83  1035.08  1045.70  1063.66
eigval :     1064.91  1065.66  1068.21  1074.75  1080.89  1102.44
eigval :     1115.69  1127.34  1132.19  1158.54  1160.04  1170.33
eigval :     1170.70  1174.20  1176.69  1181.54  1192.89  1214.98
eigval :     1218.38  1221.19  1221.46  1223.18  1231.88  1244.66
eigval :     1254.95  1258.09  1267.82  1277.43  1282.82  1287.23
eigval :     1312.94  1315.31  1321.78  1330.72  1361.56  1364.18
eigval :     1373.77  1384.04  1388.34  1391.32  1398.12  1401.32
eigval :     1414.02  1416.91  1422.47  1451.24  1453.31  1465.50
eigval :     1468.39  1474.40  1475.23  1481.01  1482.55  1486.73
eigval :     1491.49  1506.95  1535.14  1549.75  1555.47  1558.92
eigval :     1561.29  1564.84  1569.69  1585.94  1589.75  1592.75
eigval :     3024.52  3030.26  3033.03  3039.59  3042.76  3044.04
eigval :     3045.90  3050.45  3051.51  3085.98  3086.92  3088.11
eigval :     3088.39  3090.44  3091.75  3093.62  3093.87  3094.55
eigval :     3097.75  3098.05  3098.96  3100.60  3101.19  3104.13
eigval :     3104.69  3105.54  3106.16

   temp. (K)  partition function   enthalpy   heat capacity  entropy
                                   cal/mol     cal/K/mol   cal/K/mol   J/K/mol
 298.15  VIB  0.190E+15            20416.393    130.820    123.478
         ROT  0.432E+08              888.752      2.981     37.920
         INT  0.820E+22            21305.145    133.801    161.398
         TR   0.132E+29             1481.254      4.968     44.884
         TOT                       22786.3992   138.7690   206.2820   863.0837

       T/K    H(0)-H(T)+PV         H(T)/Eh          T*S/Eh         G(T)/Eh
   ------------------------------------------------------------------------
    298.15    0.363124E-01    0.557830E+00    0.980112E-01    0.459819E+00
   ------------------------------------------------------------------------

         :::::::::::::::::::::::::::::::::::::::::::::::::::::
         ::                  THERMODYNAMIC                  ::
         :::::::::::::::::::::::::::::::::::::::::::::::::::::
         :: total free energy        -112.548728666376 Eh   ::
         ::.................................................::
         :: total energy             -113.008547308492 Eh   ::
         :: zero point energy           0.521517416484 Eh   ::
         :: G(RRHO) w/o ZPVE           -0.061698774367 Eh   ::
         :: G(RRHO) contrib.            0.459818642117 Eh   ::
         :::::::::::::::::::::::::::::::::::::::::::::::::::::

           -------------------------------------------------
          | TOTAL ENERGY             -113.008547308492 Eh   |
          | TOTAL ENTHALPY           -112.450717453430 Eh   |
          | TOTAL FREE ENERGY        -112.548728666376 Eh   |
          | GRADIENT NORM               0.000065862700 Eh/α |
          | HOMO-LUMO GAP               0.630953657909 eV   |
           -------------------------------------------------

 * finished run on 2025/08/23 at 09:37:13.838
