   * xtb version 6.7.1 (edcfbbe) compiled by 'albert@albert-system' on 2024-07-22

   ID    Z sym.   atoms
    1    6 C      1-4, 6, 8-10, 12-24, 26-39
    2    7 N      5, 11, 25
    3    8 O      7, 41, 42
    4   16 S      40
    5    1 H      43-69

          program call               : xtb data2507/toluene/DiCz-Sac/DiCz-Sac.xyz --gfn 2 --gbsa toluene --ohess vtight --parallel 40 --molden --ceasefiles --namespace data2507/toluene/DiCz-Sac/DiCz-Sac_toluene_S0_preOpt
      * Solvation model:               GBSA
        Solvent                        toluene
        Solvent mass                       9.2140E+01 g/mol
          :  Hamiltonian                  GFN2-xTB          :
 * total energy  :  -113.0667412 Eh     change       -0.2143452E-08 Eh
 * total energy  :  -113.0841387 Eh     change       -0.1739750E-01 Eh
 * total energy  :  -113.0901235 Eh     change       -0.5984776E-02 Eh
 * total energy  :  -113.0917685 Eh     change       -0.1645012E-02 Eh
 * total energy  :  -113.0926783 Eh     change       -0.9097807E-03 Eh
 * total energy  :  -113.0930093 Eh     change       -0.3309847E-03 Eh
 * total energy  :  -113.0931718 Eh     change       -0.1625412E-03 Eh
 * total energy  :  -113.0932784 Eh     change       -0.1066100E-03 Eh
 * total energy  :  -113.0933686 Eh     change       -0.9014450E-04 Eh
 * total energy  :  -113.0934601 Eh     change       -0.9151189E-04 Eh
 * total energy  :  -113.0949127 Eh     change       -0.9393324E-06 Eh
 * total energy  :  -113.0949139 Eh     change       -0.1191568E-05 Eh
 * total energy  :  -113.0949152 Eh     change       -0.1287991E-05 Eh
 * total energy  :  -113.0949164 Eh     change       -0.1204258E-05 Eh
 * total energy  :  -113.0949172 Eh     change       -0.8630752E-06 Eh
 * total energy  :  -113.0949178 Eh     change       -0.5712927E-06 Eh
 * total energy  :  -113.0949183 Eh     change       -0.4579000E-06 Eh
 * total energy  :  -113.0949187 Eh     change       -0.4370279E-06 Eh
 * total energy  :  -113.0949187 Eh     change       -0.3563045E-08 Eh
   *** GEOMETRY OPTIMIZATION CONVERGED AFTER 68 ITERATIONS ***

 final structure:
================
69
 xtb: 6.7.1 (edcfbbe)
C            6.82125498688804        1.17178429046144        0.42629477916670
C            6.13575606616949       -0.09854711800520       -0.07260046156927
C            6.52329601063633       -1.28134224248379        0.81969270368923
C            6.52855832374884       -0.35554272469428       -1.53052170093359
N            4.67099025358717        0.09039561072295       -0.00052877239840
C            3.78132131354293       -0.86468115695981       -0.39239590804909
O            4.06097540323349       -1.95471825658666       -0.85258976878946
C            2.39239229605999       -0.39415803293587       -0.17518869898088
C            1.24699464689892       -1.09876842113981       -0.50634038860442
C           -0.00415429760327       -0.53588395117727       -0.25781484684165
N           -1.15215497269666       -1.22526921205711       -0.63563890557049
C           -2.22484254018203       -0.69509355060699       -1.33807224463092
C           -2.32544727655001        0.51583492913285       -2.00444672275527
C           -3.51246695005520        0.79615290666949       -2.65595377906831
C           -4.56574932456327       -0.11388056029481       -2.66644665333123
C           -4.44610969120159       -1.34684586270886       -2.05443929336540
C           -3.26354772971554       -1.64829738321041       -1.39302027717229
C           -2.78655482916258       -2.81685732378922       -0.70293228880917
C           -3.35269459891991       -4.05311546890707       -0.42211061700332
C           -2.61084083799228       -4.97394152333272        0.29226907940925
C           -1.32635047480084       -4.66947223520812        0.73470286420969
C           -0.74307775650465       -3.44353229836142        0.46838212092296
C           -1.47716089260007       -2.52416738950862       -0.26466713158648
C           -0.09435931691214        0.73627531885518        0.36494919091037
N           -1.32683937493242        1.29448272948127        0.68002309801644
C           -1.77118600691350        2.55254000623794        0.29063774284837
C           -1.10590907460468        3.54640280466759       -0.41028047447185
C           -1.80495811001125        4.70260802631396       -0.70886431408027
C           -3.13424813915597        4.86615643910257       -0.32901843856411
C           -3.80605693453769        3.86961452781603        0.35259394029795
C           -3.12420008184370        2.70108288820887        0.66417009941904
C           -3.50538110792038        1.48628521606299        1.33440196147472
C           -4.67821647169326        1.05868513358560        1.94124753740559
C           -4.69300269660564       -0.18098901658947        2.55156697956076
C           -3.54902574292503       -0.97284241783181        2.59321375664339
C           -2.36992011619098       -0.56568419228061        1.99636281454912
C           -2.36928187710216        0.65012104504299        1.33177099185552
C            1.07495371844497        1.44030443980791        0.67482026702564
C            2.28874819647988        0.86390356276568        0.39528438361987
S            3.93115068775494        1.48082732750389        0.66088075134489
O            4.24162364066996        1.59017340242761        2.05642221331284
O            4.19894518152740        2.62531033646422       -0.15983729035436
H            6.54630304927331        1.37819573450111        1.45725960138173
H            6.53731314953234        2.02639144833569       -0.18214321822253
H            7.89858349104931        1.04040654966671        0.36907790011569
H            7.60094621823399       -1.41453917028503        0.79970206346521
H            6.20853896890221       -1.09297140678705        1.84407359209927
H            6.04980690641874       -2.19314225230488        0.46540566097345
H            6.05892113583249       -1.26466162563144       -1.89580550499631
H            7.60686811678280       -0.46395188921596       -1.60089113817052
H            6.21562391472229        0.47946089299503       -2.15367061729440
H            1.32985399743194       -2.05978751026067       -0.99007674715563
H           -1.50438859513845        1.21539218515423       -2.03243731260470
H           -3.61897975645139        1.73968410526020       -3.17004296078715
H           -5.47991591134179        0.14295834370351       -3.18038644212469
H           -5.24939562031240       -2.06642325161024       -2.09420926025751
H           -4.35363692132516       -4.28336628015912       -0.75331482563384
H           -3.03121617606344       -5.94238932143532        0.51887172373030
H           -0.77212172070888       -5.40397540060265        1.30002973973933
H            0.24852932718744       -3.21571850546309        0.82992197662693
H           -0.07935918817756        3.42775075140050       -0.72437209188845
H           -1.30663141833671        5.49294046726142       -1.25039447501830
H           -3.64533433977963        5.78379936999124       -0.57907963080677
H           -4.84049842134566        3.99059852189941        0.63488265432562
H           -5.55524271798519        1.68741944725982        1.94133055988847
H           -5.59722851551088       -0.53513325410477        3.02349605067854
H           -3.57757309038574       -1.92314241941154        3.10497328040396
H           -1.48087323787340       -1.17322612857476        2.06323814600668
H            1.01788585361806        2.40211899575496        1.15858397676746

          :  Hamiltonian                  GFN2-xTB          :
         :: gradient norm              0.000048997380 Eh/a0 ::
         :: HOMO-LUMO gap              1.996958788572 eV    ::
         :: SCC energy              -114.926301664616 Eh    ::
         :: -> dispersion             -0.108821342697 Eh    ::
         :: -> Gsolv                  -0.043360196508 Eh    ::
         :: repulsion energy           1.831382964067 Eh    ::

    * Orbital Energies and Occupations

         #    Occupation            Energy/Eh            Energy/eV
      -------------------------------------------------------------
         1        2.0000           -0.8054792             -21.9182
       ...           ...                  ...                  ...
        91        2.0000           -0.4295255             -11.6880
        92        2.0000           -0.4273385             -11.6285
        93        2.0000           -0.4270806             -11.6215
        94        2.0000           -0.4264971             -11.6056
        95        2.0000           -0.4258541             -11.5881
        96        2.0000           -0.4247426             -11.5578
        97        2.0000           -0.4195515             -11.4166
        98        2.0000           -0.4136075             -11.2548
        99        2.0000           -0.4123736             -11.2213
       100        2.0000           -0.3893341             -10.5943
       101        2.0000           -0.3853281             -10.4853
       102        2.0000           -0.3791599             -10.3175
       103        2.0000           -0.3754717             -10.2171 (HOMO)
       104                         -0.3020848              -8.2201 (LUMO)
       105                         -0.2790348              -7.5929
       106                         -0.2538026              -6.9063
       107                         -0.2522499              -6.8641
       108                         -0.2336562              -6.3581
       109                         -0.2271855              -6.1820
       110                         -0.2265724              -6.1653
       111                         -0.2042731              -5.5586
       112                         -0.1967186              -5.3530
       113                         -0.1949067              -5.3037
       114                         -0.1935564              -5.2669
       ...                                ...                  ...
       200                          1.2227980              33.2740
      -------------------------------------------------------------
                  HL-Gap            0.0733869 Eh            1.9970 eV

     #   Z          covCN         q      C6AA      α(0)
     1   6 C        3.766    -0.134    23.123     6.853
     2   6 C        3.855     0.099    18.913     6.185
     3   6 C        3.758    -0.121    22.866     6.817
     4   6 C        3.759    -0.121    22.872     6.818
     5   7 N        2.753    -0.262    26.781     7.686
     6   6 C        2.925     0.278    22.308     7.746
     7   8 O        0.857    -0.424    22.167     6.312
     8   6 C        3.158    -0.036    28.581     8.740
     9   6 C        2.921    -0.028    28.693     8.784
    10   6 C        2.910     0.060    26.651     8.465
    11   7 N        2.800    -0.035    21.917     6.953
    12   6 C        3.068     0.045    26.933     8.510
    13   6 C        2.910    -0.049    29.205     8.861
    14   6 C        2.924    -0.031    28.784     8.798
    15   6 C        2.920    -0.038    28.940     8.822
    16   6 C        2.913    -0.032    28.795     8.799
    17   6 C        3.065    -0.013    28.269     8.719
    18   6 C        3.066    -0.012    28.249     8.715
    19   6 C        2.913    -0.031    28.779     8.797
    20   6 C        2.920    -0.038    28.947     8.823
    21   6 C        2.924    -0.031    28.785     8.798
    22   6 C        2.910    -0.050    29.251     8.868
    23   6 C        3.066     0.046    26.911     8.507
    24   6 C        2.915     0.063    26.596     8.457
    25   7 N        2.800    -0.034    21.890     6.949
    26   6 C        3.065     0.045    26.931     8.510
    27   6 C        2.910    -0.051    29.261     8.870
    28   6 C        2.924    -0.031    28.782     8.798
    29   6 C        2.920    -0.038    28.935     8.821
    30   6 C        2.913    -0.031    28.770     8.796
    31   6 C        3.066    -0.011    28.231     8.713
    32   6 C        3.065    -0.012    28.256     8.717
    33   6 C        2.913    -0.032    28.786     8.798
    34   6 C        2.920    -0.037    28.926     8.820
    35   6 C        2.924    -0.031    28.772     8.796
    36   6 C        2.910    -0.048    29.188     8.859
    37   6 C        3.067     0.045    26.933     8.510
    38   6 C        2.928    -0.033    28.827     8.805
    39   6 C        2.984    -0.103    30.586     9.072
    40  16 S        3.979     1.158   102.244    17.018
    41   8 O        0.860    -0.568    25.354     6.751
    42   8 O        0.860    -0.566    25.305     6.745
    43   1 H        0.925     0.052     2.294     2.369
    44   1 H        0.925     0.053     2.280     2.362
    45   1 H        0.925     0.070     2.083     2.257
    46   1 H        0.925     0.066     2.131     2.283
    47   1 H        0.925     0.044     2.395     2.420
    48   1 H        0.925     0.062     2.170     2.304
    49   1 H        0.925     0.065     2.147     2.291
    50   1 H        0.925     0.066     2.132     2.283
    51   1 H        0.925     0.045     2.385     2.415
    52   1 H        0.926     0.090     1.883     2.146
    53   1 H        0.926     0.026     2.646     2.544
    54   1 H        0.926     0.037     2.492     2.468
    55   1 H        0.926     0.038     2.473     2.459
    56   1 H        0.926     0.041     2.432     2.439
    57   1 H        0.926     0.041     2.435     2.440
    58   1 H        0.926     0.038     2.479     2.462
    59   1 H        0.926     0.038     2.476     2.460
    60   1 H        0.926     0.030     2.583     2.513
    61   1 H        0.926     0.029     2.602     2.522
    62   1 H        0.926     0.039     2.468     2.457
    63   1 H        0.926     0.039     2.462     2.454
    64   1 H        0.926     0.042     2.416     2.431
    65   1 H        0.926     0.042     2.418     2.432
    66   1 H        0.926     0.039     2.457     2.451
    67   1 H        0.926     0.038     2.474     2.459
    68   1 H        0.926     0.027     2.624     2.533
    69   1 H        0.926     0.078     2.002     2.212

molecular dipole:
                 x           y           z       tot (Debye)
 q only:       -1.881      -0.514      -0.240
   full:       -1.561      -0.346      -0.165       4.086

 projected vibrational frequencies (cm⁻¹)
eigval :       -0.00    -0.00    -0.00    -0.00     0.00     0.00
eigval :       20.34    21.66    24.04    30.82    36.20    42.32
eigval :       47.50    60.64    87.02   102.47   105.05   118.55
eigval :      123.02   132.97   138.35   144.62   155.43   160.35
eigval :      185.68   199.80   206.62   207.98   238.70   245.93
eigval :      249.19   250.82   268.72   274.18   275.80   277.12
eigval :      297.99   308.07   316.20   351.99   364.47   375.74
eigval :      395.64   402.52   406.35   408.23   419.21   421.17
eigval :      429.75   430.65   442.26   443.10   469.29   480.15
eigval :      503.49   515.71   517.36   520.00   525.83   535.50
eigval :      541.94   542.69   549.32   552.52   559.92   585.64
eigval :      587.69   597.43   628.20   649.63   670.98   672.40
eigval :      675.47   688.03   703.19   708.28   710.37   713.53
eigval :      752.74   755.77   769.72   773.54   774.25   782.20
eigval :      785.21   828.82   865.43   870.48   876.32   877.67
eigval :      879.51   884.15   893.21   894.62   898.36   904.94
eigval :      906.77   906.94   911.09   923.51   924.80   925.06
eigval :      928.58   944.69   947.10   954.05   967.28   981.87
eigval :     1007.61  1012.06  1016.35  1036.86  1047.26  1070.32
eigval :     1071.43  1073.45  1075.59  1088.04  1108.47  1113.45
eigval :     1146.88  1150.94  1152.77  1166.98  1177.39  1178.58
eigval :     1179.68  1180.27  1192.69  1200.22  1213.67  1231.07
eigval :     1233.28  1233.98  1234.94  1243.84  1245.00  1255.07
eigval :     1268.15  1288.76  1291.08  1295.05  1296.99  1313.74
eigval :     1327.29  1354.20  1355.76  1357.85  1358.60  1366.28
eigval :     1389.85  1395.47  1409.24  1417.82  1419.56  1422.86
eigval :     1425.56  1426.81  1465.84  1468.10  1471.00  1471.60
eigval :     1480.97  1482.09  1483.89  1484.30  1486.02  1487.89
eigval :     1504.20  1541.79  1565.24  1576.45  1576.93  1589.98
eigval :     1590.30  1597.81  1598.30  1610.10  1611.14  1700.58
eigval :     3032.05  3034.74  3040.99  3048.17  3051.60  3052.45
eigval :     3053.90  3055.02  3058.20  3075.94  3076.95  3079.90
eigval :     3080.63  3081.97  3082.33  3085.58  3087.06  3089.29
eigval :     3090.14  3093.16  3094.87  3097.30  3098.72  3100.16
eigval :     3101.39  3106.44  3112.02

   temp. (K)  partition function   enthalpy   heat capacity  entropy
                                   cal/mol     cal/K/mol   cal/K/mol   J/K/mol
 298.15  VIB  0.214E+15            20172.630    128.958    122.230
         ROT  0.434E+08              888.752      2.981     37.930
         INT  0.928E+22            21061.383    131.939    160.160
         TR   0.132E+29             1481.254      4.968     44.884
         TOT                       22542.6366   136.9069   205.0437   857.9029

       T/K    H(0)-H(T)+PV         H(T)/Eh          T*S/Eh         G(T)/Eh
   ------------------------------------------------------------------------
    298.15    0.359240E-01    0.561641E+00    0.974229E-01    0.464218E+00
   ------------------------------------------------------------------------

         :::::::::::::::::::::::::::::::::::::::::::::::::::::
         ::                  THERMODYNAMIC                  ::
         :::::::::::::::::::::::::::::::::::::::::::::::::::::
         :: total free energy        -112.630700845163 Eh   ::
         ::.................................................::
         :: total energy             -113.094918700351 Eh   ::
         :: zero point energy           0.525716760043 Eh   ::
         :: G(RRHO) w/o ZPVE           -0.061498904856 Eh   ::
         :: G(RRHO) contrib.            0.464217855188 Eh   ::
         :::::::::::::::::::::::::::::::::::::::::::::::::::::

           -------------------------------------------------
          | TOTAL ENERGY             -113.094918700351 Eh   |
          | TOTAL ENTHALPY           -112.533277962303 Eh   |
          | TOTAL FREE ENERGY        -112.630700845163 Eh   |
          | GRADIENT NORM               0.000048994106 Eh/α |
          | HOMO-LUMO GAP               1.996959487667 eV   |
           -------------------------------------------------

 * finished run on 2025/08/23 at 09:33:17.058
