   * xtb version 6.7.1 (edcfbbe) compiled by 'albert@albert-system' on 2024-07-22

   ID    Z sym.   atoms
    1    6 C      1-9, 11-23, 25-29, 31, 32, 34-38, 40-49, 51-59
    2    7 N      10, 24, 30, 33, 39, 50
    3    1 H      60-93

          program call               : xtb data2507/gas/ACID–BPPZ/ACID–BPPZ.xyz --gfn 2 --ohess vtight --parallel 40 --molden --ceasefiles --namespace data2507/gas/ACID–BPPZ/ACID–BPPZ_gas_S0_preOpt
          :  Hamiltonian                  GFN2-xTB          :
 * total energy  :  -148.4652450 Eh     change       -0.4027015E-08 Eh
 * total energy  :  -148.4929265 Eh     change       -0.2768148E-01 Eh
 * total energy  :  -148.5016482 Eh     change       -0.8721779E-02 Eh
 * total energy  :  -148.5036956 Eh     change       -0.2047409E-02 Eh
 * total energy  :  -148.5044793 Eh     change       -0.7836658E-03 Eh
 * total energy  :  -148.5047332 Eh     change       -0.2538916E-03 Eh
 * total energy  :  -148.5048683 Eh     change       -0.1350801E-03 Eh
 * total energy  :  -148.5049382 Eh     change       -0.6987020E-04 Eh
 * total energy  :  -148.5049809 Eh     change       -0.4274337E-04 Eh
 * total energy  :  -148.5050169 Eh     change       -0.3596389E-04 Eh
 * total energy  :  -148.5054048 Eh     change       -0.3095918E-05 Eh
 * total energy  :  -148.5054065 Eh     change       -0.1758079E-05 Eh
 * total energy  :  -148.5054071 Eh     change       -0.5755448E-06 Eh
 * total energy  :  -148.5054086 Eh     change       -0.1515257E-05 Eh
 * total energy  :  -148.5054091 Eh     change       -0.4649607E-06 Eh
 * total energy  :  -148.5054093 Eh     change       -0.1919549E-06 Eh
 * total energy  :  -148.5054095 Eh     change       -0.2143710E-06 Eh
 * total energy  :  -148.5054097 Eh     change       -0.2112136E-06 Eh
 * total energy  :  -148.5054097 Eh     change       -0.2612958E-07 Eh
   *** GEOMETRY OPTIMIZATION CONVERGED AFTER 128 ITERATIONS ***

 final structure:
================
93
 xtb: 6.7.1 (edcfbbe)
C           -5.20412875250632       -2.82459003331364        1.03613108573336
C           -4.32682377819122       -2.59277271985897       -0.20829974034931
C           -5.14639568064621       -2.83221223942487       -1.48999751386309
C           -3.17624081785690       -3.57956453204101       -0.18221244330501
C           -3.44746443818875       -4.94087968949227       -0.20685913360084
C           -2.44356145545461       -5.89064119214292       -0.22119680154526
C           -1.12420790416039       -5.47564790643475       -0.23264477235436
C           -0.82665693962842       -4.13008626884375       -0.20429608705554
C           -1.83997614057914       -3.16672396941426       -0.15383948240496
N           -1.51240759274109       -1.82118354412577       -0.10729014275905
C           -0.14777302608554       -1.44249248831959       -0.06703095225112
C            0.44159616645578       -0.83069613405440       -1.17677185282207
C            1.76395128378039       -0.46828538955737       -1.12133480164438
C            2.52956006611009       -0.70993238238792        0.02463380525950
C            1.95027238920057       -1.33441403928441        1.14857569094291
C            0.59829073991847       -1.68232294401302        1.07224057829131
C            2.75526752778756       -1.59241386325341        2.33231535071705
C            2.24036165423890       -2.22430848912649        3.47091406820882
C            3.02465915797444       -2.45851156237114        4.57839182084042
C            4.36009639180082       -2.06961820467056        4.59252122828757
C            4.89458785788495       -1.45005500553371        3.48812454550765
C            4.11083461628340       -1.20655485754134        2.35629001272980
C            4.69939602587359       -0.55965282435072        1.20753832384934
N            5.97801340526405       -0.20143269620248        1.25205954633064
C            6.50361575032087        0.38969423854377        0.18444955949300
C            7.89026799725921        0.78656086101544        0.21184248735345
C            8.69578632962972        0.56660339809895        1.33445699659275
C           10.01214793628577        0.96728494328909        1.30105872998209
C           10.48574684770647        1.57935665746009        0.13852985157586
N            9.74815358960232        1.79465468417420       -0.92376846270393
C            8.47078778430506        1.41359034558841       -0.90966186398216
C            7.66902908144782        1.66107027084971       -2.09551662430697
N            8.25356144724921        2.25528353608608       -3.13585895644891
C            7.54469505885374        2.48729701463229       -4.21409024178459
C            6.19646932857329        2.14727022031425       -4.34429527614226
C            5.57558208498688        1.53265048686757       -3.28064852958462
C            6.31328244372476        1.27466173299813       -2.12015995358805
C            5.72081953042805        0.63211863320283       -0.97197927602764
N            4.44206516118765        0.27535381953169       -1.01662831886821
C            3.91655652162317       -0.31645590729651        0.05166603316612
C           -2.48216920451756       -0.82189844850306       -0.11857659889469
C           -2.08680359167103        0.50974216114031       -0.00794384368057
C           -3.03921743992583        1.51242646614043       -0.05078090600554
C           -2.97389160693692        2.94374355250798        0.03509417675707
C           -1.92612162327930        3.84551472868365        0.16139399973533
C           -2.21443670187331        5.19539593771170        0.18470866234147
C           -3.52646036217240        5.64863058852289        0.06659612140317
C           -4.58574360092339        4.77057933486779       -0.06110786398128
C           -4.30621014920971        3.41136966259036       -0.05855982919397
N           -5.16070263322339        2.33595758773991       -0.19644293252928
C           -6.55298568303436        2.39508798307134       -0.32574985786401
C           -7.31033981633994        3.15712169249341        0.55989990952396
C           -8.68499135394672        3.21093226620725        0.42442869573273
C           -9.31742115146567        2.49971609791634       -0.58183857592057
C           -8.56667857722234        1.73603711588213       -1.46030667727290
C           -7.19064170764097        1.68539303029014       -1.34036603717898
C           -4.40048590990616        1.17972926935179       -0.19463751027010
C           -4.79786748001583       -0.14443654598795       -0.23244451624063
C           -3.84727972157508       -1.15352472057870       -0.19672813904151
H           -4.62067616827259       -2.64583956792257        1.93741608954571
H           -6.05823286995408       -2.15292334053040        1.04247211839568
H           -5.57411896322660       -3.84569489457924        1.06425755680643
H           -5.50806313866587       -3.85551162525954       -1.53458806319524
H           -6.00527381250262       -2.16818135657885       -1.53320885689072
H           -4.52479922778985       -2.65029222101924       -2.36481099862411
H           -4.47328172328183       -5.27722497765203       -0.21749256370687
H           -2.69004133776560       -6.94126793770136       -0.23608462497757
H           -0.32230053435527       -6.19807913658043       -0.26707878761897
H            0.20630855523502       -3.81929315944250       -0.22962623990682
H           -0.15131741679332       -0.64924852715798       -2.06050143004835
H            2.24763822203121        0.00533113936778       -1.96061716692666
H            0.10041095724473       -2.15411453719049        1.90433110521811
H            1.21056279286086       -2.54248018536832        3.49592208057281
H            2.59788173371000       -2.94856257734159        5.44115323785110
H            4.96941518749008       -2.25561139525166        5.46417820579831
H            5.92656694174535       -1.13792785350771        3.46423598016993
H            8.26287506112407        0.08761165343288        2.19935869508462
H           10.66553976743787        0.81567969702206        2.14634161983841
H           11.51376099296341        1.91085083287205        0.06635985023566
H            8.07487820152719        2.97108044377544       -5.02445592839470
H            5.66202126430663        2.36322223084418       -5.25651894711518
H            4.53640741557594        1.24277011752348       -3.31203145877990
H           -1.04809969512598        0.76854921289210        0.11982019194100
H           -0.90827465134548        3.49242228292044        0.23475493000818
H           -1.41466496214701        5.91400362863287        0.28544197058052
H           -3.72020475010286        6.71125678726219        0.07075198768064
H           -5.59602956536373        5.13464252737020       -0.17223168468751
H           -6.81701221897650        3.69053256520815        1.35858271832046
H           -9.26657741005360        3.80431329927673        1.11449227208902
H          -10.39154735696058        2.54058940431159       -0.68132809328582
H           -9.05484351298254        1.18367328022915       -2.24982059900093
H           -6.60000165206352        1.11169894429434       -2.03905091608485
H           -5.84827546030193       -0.38549247381803       -0.27441601585032

          :  Hamiltonian                  GFN2-xTB          :
         :: gradient norm              0.000167506312 Eh/a0 ::
         :: HOMO-LUMO gap              1.052790429449 eV    ::
         :: SCC energy              -151.192809824312 Eh    ::
         :: -> dispersion             -0.139455237950 Eh    ::
         :: repulsion energy           2.687400105651 Eh    ::

    * Orbital Energies and Occupations

         #    Occupation            Energy/Eh            Energy/eV
      -------------------------------------------------------------
         1        2.0000           -0.6809681             -18.5301
       ...           ...                  ...                  ...
       126        2.0000           -0.4092347             -11.1358
       127        2.0000           -0.4067498             -11.0682
       128        2.0000           -0.4048728             -11.0171
       129        2.0000           -0.4028378             -10.9618
       130        2.0000           -0.3961541             -10.7799
       131        2.0000           -0.3932506             -10.7009
       132        2.0000           -0.3914626             -10.6522
       133        2.0000           -0.3780742             -10.2879
       134        2.0000           -0.3655129              -9.9461
       135        2.0000           -0.3652005              -9.9376
       136        2.0000           -0.3641682              -9.9095
       137        2.0000           -0.3558849              -9.6841
       138        2.0000           -0.3384890              -9.2108 (HOMO)
       139                         -0.2997996              -8.1580 (LUMO)
       140                         -0.2840758              -7.7301
       141                         -0.2707855              -7.3684
       142                         -0.2590007              -7.0478
       143                         -0.2531787              -6.8893
       144                         -0.2434365              -6.6242
       145                         -0.2328995              -6.3375
       146                         -0.2317764              -6.3070
       147                         -0.2290912              -6.2339
       148                         -0.2216354              -6.0310
       149                         -0.2166838              -5.8963
       ...                                ...                  ...
       270                          0.7518956              20.4601
      -------------------------------------------------------------
                  HL-Gap            0.0386894 Eh            1.0528 eV

     #   Z          covCN         q      C6AA      α(0)
     1   6 C        3.761    -0.102    22.504     6.762
     2   6 C        3.910     0.022    20.141     6.379
     3   6 C        3.761    -0.102    22.502     6.762
     4   6 C        2.980    -0.015    28.379     8.738
     5   6 C        2.928    -0.037    28.908     8.817
     6   6 C        2.917    -0.045    29.127     8.850
     7   6 C        2.920    -0.033    28.827     8.804
     8   6 C        2.924    -0.060    29.486     8.905
     9   6 C        2.926     0.058    26.701     8.474
    10   7 N        2.755    -0.070    22.599     7.060
    11   6 C        2.926     0.072    26.394     8.425
    12   6 C        2.918    -0.039    28.962     8.825
    13   6 C        2.923    -0.027    28.685     8.783
    14   6 C        2.988    -0.004    28.116     8.698
    15   6 C        2.976     0.007    27.854     8.657
    16   6 C        2.925    -0.045    29.115     8.849
    17   6 C        2.977     0.007    27.852     8.657
    18   6 C        2.922    -0.032    28.810     8.802
    19   6 C        2.918    -0.026    28.659     8.779
    20   6 C        2.917    -0.028    28.690     8.784
    21   6 C        2.924    -0.026    28.656     8.779
    22   6 C        2.988     0.000    28.019     8.683
    23   6 C        2.963     0.081    26.198     8.396
    24   7 N        1.849    -0.239    27.098     7.715
    25   6 C        2.960     0.077    26.270     8.407
    26   6 C        2.983    -0.011    28.294     8.725
    27   6 C        2.928    -0.010    28.277     8.721
    28   6 C        2.912    -0.039    28.959     8.824
    29   6 C        2.907     0.063    26.590     8.455
    30   7 N        1.841    -0.201    26.185     7.583
    31   6 C        2.972     0.084    26.132     8.385
    32   6 C        2.972     0.084    26.131     8.385
    33   7 N        1.841    -0.201    26.184     7.583
    34   6 C        2.907     0.063    26.589     8.455
    35   6 C        2.912    -0.039    28.958     8.824
    36   6 C        2.928    -0.010    28.274     8.720
    37   6 C        2.982    -0.011    28.295     8.726
    38   6 C        2.960     0.078    26.261     8.405
    39   7 N        1.849    -0.240    27.121     7.718
    40   6 C        2.963     0.081    26.197     8.395
    41   6 C        2.925     0.049    26.907     8.507
    42   6 C        2.918    -0.064    29.586     8.920
    43   6 C        3.066    -0.019    28.423     8.742
    44   6 C        3.070    -0.018    28.382     8.735
    45   6 C        2.912    -0.033    28.823     8.804
    46   6 C        2.920    -0.042    29.033     8.836
    47   6 C        2.924    -0.034    28.845     8.808
    48   6 C        2.910    -0.052    29.280     8.873
    49   6 C        3.077     0.047    26.873     8.499
    50   7 N        2.802    -0.045    22.112     6.984
    51   6 C        2.913     0.065    26.540     8.448
    52   6 C        2.922    -0.043    29.076     8.843
    53   6 C        2.920    -0.028    28.706     8.786
    54   6 C        2.919    -0.034    28.853     8.809
    55   6 C        2.920    -0.029    28.717     8.788
    56   6 C        2.923    -0.044    29.085     8.844
    57   6 C        3.075     0.036    27.119     8.538
    58   6 C        2.918    -0.057    29.427     8.896
    59   6 C        2.981    -0.014    28.367     8.737
    60   1 H        0.925     0.031     2.570     2.507
    61   1 H        0.925     0.037     2.484     2.465
    62   1 H        0.925     0.040     2.455     2.450
    63   1 H        0.925     0.039     2.457     2.451
    64   1 H        0.925     0.037     2.486     2.466
    65   1 H        0.925     0.031     2.565     2.505
    66   1 H        0.926     0.029     2.606     2.524
    67   1 H        0.926     0.025     2.658     2.549
    68   1 H        0.926     0.026     2.642     2.542
    69   1 H        0.926     0.023     2.681     2.561
    70   1 H        0.926     0.045     2.379     2.412
    71   1 H        0.926     0.061     2.191     2.315
    72   1 H        0.926     0.046     2.376     2.411
    73   1 H        0.926     0.038     2.471     2.458
    74   1 H        0.926     0.036     2.499     2.472
    75   1 H        0.926     0.037     2.487     2.466
    76   1 H        0.926     0.056     2.243     2.342
    77   1 H        0.926     0.056     2.240     2.341
    78   1 H        0.926     0.040     2.443     2.444
    79   1 H        0.925     0.046     2.371     2.408
    80   1 H        0.925     0.046     2.370     2.407
    81   1 H        0.926     0.041     2.440     2.443
    82   1 H        0.926     0.057     2.240     2.340
    83   1 H        0.926     0.028     2.608     2.526
    84   1 H        0.926     0.028     2.613     2.528
    85   1 H        0.926     0.027     2.636     2.539
    86   1 H        0.926     0.028     2.617     2.530
    87   1 H        0.926     0.027     2.633     2.537
    88   1 H        0.926     0.040     2.449     2.447
    89   1 H        0.926     0.035     2.517     2.481
    90   1 H        0.926     0.034     2.533     2.489
    91   1 H        0.926     0.035     2.523     2.484
    92   1 H        0.926     0.040     2.453     2.449
    93   1 H        0.926     0.031     2.566     2.505

molecular dipole:
                 x           y           z       tot (Debye)
 q only:       -1.041      -0.305       0.413
   full:       -1.600      -0.553       0.695       4.652

 projected vibrational frequencies (cm⁻¹)
eigval :       -0.00    -0.00     0.00     0.00     0.00     0.00
eigval :        7.16     8.62     9.50    17.12    27.81    33.06
eigval :       43.09    48.90    55.59    64.89    69.62    74.68
eigval :       75.92    83.54    90.79    99.87   102.33   110.44
eigval :      121.49   127.32   130.16   142.53   170.98   181.69
eigval :      187.43   189.48   195.05   199.05   205.28   218.51
eigval :      224.95   235.52   238.68   263.43   269.28   276.31
eigval :      292.11   295.02   314.63   319.26   338.22   342.37
eigval :      362.76   364.95   378.43   381.25   381.56   382.64
eigval :      388.54   398.65   400.17   400.96   406.45   421.42
eigval :      424.90   435.83   441.09   444.86   451.70   461.64
eigval :      477.43   492.34   494.90   507.61   522.21   525.39
eigval :      528.72   531.82   537.69   540.88   546.38   560.53
eigval :      574.34   586.57   592.59   594.43   596.85   603.41
eigval :      606.27   628.11   636.47   637.51   644.84   651.08
eigval :      658.03   667.26   675.05   676.99   689.36   695.13
eigval :      698.69   702.92   704.30   708.16   711.42   719.27
eigval :      735.17   759.80   761.81   765.38   773.42   775.52
eigval :      777.34   780.00   794.40   801.10   809.55   814.79
eigval :      825.83   833.98   842.52   865.14   868.11   868.74
eigval :      874.00   879.35   886.79   889.44   901.93   907.06
eigval :      913.33   914.05   915.83   916.31   917.62   921.27
eigval :      921.67   922.75   925.15   926.30   928.95   929.10
eigval :      933.51   934.64   936.62   948.82   956.68   992.87
eigval :      997.66  1014.89  1018.87  1032.95  1037.03  1063.20
eigval :     1072.04  1080.08  1082.81  1089.71  1089.92  1094.85
eigval :     1096.51  1102.74  1118.39  1120.01  1127.03  1136.38
eigval :     1140.50  1148.43  1156.90  1158.19  1158.64  1175.32
eigval :     1177.09  1179.34  1179.98  1181.59  1187.02  1189.06
eigval :     1195.85  1216.00  1217.71  1225.96  1236.92  1239.57
eigval :     1246.96  1255.78  1263.79  1264.46  1271.81  1275.88
eigval :     1280.83  1285.05  1288.46  1292.38  1302.18  1306.35
eigval :     1318.63  1321.62  1321.88  1323.92  1330.93  1337.87
eigval :     1339.61  1355.50  1358.63  1363.63  1374.81  1381.58
eigval :     1394.28  1400.18  1403.07  1410.33  1420.26  1426.30
eigval :     1428.09  1430.55  1435.64  1440.78  1446.38  1449.84
eigval :     1456.64  1460.86  1463.16  1484.22  1485.19  1486.31
eigval :     1490.14  1492.14  1492.74  1496.95  1501.76  1505.70
eigval :     1507.20  1535.05  1550.03  1551.59  1564.81  1565.33
eigval :     1565.96  1578.61  1580.45  1582.12  1583.34  1589.51
eigval :     1596.08  1596.52  1599.00  1603.31  1621.01  3026.28
eigval :     3028.56  3038.47  3041.35  3048.31  3052.62  3053.95
eigval :     3054.45  3075.25  3077.58  3077.74  3079.39  3079.65
eigval :     3080.33  3082.13  3087.51  3087.60  3087.67  3090.01
eigval :     3090.27  3092.53  3093.62  3094.07  3094.85  3096.20
eigval :     3098.85  3099.06  3099.31  3101.03  3102.03  3108.07
eigval :     3111.02  3112.52  3112.70

   temp. (K)  partition function   enthalpy   heat capacity  entropy
                                   cal/mol     cal/K/mol   cal/K/mol   J/K/mol
 298.15  VIB  0.313E+21            26673.253    171.572    165.651
         ROT  0.168E+09              888.752      2.981     40.621
         INT  0.527E+29            27562.005    174.553    206.272
         TR   0.201E+29             1481.254      4.968     45.723
         TOT                       29043.2590   179.5214   251.9945  1054.3448

       T/K    H(0)-H(T)+PV         H(T)/Eh          T*S/Eh         G(T)/Eh
   ------------------------------------------------------------------------
    298.15    0.462834E-01    0.754632E+00    0.119731E+00    0.634902E+00
   ------------------------------------------------------------------------

         :::::::::::::::::::::::::::::::::::::::::::::::::::::
         ::                  THERMODYNAMIC                  ::
         :::::::::::::::::::::::::::::::::::::::::::::::::::::
         :: total free energy        -147.870508058900 Eh   ::
         ::.................................................::
         :: total energy             -148.505409718659 Eh   ::
         :: zero point energy           0.708348977123 Eh   ::
         :: G(RRHO) w/o ZPVE           -0.073447317364 Eh   ::
         :: G(RRHO) contrib.            0.634901659759 Eh   ::
         :::::::::::::::::::::::::::::::::::::::::::::::::::::

           -------------------------------------------------
          | TOTAL ENERGY             -148.505409718659 Eh   |
          | TOTAL ENTHALPY           -147.750777362225 Eh   |
          | TOTAL FREE ENERGY        -147.870508058900 Eh   |
          | GRADIENT NORM               0.000167514473 Eh/α |
          | HOMO-LUMO GAP               1.052792284511 eV   |
           -------------------------------------------------

 * finished run on 2025/09/08 at 08:48:33.486
