   * xtb version 6.7.1 (edcfbbe) compiled by 'albert@albert-system' on 2024-07-22

   ID    Z sym.   atoms
    1    6 C      1-9, 11-23, 25-29, 31, 32, 34-38, 40-49, 51-59
    2    7 N      10, 24, 30, 33, 39, 50
    3    1 H      60-93

          program call               : xtb data2507/gas/ACID–BPPZ/ACID–BPPZ_gas_S0_finalOpt.xtbopt.xyz --gfn 2 --spinpol --tblite --uhf 2 --ohess vtight --parallel 40 --molden --ceasefiles --namespace data2507/gas/ACID–BPPZ/ACID–BPPZ_gas_T1_preOpt
 * total energy  :  -148.4536565 Eh     change       -0.2844419E-07 Eh
 * total energy  :  -148.4559953 Eh     change       -0.2338750E-02 Eh
 * total energy  :  -148.4565740 Eh     change       -0.5787290E-03 Eh
 * total energy  :  -148.4566311 Eh     change       -0.5710009E-04 Eh
 * total energy  :  -148.4566573 Eh     change       -0.2616394E-04 Eh
 * total energy  :  -148.4566619 Eh     change       -0.4581952E-05 Eh
 * total energy  :  -148.4566679 Eh     change       -0.6062009E-05 Eh
 * total energy  :  -148.4566739 Eh     change       -0.6012843E-05 Eh
 * total energy  :  -148.4566784 Eh     change       -0.4429227E-05 Eh
 * total energy  :  -148.4566824 Eh     change       -0.4010274E-05 Eh
 * total energy  :  -148.4567958 Eh     change       -0.6927790E-06 Eh
 * total energy  :  -148.4567960 Eh     change       -0.2470826E-06 Eh
 * total energy  :  -148.4567962 Eh     change       -0.1953870E-06 Eh
 * total energy  :  -148.4567964 Eh     change       -0.1660853E-06 Eh
 * total energy  :  -148.4567966 Eh     change       -0.2145625E-06 Eh
 * total energy  :  -148.4567968 Eh     change       -0.1782974E-06 Eh
 * total energy  :  -148.4567970 Eh     change       -0.1916121E-06 Eh
 * total energy  :  -148.4567972 Eh     change       -0.2183719E-06 Eh
 * total energy  :  -148.4567972 Eh     change       -0.9136841E-08 Eh
   *** GEOMETRY OPTIMIZATION CONVERGED AFTER 68 ITERATIONS ***

 final structure:
================
93
 xtb: 6.7.1 (edcfbbe)
C           -5.76284505092634       -3.19647625943762       -0.03617578753191
C           -4.87475807335906       -2.54695545328961       -1.11414890502378
C           -5.68094546015947       -2.33143801750870       -2.40881004552706
C           -3.71912740391103       -3.47946980490667       -1.41618748721339
C           -3.97612389259806       -4.75110564114722       -1.90964479355373
C           -2.96057209077276       -5.63513356090964       -2.22312471887351
C           -1.64366571462887       -5.24301047907829       -2.05349526915224
C           -1.35910941253448       -3.98845063205928       -1.56108428639820
C           -2.38560617555034       -3.09830675388881       -1.22278060635092
N           -2.07088325423017       -1.85290446147825       -0.71466310383798
C           -0.70186116136797       -1.50640897643969       -0.53052767821874
C           -0.06901328333101       -0.66843835889174       -1.46083007041416
C            1.24375705404897       -0.33537526788432       -1.27434453174186
C            1.96892187370678       -0.82457229077973       -0.17283068751680
C            1.33805794883068       -1.67785374433667        0.76793829694304
C           -0.01167599460100       -1.99323513612725        0.55647719352482
C            2.09282852594612       -2.17894972035388        1.88733260133191
C            1.54714732304895       -3.03575587027174        2.85699645768171
C            2.29564691514616       -3.49649022840223        3.91145576710004
C            3.63354096779622       -3.11959301283696        4.04690740780648
C            4.19879010410104       -2.28636154448792        3.11832637570009
C            3.45058566559654       -1.80455101388244        2.03147905730640
C            4.07852692984244       -0.94015793245465        1.08221879340107
N            5.35565534732420       -0.58885389165692        1.21920319845089
C            5.94916599670062        0.22067548600641        0.33841586420869
C            7.31491940805808        0.59127610024888        0.48523940225881
C            8.08791550192497        0.11684818523032        1.55964777981060
C            9.40039176513368        0.49808271270783        1.66305851091787
C            9.92384075370249        1.35518905303590        0.68309527826290
N            9.22856203949752        1.81072410395212       -0.32456444686263
C            7.94768639475304        1.45371730122050       -0.44831818977580
C            7.19062469494231        1.96027600793843       -1.56077633176535
N            7.79292887659824        2.77370101637547       -2.43265456315370
C            7.11241016700533        3.23894947167682       -3.44600719350018
C            5.76380756111759        2.93358875009239       -3.68195001576754
C            5.12259227902438        2.10064350799660       -2.80156241633321
C            5.82946825439056        1.58452260440193       -1.70221401582425
C            5.20171298627477        0.71633499016130       -0.76275028821887
N            3.92550319646088        0.35991478843042       -0.90201068420110
C            3.33540154386430       -0.45131945158539       -0.01911429351557
C           -3.03800665467112       -0.91380236323081       -0.40272184292167
C           -2.64176963966197        0.31246615266248        0.13646310386975
C           -3.59466295896789        1.27002971395084        0.42340156038604
C           -3.53366924950424        2.59556569890225        0.97373257203853
C           -2.48935975118518        3.40748548404544        1.39300109916395
C           -2.78375742374022        4.67477680265210        1.85696162241005
C           -4.09661220908483        5.13818394506774        1.88952947011867
C           -5.15287629823508        4.34770640496485        1.47633745874763
C           -4.86656360040914        3.06488091408051        1.03337208426052
N           -5.71760678146178        2.08998382760103        0.54726637256108
C           -7.11025791065694        2.19174540228806        0.43426518058752
C           -7.87391661535046        2.61022988635155        1.52027792882687
C           -9.24747502759674        2.71093468532152        1.39982890130687
C           -9.87064986642780        2.38645359613949        0.20617379972556
C           -9.11278266320026        1.96436952615994       -0.87366692607228
C           -7.73779035657387        1.87079504921463       -0.76657816812687
C           -4.95763767311160        1.00119356922593        0.17367047904742
C           -5.35462937405269       -0.23536569186026       -0.30753309813204
C           -4.40447059095259       -1.19893153545766       -0.60243912072738
H           -6.13138172300861       -4.16247349729567       -0.36946252253773
H           -5.18835515374289       -3.34423214105949        0.87630090931983
H           -6.61767626283953       -2.56692841022416        0.19518056523600
H           -6.03144908413270       -3.27819433020512       -2.80937370347179
H           -6.54630093668062       -1.69993619302731       -2.22818590954995
H           -5.05434108659992       -1.85295866616859       -3.15918069460793
H           -4.99760157477883       -5.06748032171774       -2.05724671287476
H           -3.19588085961057       -6.61745843808020       -2.60286867761393
H           -0.83610081300504       -5.91358041724281       -2.30552430213217
H           -0.33112664568038       -3.68584407805779       -1.43772695018003
H           -0.62832903671350       -0.29774634461416       -2.30645403422182
H            1.75918091801376        0.30805651869667       -1.97025118975663
H           -0.54061846280394       -2.63354157204566        1.24474879951788
H            0.51735409448336       -3.34737092294805        2.78126072606962
H            1.84800460237783       -4.15508877182961        4.64126774455660
H            4.21546087234925       -3.48579131895417        4.87947830617653
H            5.23039714952188       -1.97949283967520        3.19626495567332
H            7.62154808268443       -0.54045189025086        2.27917284179759
H           10.02312065828781        0.15308275290064        2.47397826541411
H           10.95539185063056        1.68005016657867        0.72835612291087
H            7.65535201003262        3.89252979145597       -4.11673076313654
H            5.25212914561583        3.34832675580817       -4.53673073644670
H            4.08505751724654        1.82508162233979       -2.92336072759429
H           -1.60146317364427        0.51296594934218        0.33432240984536
H           -1.47071566878852        3.05266587844027        1.35082450079171
H           -1.98692816448810        5.32223902782096        2.19079477331135
H           -4.29456188712095        6.13966070614226        2.24177803566756
H           -6.16441475951635        4.72443974117771        1.48766554598406
H           -7.38702208334405        2.83929924326751        2.45632136357833
H           -9.83495016121808        3.03652046858531        2.24539816611430
H          -10.94366287938031        2.46283913372327        0.11740483347079
H           -9.59400354998713        1.71544148313858       -1.80792857304108
H           -7.14078007132607        1.56735612478179       -1.61374274655426
H           -6.40461609497958       -0.44458065918010       -0.43755329864897

 projected vibrational frequencies (cm⁻¹)
eigval :       -0.00    -0.00    -0.00     0.00     0.00     0.00
eigval :        5.58     9.44     9.61    20.45    27.30    33.24
eigval :       42.12    48.77    55.16    64.49    73.62    75.58
eigval :       78.07    84.04    90.06   100.41   105.20   113.21
eigval :      119.74   128.33   129.59   141.54   169.94   172.20
eigval :      185.49   186.05   191.03   196.36   200.87   213.74
eigval :      223.84   234.90   239.36   262.03   267.40   273.87
eigval :      287.97   296.22   306.76   315.22   337.06   341.59
eigval :      355.15   363.74   379.75   380.72   381.64   384.86
eigval :      392.77   398.23   400.48   404.88   406.14   422.10
eigval :      424.16   434.29   436.81   440.49   448.16   452.09
eigval :      477.70   495.36   498.67   511.05   520.22   522.16
eigval :      524.00   530.14   531.58   536.28   541.65   556.50
eigval :      572.17   583.04   585.69   588.04   593.63   596.06
eigval :      602.43   618.74   624.20   632.83   638.97   640.45
eigval :      655.12   656.20   666.28   674.01   678.79   683.31
eigval :      686.34   692.09   696.20   696.82   704.41   705.16
eigval :      722.95   733.98   744.53   762.20   765.53   770.83
eigval :      775.98   776.62   785.67   795.23   800.70   815.15
eigval :      817.36   833.99   838.07   859.48   867.90   868.56
eigval :      871.88   873.86   875.93   886.84   903.36   903.80
eigval :      905.02   908.47   910.04   910.48   913.05   914.90
eigval :      916.00   916.94   921.13   922.13   922.59   927.81
eigval :      933.47   933.84   934.65   938.07   957.12   972.68
eigval :      995.34  1014.53  1017.40  1018.60  1026.07  1041.12
eigval :     1071.32  1079.21  1081.61  1082.74  1088.29  1090.32
eigval :     1095.29  1096.57  1116.09  1117.93  1125.31  1129.87
eigval :     1137.03  1140.35  1154.60  1156.05  1156.54  1157.13
eigval :     1173.77  1176.13  1179.25  1179.39  1181.25  1183.52
eigval :     1186.86  1195.35  1204.01  1215.74  1226.20  1231.66
eigval :     1234.16  1242.73  1245.14  1251.11  1253.32  1261.60
eigval :     1269.49  1273.03  1283.73  1289.08  1293.11  1295.67
eigval :     1308.96  1316.55  1318.25  1325.21  1327.55  1335.21
eigval :     1338.21  1340.77  1347.01  1354.10  1362.68  1375.50
eigval :     1376.93  1387.75  1398.35  1401.90  1402.49  1408.06
eigval :     1416.18  1419.60  1425.72  1434.49  1435.86  1441.26
eigval :     1442.39  1449.80  1454.07  1458.56  1462.97  1473.72
eigval :     1480.40  1482.23  1486.08  1488.88  1490.69  1500.59
eigval :     1504.20  1505.79  1508.60  1513.83  1543.31  1556.41
eigval :     1558.18  1571.13  1573.52  1576.79  1581.67  1585.72
eigval :     1590.62  1591.34  1594.98  1598.06  1613.81  3027.68
eigval :     3029.83  3040.14  3042.89  3050.49  3051.92  3052.54
eigval :     3054.62  3075.69  3076.10  3076.58  3079.47  3080.18
eigval :     3081.88  3082.42  3084.57  3086.08  3086.60  3088.77
eigval :     3091.02  3091.50  3091.59  3091.86  3095.15  3096.19
eigval :     3097.50  3097.83  3098.35  3100.49  3100.93  3103.21
eigval :     3106.00  3107.12  3113.56

   temp. (K)  partition function   enthalpy   heat capacity  entropy
                                   cal/mol     cal/K/mol   cal/K/mol   J/K/mol
 298.15  VIB  0.360E+21            26846.269    172.927    166.557
         ROT  0.168E+09              888.752      2.981     40.616
         INT  0.605E+29            27735.021    175.908    207.173
         TR   0.201E+29             1481.254      4.968     45.723
         TOT                       29216.2752   180.8761   252.8953  1058.1141

       T/K    H(0)-H(T)+PV         H(T)/Eh          T*S/Eh         G(T)/Eh
   ------------------------------------------------------------------------
    298.15    0.465591E-01    0.751587E+00    0.120159E+00    0.631428E+00
   ------------------------------------------------------------------------

         :::::::::::::::::::::::::::::::::::::::::::::::::::::
         ::                  THERMODYNAMIC                  ::
         :::::::::::::::::::::::::::::::::::::::::::::::::::::
         :: total free energy        -147.825369379664 Eh   ::
         ::.................................................::
         :: total energy             -148.456797215083 Eh   ::
         :: zero point energy           0.705027470395 Eh   ::
         :: G(RRHO) w/o ZPVE           -0.073599634976 Eh   ::
         :: G(RRHO) contrib.            0.631427835419 Eh   ::
         :::::::::::::::::::::::::::::::::::::::::::::::::::::

           -------------------------------------------------
          | TOTAL ENERGY             -148.456797215083 Eh   |
          | TOTAL ENTHALPY           -147.705210646573 Eh   |
          | TOTAL FREE ENERGY        -147.825369379664 Eh   |
          | GRADIENT NORM               0.000060894381 Eh/α |
           -------------------------------------------------

 * finished run on 2025/09/08 at 08:55:59.000
