   * xtb version 6.7.1 (edcfbbe) compiled by 'albert@albert-system' on 2024-07-22

   ID    Z sym.   atoms
    1    6 C      1-9, 11-23, 25-29, 31, 32, 34-38, 40-49, 51-59
    2    7 N      10, 24, 30, 33, 39, 50
    3    1 H      60-93

          program call               : xtb data2507/gas/ACID–BPPZ/ACID–BPPZ_gas_T1_crest.xyz --gfn 2 --spinpol --tblite --uhf 2 --ohess vtight --parallel 40 --molden --ceasefiles --namespace data2507/gas/ACID–BPPZ/ACID–BPPZ_gas_T1_finalOpt
 * total energy  :  -148.4567194 Eh     change       -0.3929560E-07 Eh
 * total energy  :  -148.4567561 Eh     change       -0.3665050E-04 Eh
 * total energy  :  -148.4567660 Eh     change       -0.9865938E-05 Eh
 * total energy  :  -148.4567677 Eh     change       -0.1732212E-05 Eh
 * total energy  :  -148.4567677 Eh     change       -0.4232490E-07 Eh
 * total energy  :  -148.4567690 Eh     change       -0.1234889E-05 Eh
 * total energy  :  -148.4567700 Eh     change       -0.1052326E-05 Eh
 * total energy  :  -148.4567715 Eh     change       -0.1435930E-05 Eh
 * total energy  :  -148.4567734 Eh     change       -0.1982891E-05 Eh
 * total energy  :  -148.4567764 Eh     change       -0.2989319E-05 Eh
 * total energy  :  -148.4567824 Eh     change       -0.1422934E-05 Eh
 * total energy  :  -148.4567833 Eh     change       -0.9134681E-06 Eh
 * total energy  :  -148.4567842 Eh     change       -0.8970690E-06 Eh
 * total energy  :  -148.4567848 Eh     change       -0.6053576E-06 Eh
 * total energy  :  -148.4567854 Eh     change       -0.5815457E-06 Eh
 * total energy  :  -148.4567860 Eh     change       -0.6596912E-06 Eh
 * total energy  :  -148.4567866 Eh     change       -0.5932113E-06 Eh
 * total energy  :  -148.4567873 Eh     change       -0.6754425E-06 Eh
 * total energy  :  -148.4567873 Eh     change       -0.4544489E-08 Eh
   *** GEOMETRY OPTIMIZATION CONVERGED AFTER 22 ITERATIONS ***

 final structure:
================
93
 xtb: 6.7.1 (edcfbbe)
C           -5.71991898610131       -3.20395234261717        0.10180071838946
C           -4.85769986920488       -2.59540721027212       -1.02016418333220
C           -5.68546683971742       -2.45708274067565       -2.31178933226742
C           -3.69172254390064       -3.52428022129250       -1.29174119694190
C           -3.93451660278048       -4.82036683168006       -1.72510237497834
C           -2.90897300599813       -5.70395183722713       -2.00558086169616
C           -1.59647476557622       -5.28732280834252       -1.86214561488137
C           -1.32595973931044       -4.00829030035299       -1.42827862511522
C           -2.36241484149279       -3.11714369203418       -1.12464286983942
N           -2.06091969321642       -1.84552939155627       -0.67693803754236
C           -0.69527590137245       -1.48764592512620       -0.48814100643545
C           -0.04238588126668       -0.70244317497720       -1.44997555106468
C            1.26936041152962       -0.36725286018791       -1.25901115848856
C            1.97361843391324       -0.80231586659910       -0.12175294088454
C            1.32114743025183       -1.59914945084908        0.85316805153344
C           -0.02653391548738       -1.91845326955705        0.63531051889542
C            2.05370635703972       -2.04466261417250        2.01017951084866
C            1.48446844887846       -2.84041638422997        3.01758234051787
C            2.21286632587959       -3.25080114471256        4.10636129000854
C            3.55331437684716       -2.88240326923491        4.23992312213134
C            4.14087926702595       -2.10702598824266        3.27576773701777
C            3.41323906401465       -1.67681074046360        2.15386532532505
C            4.06375868120185       -0.87112483671849        1.16885502728603
N            5.34269764256313       -0.52641875189698        1.30552445272855
C            5.95776597651043        0.22789972943812        0.39117340108914
C            7.32544312248625        0.59140683655238        0.53797200671650
C            8.07746070624228        0.16842151344268        1.64816622335546
C            9.39259395577637        0.54077734473431        1.75028264604142
C            9.93987583072772        1.33721918689447        0.73289119823878
N            9.26438374465154        1.74419372085712       -0.30844638899373
C            7.98139825767585        1.39461512219424       -0.43167557294370
C            7.24628548418316        1.84722526297923       -1.58148558704685
N            7.87046645284616        2.60472284787445       -2.48768886236748
C            7.21024954633330        3.02018234896612       -3.53551379438656
C            5.86198402897677        2.71611176089183       -3.77494816935718
C            5.19844360387572        1.94032164708641       -2.85957050606087
C            5.88306618024716        1.47888638250844       -1.72247961237921
C            5.23164503727102        0.67094856806693       -0.74609756567108
N            3.95323281301097        0.32194296233484       -0.88419749369712
C            3.34152299972694       -0.43413606378053        0.03232935378343
C           -3.03767296683961       -0.90167751285648       -0.41355058518776
C           -2.65389614781605        0.36012928398917        0.04681960663083
C           -3.61781447004830        1.31939259479691        0.28807407139125
C           -3.57034774463307        2.67676186404118        0.75611565891756
C           -2.53346720661566        3.52961086058902        1.10704011463828
C           -2.84188071401311        4.81844062613699        1.49663934409181
C           -4.16169979383247        5.26210229770141        1.52288293910976
C           -5.21084083919798        4.43077383801628        1.17734818976421
C           -4.90979426971025        3.12781348499559        0.80921403411614
N           -5.75193192043680        2.11229942880528        0.39655189257114
C           -7.14870594321105        2.18164649321638        0.31331982640472
C           -7.89281119644991        2.64842615547926        1.39329020647465
C           -9.27078758946154        2.71515694000105        1.30443482671557
C           -9.91760135036381        2.30889597894010        0.14898195112393
C           -9.17908470657555        1.83943640072999       -0.92467009929997
C           -7.80004487615499        1.77918944681213       -0.84963434806607
C           -4.97973454178935        1.01535840570697        0.07544459541983
C           -5.36309956115411       -0.25204235247938       -0.33046543437816
C           -4.40171194444946       -1.21618782120505       -0.58408590313204
H           -6.07747719044252       -4.19084573919264       -0.17808157133731
H           -5.13032876708820       -3.29761097334958        1.01180856871366
H           -6.58124075774230       -2.57663900863716        0.31453375014740
H           -6.02582428672852       -3.42778780654106       -2.66029251632609
H           -6.55878412688604       -1.83158136689777       -2.14977456589244
H           -5.07748444145070       -2.00614778513706       -3.09386014181612
H           -4.95251375826837       -5.15711434417670       -1.84990310113917
H           -3.13324028591133       -6.70543772826469       -2.33914136879840
H           -0.78146619462700       -5.95789395566987       -2.08890192435574
H           -0.30145547790983       -3.68709775256449       -1.32446116226009
H           -0.58488081981928       -0.37440511052594       -2.32371902003011
H            1.80034714260845        0.23535194422851       -1.97935537432322
H           -0.57041734754805       -2.52002398438908        1.34648842505745
H            0.45194571438142       -3.14353059610558        2.94469814306629
H            1.74730429166998       -3.86293439558446        4.86485496659536
H            4.11954983723742       -3.20938949253565        5.09920819673178
H            5.17481238376907       -1.80759059188078        3.35173352089419
H            7.59337790932508       -0.44340955437486        2.39553760226013
H            9.99952266796592        0.23413614652633        2.58814954624258
H           10.97435532409161        1.65301079615447        0.77563198068471
H            7.77036678696076        3.62998084067590       -4.23282694216200
H            5.36774175734406        3.08766358691010       -4.65933047506592
H            4.15983726867626        1.66909854130514       -2.98189629688309
H           -1.61444733983890        0.58699179323779        0.21913104006094
H           -1.50972508410421        3.18924389336479        1.06954453206039
H           -2.05088755086337        5.49806921980484        1.77596378305109
H           -4.37090133554710        6.28028903720825        1.81571131330767
H           -6.22842100223240        4.79108291178859        1.18255996126282
H           -7.38673200509004        2.94154105579787        2.30088039919772
H           -9.84289511165999        3.07824436260299        2.14526023274126
H          -10.99395072223646        2.35859986565108        0.08510159539895
H           -9.67899943084386        1.52681062125373       -1.82951281324503
H           -7.21900428911567        1.43867316773794       -1.69378840061109
H           -6.41112597358355       -0.48418386795582       -0.43444115876904

 projected vibrational frequencies (cm⁻¹)
eigval :       -0.00    -0.00    -0.00     0.00     0.00     0.00
eigval :        5.22     9.43    10.03    20.35    27.27    33.10
eigval :       42.09    48.69    55.20    64.39    73.03    75.34
eigval :       78.07    83.95    89.93   100.17   105.05   113.20
eigval :      119.78   128.11   129.46   141.51   169.97   172.33
eigval :      185.56   186.14   190.94   196.24   200.58   213.97
eigval :      223.79   235.04   239.37   262.23   267.49   273.75
eigval :      287.93   295.78   306.65   315.65   336.95   341.70
eigval :      355.26   363.68   379.55   380.72   381.72   384.82
eigval :      392.64   398.45   400.62   404.87   406.07   422.03
eigval :      423.89   433.99   436.49   440.86   447.91   452.39
eigval :      477.66   495.34   498.54   511.02   520.35   522.09
eigval :      524.03   530.09   531.51   536.43   541.59   556.29
eigval :      571.80   581.91   585.35   588.11   593.58   596.07
eigval :      602.26   618.73   624.16   632.77   638.93   640.31
eigval :      654.97   656.29   666.34   673.92   678.79   683.33
eigval :      686.05   692.11   696.10   697.65   705.02   705.05
eigval :      722.93   734.19   744.50   761.91   765.35   770.67
eigval :      775.85   776.40   785.54   795.09   800.48   815.20
eigval :      817.26   833.83   837.87   858.97   867.67   868.38
eigval :      871.47   873.67   875.80   886.69   903.25   903.71
eigval :      904.92   908.35   909.90   910.52   913.05   914.69
eigval :      915.86   916.79   920.96   921.90   922.43   927.84
eigval :      933.33   933.69   934.53   938.04   957.03   972.71
eigval :      995.41  1014.39  1017.04  1018.47  1026.23  1040.95
eigval :     1071.36  1079.23  1081.69  1082.75  1088.34  1090.35
eigval :     1095.36  1096.29  1116.08  1118.00  1125.33  1129.39
eigval :     1136.70  1140.22  1153.96  1156.01  1156.12  1157.23
eigval :     1173.57  1175.62  1178.97  1179.10  1180.90  1184.06
eigval :     1186.60  1195.01  1204.30  1215.50  1226.10  1231.27
eigval :     1234.41  1242.38  1244.90  1250.98  1252.96  1261.53
eigval :     1269.31  1272.86  1283.60  1288.80  1292.76  1295.49
eigval :     1308.68  1316.63  1318.20  1325.00  1327.31  1335.18
eigval :     1338.91  1340.36  1346.61  1354.19  1362.61  1374.49
eigval :     1376.20  1387.83  1398.09  1401.24  1402.25  1407.94
eigval :     1415.83  1419.00  1425.31  1434.19  1435.52  1440.77
eigval :     1442.00  1449.61  1453.98  1457.96  1462.53  1473.54
eigval :     1480.25  1481.97  1485.86  1488.57  1490.41  1500.37
eigval :     1503.89  1505.76  1508.62  1513.85  1543.34  1556.32
eigval :     1558.13  1570.95  1573.34  1576.76  1581.61  1585.67
eigval :     1590.47  1591.20  1594.90  1598.50  1614.55  3027.52
eigval :     3029.53  3039.91  3042.81  3049.72  3051.53  3052.34
eigval :     3054.43  3075.32  3075.67  3076.23  3079.13  3079.73
eigval :     3081.57  3082.03  3084.22  3085.63  3086.24  3088.46
eigval :     3090.61  3091.07  3091.11  3091.41  3094.48  3095.85
eigval :     3097.33  3097.63  3098.04  3100.24  3100.49  3102.75
eigval :     3105.70  3106.93  3113.08

   temp. (K)  partition function   enthalpy   heat capacity  entropy
                                   cal/mol     cal/K/mol   cal/K/mol   J/K/mol
 298.15  VIB  0.381E+21            26851.201    172.935    166.630
         ROT  0.168E+09              888.752      2.981     40.617
         INT  0.640E+29            27739.953    175.916    207.247
         TR   0.201E+29             1481.254      4.968     45.723
         TOT                       29221.2072   180.8843   252.9697  1058.4250

       T/K    H(0)-H(T)+PV         H(T)/Eh          T*S/Eh         G(T)/Eh
   ------------------------------------------------------------------------
    298.15    0.465670E-01    0.751507E+00    0.120194E+00    0.631313E+00
   ------------------------------------------------------------------------

         :::::::::::::::::::::::::::::::::::::::::::::::::::::
         ::                  THERMODYNAMIC                  ::
         :::::::::::::::::::::::::::::::::::::::::::::::::::::
         :: total free energy        -147.825473909371 Eh   ::
         ::.................................................::
         :: total energy             -148.456787249783 Eh   ::
         :: zero point energy           0.704940428925 Eh   ::
         :: G(RRHO) w/o ZPVE           -0.073627088512 Eh   ::
         :: G(RRHO) contrib.            0.631313340412 Eh   ::
         :::::::::::::::::::::::::::::::::::::::::::::::::::::

           -------------------------------------------------
          | TOTAL ENERGY             -148.456787249783 Eh   |
          | TOTAL ENTHALPY           -147.705279863136 Eh   |
          | TOTAL FREE ENERGY        -147.825473909371 Eh   |
          | GRADIENT NORM               0.000083063159 Eh/α |
           -------------------------------------------------

 * finished run on 2025/09/08 at 09:07:06.191
