   * xtb version 6.7.1 (edcfbbe) compiled by 'albert@albert-system' on 2024-07-22

   ID    Z sym.   atoms
    1    6 C      1-9, 11-23, 25-29, 31, 32, 34-38, 40-49, 51-59
    2    7 N      10, 24, 30, 33, 39, 50
    3    1 H      60-93

          program call               : xtb data2507/gas/ACID–BPPZ/ACID–BPPZ_gas_S0_crest.xyz --gfn 2 --ohess vtight --parallel 40 --molden --ceasefiles --namespace data2507/gas/ACID–BPPZ/ACID–BPPZ_gas_S0_finalOpt
          :  Hamiltonian                  GFN2-xTB          :
 * total energy  :  -148.5053948 Eh     change       -0.4709932E-08 Eh
 * total energy  :  -148.5053958 Eh     change       -0.1008610E-05 Eh
 * total energy  :  -148.5053971 Eh     change       -0.1352824E-05 Eh
 * total energy  :  -148.5053988 Eh     change       -0.1704041E-05 Eh
 * total energy  :  -148.5053997 Eh     change       -0.9155668E-06 Eh
 * total energy  :  -148.5054007 Eh     change       -0.9684850E-06 Eh
 * total energy  :  -148.5054017 Eh     change       -0.1000144E-05 Eh
 * total energy  :  -148.5054025 Eh     change       -0.7355752E-06 Eh
 * total energy  :  -148.5054030 Eh     change       -0.5275585E-06 Eh
 * total energy  :  -148.5054030 Eh     change       -0.5198913E-07 Eh
   *** GEOMETRY OPTIMIZATION CONVERGED AFTER 10 ITERATIONS ***

 final structure:
================
93
 xtb: 6.7.1 (edcfbbe)
C           -5.75631578695547       -3.15122246292375        0.08608361218639
C           -4.87699820183166       -2.55218186146782       -1.02744273909537
C           -5.69342543496301       -2.39401279404062       -2.32370985888271
C           -3.72425264571786       -3.49882108313788       -1.29828903646569
C           -3.99197827257496       -4.78942763106262       -1.73415312275304
C           -2.98558639749120       -5.68867622195571       -2.03195155542821
C           -1.66720670658415       -5.28742101716761       -1.91370464165364
C           -1.37311394439042       -4.01279895703128       -1.47929268298671
C           -2.38905436395676       -3.11160453904588       -1.14296738239445
N           -2.06462646985196       -1.84262968405599       -0.69135135348930
C           -0.70108778802941       -1.49426942861868       -0.52750869342165
C           -0.10389860539150       -0.57703264800432       -1.39649590293498
C            1.21606749216025       -0.24566464184396       -1.22057333304079
C            1.97147022103587       -0.81874896888810       -0.19166125875017
C            1.38495103542259       -1.75413410704454        0.68574979416964
C            0.03537107392258       -2.06510082704791        0.49422160709719
C            2.18027768744830       -2.35495902674666        1.74517018237076
C            1.65875517361037       -3.30313094328840        2.63396876709040
C            2.43407634881850       -3.85838456899247        3.62747866018573
C            3.76667221137879       -3.48723647855823        3.77339067569004
C            4.30750766511888       -2.56100432326675        2.91383434225295
C            3.53299641864503       -1.98980588996596        1.89966148117889
C            4.12827358220822       -1.02391332963029        1.00682344549839
N            5.40353069168164       -0.69011524156411        1.17284396341561
C            5.93480403186034        0.19910753541698        0.34064758702664
C            7.31734881699528        0.57720818344783        0.50419953285543
C            8.11378146008012        0.03146142442705        1.51684522467194
C            9.42617997927854        0.43220168307956        1.62369493040256
C            9.90510165596226        1.37223666410260        0.70853881588425
N            9.17612831777675        1.89547162943153       -0.24731913244023
C            7.90268193793546        1.51946199706642       -0.36618325035587
C            7.11061097487028        2.11034491127398       -1.43098557136989
N            7.69915247718635        2.99692821437090       -2.23400816125989
C            6.99840399612725        3.54126717529723       -3.19917714868733
C            5.65511177763868        3.24773186457715       -3.44362046965884
C            5.03026276069165        2.33427958400708       -2.62525247330501
C            5.75923153944530        1.74068189752705       -1.58903145057122
C            5.16157837012038        0.77641326288904       -0.69743389173354
N            3.88648367733736        0.44329411485191       -0.86375404520007
C            3.35524119844721       -0.44643101867527       -0.03091356564324
C           -3.03642444694673       -0.88744156168413       -0.40420995753908
C           -2.64404269455601        0.35062529732598        0.10078008059414
C           -3.59886780805126        1.31698175584421        0.36272517356562
C           -3.53644599108762        2.65597988355051        0.87596092488710
C           -2.49016561999648        3.48165715674494        1.26391921899789
C           -2.78159596669281        4.76065028675955        1.69410706568077
C           -4.09532511251109        5.22327671119987        1.72388632248095
C           -5.15320469917376        4.42049946269103        1.34200092668187
C           -4.87027582361127        3.12507042267198        0.93286310353221
N           -5.72272944243128        2.13862617229130        0.47924333427911
C           -7.11654345636495        2.22558280283044        0.38701574491115
C           -7.86656220444140        2.67503163766883        1.47055365459241
C           -9.24301349335042        2.75627083788215        1.37198764964846
C           -9.88422378799215        2.38127964234807        0.20297082873956
C           -9.14059223218531        1.92908715965801       -0.87454946849919
C           -7.76298923146214        1.85505188346685       -0.78959928313496
C           -4.95980083932645        1.03869191175070        0.12863153448211
C           -5.35385311627029       -0.21290116814199       -0.30830457307279
C           -4.40075221309133       -1.18305063388545       -0.57978231757673
H           -6.12277658762752       -4.13417370599606       -0.19652234069665
H           -5.17556470380256       -3.25128975929033        1.00118010286758
H           -6.61282969847285       -2.51514698008557        0.29208381255362
H           -6.05614631117376       -3.35602247797214       -2.67433110665956
H           -6.55135717413710       -1.74595905424458       -2.16736543914485
H           -5.06933761641496       -1.95891655655069       -3.10214786129925
H           -5.01690687206508       -5.10870461766770       -1.84881025670970
H           -3.22942816038797       -6.68621664612192       -2.36399366730056
H           -0.86340864581623       -5.96437210242855       -2.16229820842293
H           -0.34094654988894       -3.70676504804958       -1.40641449884426
H           -0.68923748672851       -0.13942280974143       -2.19106000274676
H            1.70539841689749        0.45935216423219       -1.87339171376236
H           -0.46830580399649       -2.76597669575507        1.14071452212642
H            0.63085321180373       -3.61738255620535        2.55025014470869
H            2.00245710503073       -4.58776408351982        4.29711099723145
H            4.36893659770359       -3.92588354261698        4.55476044955137
H            5.33750807545079       -2.25246332404719        2.99669347145927
H            7.67714214263885       -0.69094126567452        2.18947887871406
H           10.07255104106775        0.03530539721051        2.39123474832115
H           10.93000443293812        1.71774262554677        0.75456543918361
H            7.53142793233674        4.25243232641438       -3.81726995928154
H            5.12741609768149        3.72728330521395       -4.25357005158345
H            3.99459739034520        2.06014296967529       -2.75615206971706
H           -1.60584405269249        0.56223360782439        0.29952424177633
H           -1.47113603328679        3.12673339125326        1.22302796768296
H           -1.98300755483657        5.41868759667724        2.00302250272204
H           -4.29153449691823        6.23439283297137        2.04927610978434
H           -6.16506214288998        4.79687743999747        1.35072924255015
H           -7.36598160578892        2.94348736357584        2.38880223249521
H           -9.81891206463449        3.10584168837966        2.21617002603374
H          -10.95969954830390        2.44137710218593        0.13173185373040
H           -9.63573687718880        1.64030881766546       -1.79006676613976
H           -7.17807366994719        1.52687608014080       -1.63594396207721
H           -6.40366629671769       -0.43289613081296       -0.42103349671184

          :  Hamiltonian                  GFN2-xTB          :
         :: gradient norm              0.000196652671 Eh/a0 ::
         :: HOMO-LUMO gap              1.051120425997 eV    ::
         :: SCC energy              -151.192785017841 Eh    ::
         :: -> dispersion             -0.139446736696 Eh    ::
         :: repulsion energy           2.687381984731 Eh    ::

    * Orbital Energies and Occupations

         #    Occupation            Energy/Eh            Energy/eV
      -------------------------------------------------------------
         1        2.0000           -0.6809958             -18.5308
       ...           ...                  ...                  ...
       126        2.0000           -0.4092351             -11.1359
       127        2.0000           -0.4067356             -11.0678
       128        2.0000           -0.4048785             -11.0173
       129        2.0000           -0.4028212             -10.9613
       130        2.0000           -0.3961688             -10.7803
       131        2.0000           -0.3932351             -10.7005
       132        2.0000           -0.3914694             -10.6524
       133        2.0000           -0.3780580             -10.2875
       134        2.0000           -0.3654932              -9.9456
       135        2.0000           -0.3652156              -9.9380
       136        2.0000           -0.3641859              -9.9100
       137        2.0000           -0.3559138              -9.6849
       138        2.0000           -0.3384524              -9.2098 (HOMO)
       139                         -0.2998243              -8.1586 (LUMO)
       140                         -0.2840920              -7.7305
       141                         -0.2708038              -7.3689
       142                         -0.2590246              -7.0484
       143                         -0.2531978              -6.8899
       144                         -0.2434051              -6.6234
       145                         -0.2329072              -6.3377
       146                         -0.2318042              -6.3077
       147                         -0.2291055              -6.2343
       148                         -0.2215974              -6.0300
       149                         -0.2166523              -5.8954
       ...                                ...                  ...
       270                          0.7519751              20.4623
      -------------------------------------------------------------
                  HL-Gap            0.0386281 Eh            1.0511 eV

     #   Z          covCN         q      C6AA      α(0)
     1   6 C        3.761    -0.102    22.504     6.762
     2   6 C        3.910     0.022    20.141     6.379
     3   6 C        3.761    -0.102    22.502     6.762
     4   6 C        2.980    -0.015    28.380     8.739
     5   6 C        2.928    -0.037    28.908     8.817
     6   6 C        2.917    -0.045    29.127     8.850
     7   6 C        2.920    -0.033    28.827     8.805
     8   6 C        2.924    -0.060    29.485     8.905
     9   6 C        2.926     0.058    26.701     8.474
    10   7 N        2.755    -0.070    22.600     7.061
    11   6 C        2.926     0.072    26.393     8.425
    12   6 C        2.918    -0.039    28.962     8.825
    13   6 C        2.923    -0.027    28.686     8.783
    14   6 C        2.988    -0.004    28.116     8.698
    15   6 C        2.976     0.007    27.853     8.657
    16   6 C        2.925    -0.045    29.114     8.849
    17   6 C        2.977     0.007    27.852     8.657
    18   6 C        2.922    -0.032    28.810     8.802
    19   6 C        2.918    -0.026    28.659     8.779
    20   6 C        2.917    -0.028    28.690     8.783
    21   6 C        2.924    -0.026    28.656     8.779
    22   6 C        2.988     0.000    28.019     8.683
    23   6 C        2.963     0.081    26.198     8.396
    24   7 N        1.849    -0.239    27.098     7.715
    25   6 C        2.960     0.077    26.270     8.407
    26   6 C        2.983    -0.011    28.294     8.725
    27   6 C        2.928    -0.010    28.277     8.721
    28   6 C        2.912    -0.039    28.959     8.824
    29   6 C        2.907     0.063    26.590     8.455
    30   7 N        1.841    -0.201    26.184     7.583
    31   6 C        2.972     0.084    26.132     8.385
    32   6 C        2.972     0.084    26.131     8.385
    33   7 N        1.841    -0.201    26.184     7.583
    34   6 C        2.907     0.063    26.588     8.455
    35   6 C        2.912    -0.039    28.957     8.824
    36   6 C        2.928    -0.010    28.275     8.720
    37   6 C        2.982    -0.011    28.295     8.726
    38   6 C        2.960     0.078    26.261     8.405
    39   7 N        1.849    -0.240    27.121     7.718
    40   6 C        2.963     0.081    26.197     8.395
    41   6 C        2.925     0.049    26.906     8.507
    42   6 C        2.918    -0.064    29.588     8.920
    43   6 C        3.066    -0.019    28.423     8.742
    44   6 C        3.070    -0.018    28.383     8.735
    45   6 C        2.912    -0.033    28.823     8.804
    46   6 C        2.920    -0.042    29.034     8.836
    47   6 C        2.924    -0.034    28.845     8.808
    48   6 C        2.910    -0.052    29.279     8.873
    49   6 C        3.077     0.047    26.873     8.499
    50   7 N        2.802    -0.045    22.113     6.984
    51   6 C        2.913     0.065    26.540     8.448
    52   6 C        2.922    -0.043    29.074     8.842
    53   6 C        2.920    -0.028    28.705     8.786
    54   6 C        2.919    -0.034    28.852     8.808
    55   6 C        2.920    -0.029    28.717     8.788
    56   6 C        2.923    -0.044    29.084     8.844
    57   6 C        3.075     0.036    27.119     8.538
    58   6 C        2.918    -0.057    29.428     8.896
    59   6 C        2.981    -0.014    28.367     8.737
    60   1 H        0.925     0.040     2.455     2.450
    61   1 H        0.925     0.031     2.570     2.507
    62   1 H        0.925     0.037     2.484     2.465
    63   1 H        0.925     0.039     2.457     2.451
    64   1 H        0.925     0.037     2.486     2.466
    65   1 H        0.925     0.032     2.565     2.505
    66   1 H        0.926     0.029     2.606     2.524
    67   1 H        0.926     0.025     2.658     2.550
    68   1 H        0.926     0.026     2.642     2.542
    69   1 H        0.926     0.023     2.683     2.561
    70   1 H        0.926     0.045     2.378     2.412
    71   1 H        0.926     0.061     2.191     2.315
    72   1 H        0.926     0.045     2.377     2.411
    73   1 H        0.926     0.038     2.471     2.458
    74   1 H        0.926     0.036     2.498     2.472
    75   1 H        0.926     0.037     2.487     2.466
    76   1 H        0.926     0.056     2.243     2.342
    77   1 H        0.926     0.056     2.240     2.341
    78   1 H        0.926     0.040     2.443     2.444
    79   1 H        0.925     0.046     2.371     2.408
    80   1 H        0.925     0.046     2.370     2.407
    81   1 H        0.926     0.041     2.440     2.443
    82   1 H        0.926     0.057     2.239     2.340
    83   1 H        0.926     0.028     2.608     2.525
    84   1 H        0.926     0.028     2.613     2.528
    85   1 H        0.926     0.027     2.637     2.539
    86   1 H        0.926     0.028     2.617     2.530
    87   1 H        0.926     0.027     2.634     2.538
    88   1 H        0.926     0.040     2.450     2.448
    89   1 H        0.926     0.035     2.517     2.481
    90   1 H        0.926     0.034     2.533     2.489
    91   1 H        0.926     0.035     2.523     2.484
    92   1 H        0.926     0.040     2.453     2.449
    93   1 H        0.926     0.031     2.566     2.505

molecular dipole:
                 x           y           z       tot (Debye)
 q only:       -1.041      -0.420       0.299
   full:       -1.601      -0.746       0.488       4.657

 projected vibrational frequencies (cm⁻¹)
eigval :       -0.00    -0.00    -0.00     0.00     0.00     0.00
eigval :        7.08     8.85     9.73    17.14    27.88    33.12
eigval :       43.13    48.74    55.69    64.81    69.65    74.69
eigval :       75.98    83.57    90.74    99.97   102.43   110.47
eigval :      121.46   127.24   130.06   142.51   170.96   181.64
eigval :      187.45   189.50   194.99   198.92   205.17   218.44
eigval :      224.89   235.68   238.61   263.39   269.22   276.26
eigval :      292.03   295.02   314.56   319.25   338.19   342.27
eigval :      362.70   364.94   378.39   381.22   381.56   382.69
eigval :      388.39   398.66   400.12   401.05   406.38   421.32
eigval :      424.84   435.74   441.01   444.92   451.73   461.63
eigval :      477.36   492.21   494.90   507.52   522.19   525.41
eigval :      528.71   531.83   537.66   540.83   546.35   560.56
eigval :      574.33   586.56   592.61   594.46   596.87   603.42
eigval :      606.27   628.15   636.43   637.45   644.84   651.09
eigval :      658.02   667.27   675.04   676.92   689.35   695.14
eigval :      698.72   702.92   704.28   708.17   711.46   719.27
eigval :      735.12   759.81   761.85   765.40   773.42   775.50
eigval :      777.36   780.03   794.41   801.08   809.56   814.76
eigval :      825.72   833.85   842.49   865.23   868.13   868.63
eigval :      873.95   879.21   886.69   889.44   901.94   907.01
eigval :      913.35   914.03   915.85   916.36   917.63   921.25
eigval :      921.66   922.78   925.21   926.31   928.97   929.11
eigval :      933.48   934.58   936.64   948.82   956.65   992.91
eigval :      997.67  1014.90  1018.96  1032.95  1036.97  1063.17
eigval :     1071.96  1080.05  1082.81  1089.71  1089.91  1094.84
eigval :     1096.44  1102.74  1118.32  1119.92  1126.98  1136.36
eigval :     1140.47  1148.40  1156.87  1158.17  1158.62  1175.46
eigval :     1177.12  1179.37  1179.99  1181.56  1187.03  1189.00
eigval :     1195.80  1216.07  1217.73  1226.01  1236.95  1239.66
eigval :     1246.94  1255.80  1263.74  1264.52  1271.83  1275.90
eigval :     1280.75  1285.10  1288.45  1292.39  1302.24  1306.35
eigval :     1318.63  1321.65  1321.91  1323.90  1331.01  1337.90
eigval :     1339.61  1355.47  1358.66  1363.73  1374.79  1381.57
eigval :     1394.30  1400.18  1403.05  1410.38  1420.28  1426.29
eigval :     1428.08  1430.56  1435.68  1440.82  1446.37  1449.88
eigval :     1456.62  1460.81  1463.12  1484.25  1485.24  1486.36
eigval :     1490.15  1492.16  1492.77  1496.97  1501.74  1505.71
eigval :     1507.19  1535.04  1549.98  1551.63  1564.83  1565.34
eigval :     1565.98  1578.60  1580.48  1582.11  1583.36  1589.55
eigval :     1596.07  1596.49  1598.96  1603.36  1621.11  3026.30
eigval :     3028.57  3038.49  3041.38  3048.27  3052.52  3053.82
eigval :     3054.08  3075.23  3077.63  3077.70  3079.15  3079.69
eigval :     3080.37  3082.06  3087.41  3087.46  3087.60  3089.87
eigval :     3090.26  3092.50  3093.57  3093.95  3094.81  3096.25
eigval :     3098.84  3098.87  3099.23  3100.78  3101.94  3108.52
eigval :     3111.04  3112.35  3112.64

   temp. (K)  partition function   enthalpy   heat capacity  entropy
                                   cal/mol     cal/K/mol   cal/K/mol   J/K/mol
 298.15  VIB  0.300E+21            26673.819    171.578    165.616
         ROT  0.168E+09              888.752      2.981     40.620
         INT  0.505E+29            27562.571    174.559    206.236
         TR   0.201E+29             1481.254      4.968     45.723
         TOT                       29043.8253   179.5269   251.9582  1054.1930

       T/K    H(0)-H(T)+PV         H(T)/Eh          T*S/Eh         G(T)/Eh
   ------------------------------------------------------------------------
    298.15    0.462843E-01    0.754626E+00    0.119713E+00    0.634913E+00
   ------------------------------------------------------------------------

         :::::::::::::::::::::::::::::::::::::::::::::::::::::
         ::                  THERMODYNAMIC                  ::
         :::::::::::::::::::::::::::::::::::::::::::::::::::::
         :: total free energy        -147.870490243790 Eh   ::
         ::.................................................::
         :: total energy             -148.505403033107 Eh   ::
         :: zero point energy           0.708341971751 Eh   ::
         :: G(RRHO) w/o ZPVE           -0.073429182435 Eh   ::
         :: G(RRHO) contrib.            0.634912789316 Eh   ::
         :::::::::::::::::::::::::::::::::::::::::::::::::::::

           -------------------------------------------------
          | TOTAL ENERGY             -148.505403033107 Eh   |
          | TOTAL ENTHALPY           -147.750776779569 Eh   |
          | TOTAL FREE ENERGY        -147.870490243790 Eh   |
          | GRADIENT NORM               0.000196631690 Eh/α |
          | HOMO-LUMO GAP               1.051124751947 eV   |
           -------------------------------------------------

 * finished run on 2025/09/08 at 08:55:40.097
