   * xtb version 6.7.1 (edcfbbe) compiled by 'albert@albert-system' on 2024-07-22

   ID    Z sym.   atoms
    1    6 C      1-6, 8-22, 24-27, 29-35, 37-42, 44-57
    2    7 N      7, 23, 43
    3   16 S      28
    4    8 O      36
    5    1 H      58-92

          program call               : xtb data2507/toluene/2Cz-DMAC-TXO/2Cz-DMAC-TXO_toluene_T1_crest.xyz --gfn 2 --uhf 2 --gbsa toluene --ohess vtight --parallel 40 --molden --ceasefiles --namespace data2507/toluene/2Cz-DMAC-TXO/2Cz-DMAC-TXO_toluene_T1_finalOpt
      * Solvation model:               GBSA
        Solvent                        toluene
        Solvent mass                       9.2140E+01 g/mol
          :  Hamiltonian                  GFN2-xTB          :
 * total energy  :  -145.3962949 Eh     change       -0.1567497E-07 Eh
 * total energy  :  -145.3964641 Eh     change       -0.1692164E-03 Eh
 * total energy  :  -145.3965165 Eh     change       -0.5237605E-04 Eh
 * total energy  :  -145.3965332 Eh     change       -0.1675696E-04 Eh
 * total energy  :  -145.3965425 Eh     change       -0.9243845E-05 Eh
 * total energy  :  -145.3965581 Eh     change       -0.1568875E-04 Eh
 * total energy  :  -145.3965674 Eh     change       -0.9286786E-05 Eh
 * total energy  :  -145.3965823 Eh     change       -0.1486245E-04 Eh
 * total energy  :  -145.3965932 Eh     change       -0.1085830E-04 Eh
 * total energy  :  -145.3966020 Eh     change       -0.8799018E-05 Eh
 * total energy  :  -145.3966648 Eh     change       -0.5757426E-06 Eh
 * total energy  :  -145.3966654 Eh     change       -0.6540996E-06 Eh
 * total energy  :  -145.3966663 Eh     change       -0.9295571E-06 Eh
 * total energy  :  -145.3966676 Eh     change       -0.1279723E-05 Eh
 * total energy  :  -145.3966688 Eh     change       -0.1172159E-05 Eh
 * total energy  :  -145.3966696 Eh     change       -0.8058437E-06 Eh
 * total energy  :  -145.3966699 Eh     change       -0.3174415E-06 Eh
 * total energy  :  -145.3966706 Eh     change       -0.6368114E-06 Eh
 * total energy  :  -145.3966706 Eh     change       -0.7334890E-07 Eh
   *** GEOMETRY OPTIMIZATION CONVERGED AFTER 46 ITERATIONS ***

 final structure:
================
92
 xtb: 6.7.1 (edcfbbe)
C           -1.03048303343841       -3.30943187593359        1.03727484927419
C           -0.71530752204683       -2.25450825415581       -0.04103293044053
C           -0.82626867213262       -2.87988623252405       -1.44514890800953
C            0.70085172620695       -1.76212694300332        0.17144819781372
C            1.74595802596319       -2.66619914623708        0.10936397465693
C            3.06966245604813       -2.28251951386670        0.31183397802392
N            4.09394667809200       -3.22172279934854        0.22217978719640
C            5.27388642487920       -3.06569269003207       -0.48393554502494
C            5.69404555352915       -2.01027422087522       -1.28156672569087
C            6.91888661568847       -2.12720385029426       -1.91336270915496
C            7.70494725844124       -3.26772180362322       -1.77011257804559
C            7.27760900531375       -4.33441022779674       -1.00063021836545
C            6.05323221335258       -4.23846532604312       -0.35540068284631
C            5.30440908873163       -5.13864478072774        0.48188302079031
C            5.55585846664593       -6.40978657032965        0.97799799402035
C            4.61423485849258       -6.99612973184862        1.80398373484498
C            3.44687962459118       -6.32102796937021        2.15120949441636
C            3.17596355955918       -5.05330301790749        1.66932371368328
C            4.10154027020825       -4.47356746752838        0.81246462512772
C            3.34722894980078       -0.94832302716827        0.61744156044317
C            2.32253262987921       -0.03872746185359        0.69473872414395
C            0.99188262306017       -0.41457944261274        0.44847975601909
N           -0.00880291441339        0.52735554611855        0.52095973980479
C            0.33278683574894        1.88385860162870        0.78534196514227
C           -0.00466204598387        2.45716540947551        2.01446558082275
C            0.34416593077210        3.78208401658213        2.24379216153428
C            1.00002655763419        4.52767053541317        1.28076398894841
S            1.39190914586330        6.18628120051291        1.71630294199222
C            2.13952706495809        6.83760704259470        0.25558270687094
C            2.50196212518916        8.17306851857655        0.30657052704682
C            3.10340131803680        8.78314126124763       -0.78403356811684
C            3.33799681319835        8.03845329607489       -1.93319096333274
C            2.97273652518286        6.71320798244548       -1.98525495738289
C            2.36398315042978        6.06250782861954       -0.89345085965944
C            2.00989786563935        4.66469530882604       -1.04179724862796
O            2.28621028005912        4.05064695994292       -2.12600182068029
C            1.34037415006624        3.97228331817179        0.02587776996278
C            0.98987878269265        2.61793593606163       -0.17794079765574
C           -1.32987040843401        0.20066852918202        0.31605653597848
C           -2.30714655002518        1.20932615329051        0.33229067641836
C           -3.63611226879033        0.91917899452331        0.14992863625431
C           -4.03489422676582       -0.40087632726420       -0.07205206617550
N           -5.37841855720574       -0.71905688379953       -0.25265702399176
C           -5.89436053404741       -1.52964531664174       -1.24940261556994
C           -5.25003682470644       -2.13892555661644       -2.31747493799532
C           -6.01769135526087       -2.87720492745726       -3.19984267762907
C           -7.39526361621997       -2.99978087727606       -3.03770870913688
C           -8.04760212162841       -2.36617822224208       -1.99587327732193
C           -7.29695510278605       -1.62117801161489       -1.09781785803684
C           -7.63770696405847       -0.82409678976269        0.05123776794129
C           -8.83449518377746       -0.54643454619370        0.69567129388121
C           -8.80957156517266        0.26129483260998        1.81789339714075
C           -7.60928401036477        0.77012098212386        2.30714207556988
C           -6.40419346972914        0.50392900282989        1.68278916750101
C           -6.42676551439060       -0.28009761730035        0.53756101159509
C           -3.06299027487262       -1.39769314531039       -0.12543981510756
C           -1.71923256854954       -1.12544768383854        0.05854447667847
H           -2.05007306878545       -3.66883652504273        0.93812331237902
H           -0.91256412556723       -2.87621021220240        2.02854492948331
H           -0.36164478038003       -4.15980598828676        0.94748490752108
H           -0.62990514929547       -2.12604851327021       -2.20533259014219
H           -0.10817935780761       -3.68480922979147       -1.56727960468518
H           -1.81960378545183       -3.28690230540010       -1.60679397472242
H            1.54867181475642       -3.69823368593010       -0.13145338347753
H            5.08583495222660       -1.12929253876678       -1.41876387354638
H            7.26942880078564       -1.31650887723296       -2.53501228673736
H            8.65649346652142       -3.32009104616331       -2.27799180533726
H            7.87892818017059       -5.22590122284190       -0.90722115102156
H            6.47151577123456       -6.92395134606506        0.72860431206527
H            4.78956240411448       -7.98620607946163        2.19780234165148
H            2.74055176792819       -6.79462206925918        2.81682679212601
H            2.28277271133108       -4.52810824215925        1.96911709246368
H            4.35966800081323       -0.64044366547989        0.82627465891335
H            2.54292697352691        0.98335813509032        0.95684925722210
H           -0.50859483806225        1.87848458654424        2.77115599881392
H            0.11417533687262        4.24605660356521        3.19095555239711
H            2.30769725205256        8.73254295787134        1.21043469507548
H            3.38478763517392        9.82358666545124       -0.73294604697165
H            3.80991430900767        8.49766700538720       -2.79007563033412
H            3.14471480366725        6.11727210195103       -2.87041533478266
H            1.24338696297339        2.18465818910496       -1.13423804800257
H           -2.00430283432202        2.23455111718846        0.47003534523588
H           -4.36569699169099        1.71343990920714        0.14010841049850
H           -4.18862560977950       -2.02537794092298       -2.47287826311107
H           -5.53835351722701       -3.36353335820403       -4.03654573260238
H           -7.96087088102637       -3.58731962159733       -3.74554431386536
H           -9.11870176247004       -2.44096519283948       -1.88561478497724
H           -9.76304884698363       -0.95664171294488        0.32881513754327
H           -9.73066880254930        0.49366493087967        2.33146273934294
H           -7.61796900746079        1.38322689894913        3.19621574481288
H           -5.47925086932185        0.88713605184871        2.08489732067127
H           -3.38601952086968       -2.41277364019888       -0.29013101194830

          :  Hamiltonian                  GFN2-xTB          :
         :: gradient norm              0.000058198718 Eh/a0 ::
         :: HOMO-LUMO gap              0.456758430719 eV    ::
         :: SCC energy              -147.979280111069 Eh    ::
         :: -> dispersion             -0.136029059515 Eh    ::
         :: -> Gsolv                  -0.077600348802 Eh    ::
         :: repulsion energy           2.582609478133 Eh    ::

    * Orbital Energies and Occupations

         #    Occupation            Energy/Eh            Energy/eV
      -------------------------------------------------------------
         1        2.0000           -0.7222190             -19.6526
       ...           ...                  ...                  ...
       124        2.0000           -0.4139364             -11.2638
       125        2.0000           -0.4137439             -11.2585
       126        2.0000           -0.4105183             -11.1708
       127        2.0000           -0.4038984             -10.9906
       128        2.0000           -0.3964495             -10.7879
       129        2.0000           -0.3877607             -10.5515
       130        2.0000           -0.3875734             -10.5464
       131        2.0000           -0.3861868             -10.5087
       132        2.0000           -0.3736188             -10.1667
       133        1.9979           -0.3665625              -9.9747
       134        1.9188           -0.3630104              -9.8780
       135        1.0833           -0.3584271              -9.7533
       136        0.9999           -0.2759724              -7.5096 (HOMO)
       137        0.0001           -0.2591869              -7.0528 (LUMO)
       138        0.0000           -0.2536442              -6.9020
       139                         -0.2502190              -6.8088
       140                         -0.2450682              -6.6686
       141                         -0.2441992              -6.6450
       142                         -0.2399722              -6.5300
       143                         -0.2312742              -6.2933
       144                         -0.2310698              -6.2877
       145                         -0.2279982              -6.2041
       146                         -0.2248669              -6.1189
       147                         -0.2189124              -5.9569
       ...                                ...                  ...
       268                          0.7350878              20.0028
      -------------------------------------------------------------
                  HL-Gap            0.0167855 Eh            0.4568 eV

     #   Z          covCN         q      C6AA      α(0)
     1   6 C        3.761    -0.111    22.664     6.786
     2   6 C        3.910     0.026    20.081     6.369
     3   6 C        3.761    -0.110    22.646     6.784
     4   6 C        2.978     0.001    28.001     8.680
     5   6 C        2.928    -0.048    29.185     8.860
     6   6 C        2.911     0.061    26.624     8.461
     7   7 N        2.801    -0.020    21.634     6.908
     8   6 C        3.069     0.046    26.908     8.506
     9   6 C        2.909    -0.046    29.145     8.852
    10   6 C        2.923    -0.031    28.785     8.798
    11   6 C        2.920    -0.036    28.901     8.816
    12   6 C        2.912    -0.031    28.778     8.797
    13   6 C        3.065    -0.013    28.268     8.718
    14   6 C        3.065    -0.012    28.258     8.717
    15   6 C        2.912    -0.031    28.769     8.795
    16   6 C        2.920    -0.036    28.906     8.817
    17   6 C        2.923    -0.032    28.798     8.800
    18   6 C        2.910    -0.048    29.188     8.859
    19   6 C        3.069     0.045    26.922     8.508
    20   6 C        2.919    -0.039    28.972     8.827
    21   6 C        2.922    -0.043    29.063     8.841
    22   6 C        2.930     0.060    26.665     8.468
    23   7 N        2.756    -0.008    21.413     6.873
    24   6 C        2.925     0.049    26.892     8.504
    25   6 C        2.917    -0.063    29.572     8.917
    26   6 C        2.991    -0.046    29.124     8.853
    27   6 C        2.965     0.034    27.236     8.560
    28  16 S        2.151    -0.126   146.328    20.359
    29   6 C        2.969     0.034    27.233     8.560
    30   6 C        2.990    -0.044    29.089     8.847
    31   6 C        2.919    -0.044    29.091     8.845
    32   6 C        2.914    -0.036    28.896     8.815
    33   6 C        2.929    -0.036    28.907     8.817
    34   6 C        2.992    -0.026    28.631     8.777
    35   6 C        2.835     0.160    24.544     8.119
    36   8 O        0.858    -0.565    25.281     6.741
    37   6 C        2.991    -0.030    28.736     8.793
    38   6 C        2.929    -0.047    29.170     8.857
    39   6 C        2.930     0.059    26.677     8.470
    40   6 C        2.922    -0.044    29.099     8.846
    41   6 C        2.919    -0.040    28.989     8.829
    42   6 C        2.910     0.061    26.628     8.462
    43   7 N        2.801    -0.019    21.624     6.907
    44   6 C        3.069     0.045    26.927     8.509
    45   6 C        2.910    -0.048    29.188     8.859
    46   6 C        2.923    -0.032    28.799     8.800
    47   6 C        2.920    -0.036    28.906     8.817
    48   6 C        2.912    -0.031    28.772     8.796
    49   6 C        3.065    -0.013    28.262     8.717
    50   6 C        3.065    -0.013    28.265     8.718
    51   6 C        2.912    -0.031    28.776     8.796
    52   6 C        2.920    -0.036    28.905     8.816
    53   6 C        2.923    -0.032    28.792     8.799
    54   6 C        2.910    -0.047    29.163     8.855
    55   6 C        3.069     0.045    26.918     8.507
    56   6 C        2.928    -0.048    29.185     8.860
    57   6 C        2.978     0.001    27.998     8.679
    58   1 H        0.925     0.056     2.248     2.345
    59   1 H        0.925     0.041     2.436     2.441
    60   1 H        0.925     0.056     2.249     2.345
    61   1 H        0.925     0.038     2.477     2.461
    62   1 H        0.925     0.055     2.260     2.351
    63   1 H        0.925     0.056     2.247     2.344
    64   1 H        0.926     0.066     2.133     2.284
    65   1 H        0.926     0.035     2.511     2.478
    66   1 H        0.926     0.035     2.518     2.481
    67   1 H        0.926     0.036     2.508     2.477
    68   1 H        0.926     0.039     2.456     2.451
    69   1 H        0.926     0.038     2.476     2.461
    70   1 H        0.926     0.036     2.500     2.473
    71   1 H        0.926     0.040     2.453     2.449
    72   1 H        0.926     0.043     2.413     2.429
    73   1 H        0.926     0.053     2.277     2.360
    74   1 H        0.926     0.049     2.337     2.391
    75   1 H        0.926     0.042     2.419     2.432
    76   1 H        0.926     0.044     2.393     2.419
    77   1 H        0.926     0.035     2.521     2.483
    78   1 H        0.926     0.032     2.561     2.503
    79   1 H        0.926     0.029     2.604     2.524
    80   1 H        0.926     0.032     2.560     2.502
    81   1 H        0.926     0.042     2.424     2.434
    82   1 H        0.926     0.051     2.305     2.374
    83   1 H        0.926     0.056     2.248     2.345
    84   1 H        0.926     0.041     2.430     2.438
    85   1 H        0.926     0.038     2.472     2.458
    86   1 H        0.926     0.035     2.510     2.477
    87   1 H        0.926     0.038     2.477     2.461
    88   1 H        0.926     0.038     2.471     2.458
    89   1 H        0.926     0.035     2.510     2.478
    90   1 H        0.926     0.037     2.486     2.466
    91   1 H        0.926     0.039     2.460     2.453
    92   1 H        0.926     0.065     2.137     2.286

molecular dipole:
                 x           y           z       tot (Debye)
 q only:       -2.942      -6.408       1.842
   full:       -2.742      -6.038       1.603      17.341

 projected vibrational frequencies (cm⁻¹)
eigval :       -0.00    -0.00     0.00     0.00     0.00     0.00
eigval :       10.28    13.31    14.55    17.62    22.40    25.05
eigval :       29.33    36.16    41.14    44.01    56.54    87.87
eigval :       90.14   103.55   107.88   112.87   116.78   123.63
eigval :      126.43   129.75   130.42   144.90   147.37   162.53
eigval :      177.55   179.10   189.87   201.41   204.17   215.70
eigval :      221.46   241.18   269.85   271.36   275.70   280.15
eigval :      292.38   301.54   310.63   325.27   332.06   338.68
eigval :      348.92   350.68   353.92   358.03   375.08   391.98
eigval :      394.91   403.01   404.54   418.01   420.17   420.79
eigval :      428.95   434.20   436.55   446.03   451.27   454.15
eigval :      462.40   466.67   501.75   514.61   515.89   517.73
eigval :      529.79   531.63   534.97   538.01   538.12   547.36
eigval :      563.99   569.08   574.22   587.13   587.89   593.12
eigval :      600.53   604.30   622.53   628.05   637.80   643.14
eigval :      651.11   658.02   664.66   673.55   674.74   678.11
eigval :      690.75   698.47   702.16   709.70   710.90   712.41
eigval :      751.05   754.52   757.16   760.67   769.54   770.77
eigval :      771.63   780.00   780.69   799.33   825.38   828.20
eigval :      837.82   842.74   855.43   867.31   869.64   870.02
eigval :      873.01   875.44   883.97   886.19   892.89   895.06
eigval :      897.97   898.48   903.42   905.31   907.63   909.98
eigval :      911.12   912.23   918.89   919.10   923.82   924.43
eigval :      928.52   929.57   931.43   958.60   989.15   991.10
eigval :     1003.40  1011.40  1011.87  1012.72  1026.06  1046.64
eigval :     1068.59  1069.34  1072.26  1072.51  1079.99  1085.89
eigval :     1091.40  1116.27  1121.05  1135.13  1138.40  1146.16
eigval :     1146.32  1150.78  1153.37  1155.36  1169.44  1173.29
eigval :     1173.86  1175.01  1177.90  1178.10  1186.41  1186.89
eigval :     1203.35  1209.90  1224.76  1229.57  1229.95  1233.45
eigval :     1234.21  1237.95  1241.04  1248.60  1252.54  1265.61
eigval :     1285.79  1288.56  1292.62  1293.70  1299.14  1311.41
eigval :     1327.13  1330.11  1333.43  1339.10  1349.39  1350.01
eigval :     1354.56  1356.63  1363.09  1364.89  1367.91  1396.46
eigval :     1397.77  1404.27  1410.67  1412.81  1414.89  1417.95
eigval :     1418.57  1418.92  1433.15  1434.62  1445.37  1461.38
eigval :     1464.87  1466.16  1468.77  1480.80  1481.51  1481.55
eigval :     1481.98  1483.95  1492.29  1495.43  1518.27  1519.72
eigval :     1528.45  1542.63  1569.88  1571.07  1571.78  1574.15
eigval :     1580.69  1583.78  1586.62  1587.09  1587.35  1603.30
eigval :     1604.85  3027.31  3030.93  3050.79  3052.86  3058.82
eigval :     3062.71  3068.68  3073.61  3077.52  3077.93  3078.04
eigval :     3078.63  3080.18  3083.79  3084.20  3084.88  3085.35
eigval :     3088.40  3089.59  3091.03  3092.65  3092.74  3093.87
eigval :     3094.12  3097.29  3098.83  3100.23  3100.72  3102.54
eigval :     3103.15  3106.85  3111.24  3111.88  3115.91  3116.41

   temp. (K)  partition function   enthalpy   heat capacity  entropy
                                   cal/mol     cal/K/mol   cal/K/mol   J/K/mol
 298.15  VIB  0.325E+21            26796.593    170.979    164.320
         ROT  0.185E+09              888.752      2.981     40.815
         INT  0.602E+29            27685.346    173.960    205.134
         TR   0.199E+29             1481.254      4.968     45.703
         TOT                       29166.5995   178.9280   250.8373  1049.5033

       T/K    H(0)-H(T)+PV         H(T)/Eh          T*S/Eh         G(T)/Eh
   ------------------------------------------------------------------------
    298.15    0.464799E-01    0.746834E+00    0.119181E+00    0.627653E+00
   ------------------------------------------------------------------------

         :::::::::::::::::::::::::::::::::::::::::::::::::::::
         ::                  THERMODYNAMIC                  ::
         :::::::::::::::::::::::::::::::::::::::::::::::::::::
         :: total free energy        -144.769017594029 Eh   ::
         ::.................................................::
         :: total energy             -145.396670632668 Eh   ::
         :: zero point energy           0.700354006707 Eh   ::
         :: G(RRHO) w/o ZPVE           -0.072700968067 Eh   ::
         :: G(RRHO) contrib.            0.627653038640 Eh   ::
         :::::::::::::::::::::::::::::::::::::::::::::::::::::

           -------------------------------------------------
          | TOTAL ENERGY             -145.396670632668 Eh   |
          | TOTAL ENTHALPY           -144.649836691052 Eh   |
          | TOTAL FREE ENERGY        -144.769017594029 Eh   |
          | GRADIENT NORM               0.000058451791 Eh/α |
          | HOMO-LUMO GAP               0.456757801139 eV   |
           -------------------------------------------------

 * finished run on 2025/07/17 at 22:22:02.789
