   * xtb version 6.7.1 (edcfbbe) compiled by 'albert@albert-system' on 2024-07-22

   ID    Z sym.   atoms
    1    6 C      1-6, 8-22, 24-27, 29-35, 37-42, 44-57
    2    7 N      7, 23, 43
    3   16 S      28
    4    8 O      36
    5    1 H      58-92

          program call               : xtb data2507/toluene/2Cz-DMAC-TXO/2Cz-DMAC-TXO.xyz --gfn 2 --gbsa toluene --ohess vtight --parallel 40 --molden --ceasefiles --namespace data2507/toluene/2Cz-DMAC-TXO/2Cz-DMAC-TXO_toluene_S0_preOpt
      * Solvation model:               GBSA
        Solvent                        toluene
        Solvent mass                       9.2140E+01 g/mol
          :  Hamiltonian                  GFN2-xTB          :
 * total energy  :  -145.4368165 Eh     change       -0.1389083E-08 Eh
 * total energy  :  -145.4555840 Eh     change       -0.1876758E-01 Eh
 * total energy  :  -145.4613955 Eh     change       -0.5811497E-02 Eh
 * total energy  :  -145.4631753 Eh     change       -0.1779736E-02 Eh
 * total energy  :  -145.4644320 Eh     change       -0.1256769E-02 Eh
 * total energy  :  -145.4649064 Eh     change       -0.4743731E-03 Eh
 * total energy  :  -145.4650833 Eh     change       -0.1768432E-03 Eh
 * total energy  :  -145.4651718 Eh     change       -0.8851717E-04 Eh
 * total energy  :  -145.4652208 Eh     change       -0.4905222E-04 Eh
 * total energy  :  -145.4652711 Eh     change       -0.5026200E-04 Eh
 * total energy  :  -145.4658987 Eh     change       -0.1510290E-05 Eh
 * total energy  :  -145.4659002 Eh     change       -0.1536488E-05 Eh
 * total energy  :  -145.4659020 Eh     change       -0.1773428E-05 Eh
 * total energy  :  -145.4659043 Eh     change       -0.2313794E-05 Eh
 * total energy  :  -145.4659071 Eh     change       -0.2864329E-05 Eh
 * total energy  :  -145.4659103 Eh     change       -0.3139609E-05 Eh
 * total energy  :  -145.4659130 Eh     change       -0.2730256E-05 Eh
 * total energy  :  -145.4659151 Eh     change       -0.2053791E-05 Eh
 * total energy  :  -145.4659151 Eh     change       -0.8718359E-08 Eh
   *** GEOMETRY OPTIMIZATION CONVERGED AFTER 68 ITERATIONS ***

 final structure:
================
92
 xtb: 6.7.1 (edcfbbe)
C            0.13357118705056       -3.08413267888150        0.98202292523258
C            0.06699181069510       -1.95028121282288       -0.05806193719131
C            0.02919330870967       -2.53623789281001       -1.48194939377476
C            1.30704657135838       -1.08592372648352        0.07516870752079
C            2.55518944338939       -1.66093377548820       -0.10386627108368
C            3.72773234876502       -0.92136178564564       -0.01373651286387
N            4.97183425559436       -1.54535651927849       -0.21103877428157
C            5.32225075439584       -2.32101510492201       -1.29590929446082
C            4.59042210456939       -2.63025148287970       -2.43452251274147
C            5.18983100408165       -3.42692652272738       -3.39088399929494
C            6.49068072481074       -3.90199421845053       -3.23106719010074
C            7.23233963365051       -3.57840643062388       -2.11226373188878
C            6.65151013766460       -2.77881574072452       -1.13576705028203
C            7.11745523332169       -2.24468314503977        0.11305574417271
C            8.31454791519802       -2.34463282741741        0.81114831351595
C            8.42698594256030       -1.70337239385926        2.02876367936165
C            7.35931718893256       -0.98126500028340        2.55992726302758
C            6.15949133050379       -0.86635535051495        1.88488329158294
C            6.04786141815059       -1.48929665273432        0.64925958265330
C            3.65081149468201        0.43624116664727        0.27120192912307
C            2.41974049531625        1.02261022575168        0.46791005869754
C            1.23855341825457        0.28036637385614        0.37223411504800
N            0.01871830159118        0.90423885059060        0.57257577777798
C           -0.00371079129120        2.29278595072717        0.88051451212765
C            0.08152953725103        2.71439242661349        2.21105806110615
C            0.05690519883407        4.05682739819722        2.50546618016210
C           -0.05359626838726        5.00863610088093        1.48679682110261
S           -0.07800573454752        6.67666743066367        1.99581245782897
C           -0.24061782129849        7.56654641770508        0.49930781814535
C           -0.30301594955930        8.95612066510864        0.61918084390938
C           -0.42925036539890        9.74820952718983       -0.50005463291585
C           -0.49459220344748        9.16381273496534       -1.76232443775949
C           -0.43345772990041        7.79590213279398       -1.88206440219964
C           -0.30659126830160        6.96334708915001       -0.75958296146540
C           -0.25415574016523        5.51459253197970       -0.99990679857513
O           -0.31018268352965        5.06492208629378       -2.14230039627412
C           -0.13693235712189        4.60291993592462        0.15191468856010
C           -0.10896688491671        3.23002113739939       -0.12514955596730
C           -1.17951911029753        0.21707702999575        0.47464341366438
C           -2.38533609082206        0.89302600809752        0.68486051789562
C           -3.59506886144338        0.23766126304672        0.61234311477488
C           -3.62523609353150       -1.11829344079668        0.31134033807766
N           -4.84621727068973       -1.81024123527564        0.22995112328733
C           -5.93503038135111       -1.44237611218862       -0.53179087744381
C           -6.08346329162700       -0.37063456114449       -1.40178042977753
C           -7.28857620427162       -0.23925480870746       -2.06444061759393
C           -8.32514390984701       -1.15255596909546       -1.87817718494453
C           -8.17621428086218       -2.23259205004376       -1.03103906424124
C           -6.97303624874695       -2.38756657130530       -0.35382694258989
C           -6.47388492770933       -3.37116980463437        0.56567214168765
C           -7.01628228735174       -4.52013037462905        1.12803725180822
C           -6.24944673777296       -5.24945986448755        2.01490363448516
C           -4.96194026048095       -4.83789935562353        2.35602782025899
C           -4.40063159811176       -3.69943626081694        1.81070970349671
C           -5.15740611459477       -2.97470271735962        0.89984503422942
C           -2.42837561808969       -1.78894030801794        0.09312003903670
C           -1.20113923758263       -1.15066379829483        0.17683094381064
H            0.14492489579878       -2.66689574626763        1.98749561573487
H            1.03130171519236       -3.68083558756058        0.84859433219449
H           -0.72573145826093       -3.74241787351479        0.89038901123241
H           -0.01038038214214       -1.73144787620806       -2.21432083184060
H            0.91357063184390       -3.13669232179714       -1.67583974613352
H           -0.84422406666788       -3.16732045871756       -1.61926177672326
H            2.63732431853476       -2.71577548399072       -0.31455064839635
H            3.58974521251989       -2.25023844243295       -2.57488351466359
H            4.64005330335959       -3.68431999448375       -4.28482935047987
H            6.92359217498870       -4.52458457607764       -4.00066896149637
H            8.24549640032430       -3.93421767650008       -1.99644734636011
H            9.13722884847347       -2.91608210772820        0.40726911661918
H            9.35066020240257       -1.76653351667637        2.58554501242223
H            7.47258185943915       -0.50280780984939        3.52212263010621
H            5.33283947842088       -0.31632277852687        2.30876714078650
H            4.55025601525008        1.03013054868897        0.32794797398096
H            2.37030755559052        2.07771229587012        0.68739603660943
H            0.16489158732478        1.98068628645694        2.99817101847485
H            0.12077624955729        4.39625304459428        3.52790255625124
H           -0.25040816230614        9.39512050949220        1.60398371934017
H           -0.47691585998174       10.82127424962984       -0.39558507225762
H           -0.59247929247434        9.78071203249062       -2.64214351693456
H           -0.48190994641918        7.31373202144090       -2.84763910819285
H           -0.17464336429026        2.92570144302572       -1.15986507606890
H           -2.37317565266292        1.94675078005941        0.91571915491318
H           -4.51403594113087        0.77246810308186        0.79772112415089
H           -5.28115833721401        0.33406727835420       -1.56205056950727
H           -7.42995565607188        0.58781483748240       -2.74536444865334
H           -9.25387066176455       -1.01293397280550       -2.41216937720581
H           -8.97548990260567       -2.94666645285075       -0.89777573196155
H           -8.01909480468365       -4.83177495448126        0.87544995199299
H           -6.65191542536708       -6.14780739396143        2.46005901109479
H           -4.39186204266560       -5.42124372907942        3.06475361795848
H           -3.41000088290419       -3.37740992372203        2.09386960621673
H           -2.47379004571657       -2.83785754301021       -0.15474443066112

          :  Hamiltonian                  GFN2-xTB          :
         :: gradient norm              0.000067709787 Eh/a0 ::
         :: HOMO-LUMO gap              1.176875064809 eV    ::
         :: SCC energy              -148.061265620801 Eh    ::
         :: -> dispersion             -0.135935839068 Eh    ::
         :: -> Gsolv                  -0.062290810725 Eh    ::
         :: repulsion energy           2.595350546413 Eh    ::

    * Orbital Energies and Occupations

         #    Occupation            Energy/Eh            Energy/eV
      -------------------------------------------------------------
         1        2.0000           -0.7477540             -20.3474
       ...           ...                  ...                  ...
       123        2.0000           -0.4152851             -11.3005
       124        2.0000           -0.4111638             -11.1883
       125        2.0000           -0.4084973             -11.1158
       126        2.0000           -0.4037162             -10.9857
       127        2.0000           -0.4032012             -10.9717
       128        2.0000           -0.4030023             -10.9663
       129        2.0000           -0.4022859             -10.9468
       130        2.0000           -0.3886712             -10.5763
       131        2.0000           -0.3764650             -10.2441
       132        2.0000           -0.3764312             -10.2432
       133        2.0000           -0.3701995             -10.0736
       134        2.0000           -0.3607265              -9.8159
       135        2.0000           -0.3467931              -9.4367 (HOMO)
       136                         -0.3035438              -8.2598 (LUMO)
       137                         -0.2646551              -7.2016
       138                         -0.2521036              -6.8601
       139                         -0.2451789              -6.6717
       140                         -0.2446602              -6.6575
       141                         -0.2430858              -6.6147
       142                         -0.2354803              -6.4077
       143                         -0.2295875              -6.2474
       144                         -0.2287909              -6.2257
       145                         -0.2199433              -5.9850
       146                         -0.2199111              -5.9841
       ...                                ...                  ...
       268                          0.7468187              20.3220
      -------------------------------------------------------------
                  HL-Gap            0.0432493 Eh            1.1769 eV

     #   Z          covCN         q      C6AA      α(0)
     1   6 C        3.761    -0.105    22.554     6.770
     2   6 C        3.909     0.024    20.120     6.376
     3   6 C        3.761    -0.104    22.542     6.768
     4   6 C        2.978    -0.010    28.263     8.721
     5   6 C        2.930    -0.049    29.212     8.864
     6   6 C        2.910     0.050    26.881     8.502
     7   7 N        2.802    -0.046    22.136     6.988
     8   6 C        3.078     0.047    26.858     8.497
     9   6 C        2.909    -0.053    29.312     8.878
    10   6 C        2.923    -0.036    28.894     8.815
    11   6 C        2.919    -0.044    29.088     8.844
    12   6 C        2.912    -0.036    28.885     8.813
    13   6 C        3.068    -0.020    28.436     8.744
    14   6 C        3.068    -0.020    28.436     8.744
    15   6 C        2.912    -0.036    28.886     8.813
    16   6 C        2.919    -0.044    29.089     8.845
    17   6 C        2.924    -0.036    28.893     8.815
    18   6 C        2.909    -0.053    29.304     8.876
    19   6 C        3.078     0.047    26.857     8.496
    20   6 C        2.921    -0.045    29.121     8.849
    21   6 C        2.924    -0.058    29.440     8.898
    22   6 C        2.928     0.055    26.759     8.483
    23   7 N        2.754    -0.063    22.461     7.039
    24   6 C        2.923     0.068    26.486     8.440
    25   6 C        2.921    -0.029    28.735     8.791
    26   6 C        2.993    -0.035    28.870     8.814
    27   6 C        2.967     0.046    26.975     8.519
    28  16 S        2.163    -0.039   142.680    20.104
    29   6 C        2.968     0.047    26.937     8.513
    30   6 C        2.994    -0.036    28.878     8.815
    31   6 C        2.920    -0.017    28.432     8.744
    32   6 C        2.915    -0.028    28.701     8.785
    33   6 C        2.929    -0.017    28.430     8.744
    34   6 C        2.995    -0.024    28.591     8.771
    35   6 C        2.832     0.221    23.352     7.919
    36   8 O        0.858    -0.447    22.650     6.381
    37   6 C        2.996    -0.023    28.565     8.767
    38   6 C        2.931    -0.027    28.683     8.783
    39   6 C        2.928     0.055    26.758     8.483
    40   6 C        2.924    -0.058    29.438     8.898
    41   6 C        2.921    -0.045    29.122     8.849
    42   6 C        2.910     0.050    26.880     8.502
    43   7 N        2.802    -0.046    22.135     6.988
    44   6 C        3.078     0.047    26.855     8.496
    45   6 C        2.909    -0.052    29.299     8.876
    46   6 C        2.924    -0.036    28.892     8.815
    47   6 C        2.919    -0.044    29.088     8.844
    48   6 C        2.912    -0.036    28.887     8.813
    49   6 C        3.068    -0.020    28.435     8.744
    50   6 C        3.067    -0.020    28.435     8.744
    51   6 C        2.912    -0.035    28.883     8.813
    52   6 C        2.919    -0.044    29.088     8.844
    53   6 C        2.923    -0.036    28.894     8.815
    54   6 C        2.909    -0.053    29.314     8.878
    55   6 C        3.078     0.047    26.858     8.496
    56   6 C        2.930    -0.049    29.213     8.864
    57   6 C        2.979    -0.010    28.264     8.721
    58   1 H        0.925     0.034     2.533     2.489
    59   1 H        0.925     0.045     2.387     2.416
    60   1 H        0.925     0.045     2.385     2.415
    61   1 H        0.925     0.032     2.560     2.502
    62   1 H        0.925     0.045     2.388     2.417
    63   1 H        0.925     0.044     2.391     2.418
    64   1 H        0.926     0.046     2.371     2.408
    65   1 H        0.926     0.030     2.589     2.516
    66   1 H        0.926     0.028     2.610     2.526
    67   1 H        0.926     0.026     2.649     2.545
    68   1 H        0.926     0.028     2.616     2.529
    69   1 H        0.926     0.028     2.616     2.529
    70   1 H        0.926     0.026     2.646     2.544
    71   1 H        0.926     0.029     2.608     2.525
    72   1 H        0.926     0.029     2.601     2.522
    73   1 H        0.926     0.040     2.455     2.450
    74   1 H        0.926     0.031     2.569     2.507
    75   1 H        0.926     0.066     2.128     2.281
    76   1 H        0.926     0.068     2.102     2.267
    77   1 H        0.926     0.060     2.195     2.317
    78   1 H        0.926     0.060     2.199     2.319
    79   1 H        0.926     0.054     2.268     2.355
    80   1 H        0.926     0.061     2.193     2.316
    81   1 H        0.926     0.068     2.110     2.272
    82   1 H        0.926     0.031     2.573     2.509
    83   1 H        0.926     0.039     2.457     2.451
    84   1 H        0.926     0.027     2.625     2.533
    85   1 H        0.926     0.027     2.624     2.533
    86   1 H        0.926     0.026     2.647     2.544
    87   1 H        0.926     0.028     2.610     2.526
    88   1 H        0.926     0.028     2.618     2.530
    89   1 H        0.926     0.026     2.646     2.544
    90   1 H        0.926     0.029     2.600     2.522
    91   1 H        0.926     0.031     2.574     2.509
    92   1 H        0.926     0.046     2.370     2.407

molecular dipole:
                 x           y           z       tot (Debye)
 q only:        0.039       1.793       1.646
   full:        0.021       1.878       1.472       6.066

 projected vibrational frequencies (cm⁻¹)
eigval :       -0.00     0.00     0.00     0.00     0.00     0.00
eigval :       -1.44    11.18    12.90    16.40    19.55    22.46
eigval :       25.51    32.80    36.10    43.73    49.94    90.63
eigval :       92.34   104.19   106.06   109.83   113.43   122.40
eigval :      124.49   127.46   128.20   142.58   144.45   151.70
eigval :      175.93   177.45   186.66   198.83   201.53   208.73
eigval :      212.36   240.61   270.78   271.72   277.17   280.26
eigval :      290.88   299.65   312.33   326.95   333.55   340.14
eigval :      351.25   355.95   360.02   372.12   379.25   394.40
eigval :      395.78   402.78   418.03   419.79   421.77   422.83
eigval :      424.89   432.04   434.91   451.32   453.06   454.77
eigval :      465.44   466.20   489.85   507.37   517.69   518.10
eigval :      527.29   529.15   533.93   540.30   542.46   543.82
eigval :      562.23   570.50   582.66   587.44   589.55   603.04
eigval :      606.31   613.05   627.75   636.09   646.41   650.28
eigval :      665.60   672.49   673.82   675.88   679.89   683.06
eigval :      692.26   699.69   707.59   709.14   724.20   725.31
eigval :      752.27   755.28   763.04   768.45   771.07   779.58
eigval :      781.56   785.94   801.44   820.44   824.51   826.86
eigval :      842.89   867.42   867.98   870.76   873.09   882.39
eigval :      889.60   890.66   892.31   894.53   898.36   899.19
eigval :      899.67   900.99   904.68   905.66   911.67   914.44
eigval :      916.13   921.36   922.04   923.56   923.97   924.46
eigval :      926.80   929.04   932.84   955.93   991.37   991.53
eigval :     1006.04  1011.01  1011.31  1011.65  1043.72  1067.74
eigval :     1068.06  1068.56  1071.35  1071.85  1083.69  1088.34
eigval :     1094.46  1120.11  1123.84  1135.75  1144.97  1150.23
eigval :     1150.49  1155.48  1158.51  1159.22  1171.30  1172.81
eigval :     1175.51  1176.19  1180.83  1181.60  1187.34  1188.10
eigval :     1201.32  1220.36  1227.44  1232.85  1235.76  1235.99
eigval :     1236.58  1242.23  1252.16  1256.73  1260.42  1271.09
eigval :     1297.53  1298.11  1302.80  1305.10  1306.51  1322.03
eigval :     1323.86  1330.79  1339.06  1340.63  1355.90  1356.10
eigval :     1361.34  1361.70  1369.68  1382.38  1386.75  1399.10
eigval :     1399.47  1415.38  1418.04  1422.61  1427.91  1428.54
eigval :     1433.30  1439.37  1442.28  1448.70  1474.22  1475.11
eigval :     1477.72  1485.15  1487.53  1487.61  1487.77  1497.03
eigval :     1498.79  1500.23  1535.05  1554.50  1557.82  1569.88
eigval :     1572.11  1575.77  1577.73  1580.59  1586.82  1587.08
eigval :     1593.70  1596.73  1596.83  1599.82  1612.46  1613.10
eigval :     1613.45  3021.69  3024.80  3040.13  3042.60  3049.53
eigval :     3053.85  3068.92  3069.00  3069.28  3069.34  3074.39
eigval :     3074.56  3075.30  3075.39  3081.75  3082.85  3083.84
eigval :     3084.25  3086.67  3089.27  3089.33  3089.68  3089.88
eigval :     3090.65  3091.37  3092.15  3092.27  3093.14  3096.16
eigval :     3098.81  3099.44  3103.06  3103.34  3104.08  3104.18

   temp. (K)  partition function   enthalpy   heat capacity  entropy
                                   cal/mol     cal/K/mol   cal/K/mol   J/K/mol
 298.15  VIB  0.709E+22            26775.132    169.589    166.882
         ROT  0.187E+09              888.752      2.981     40.834
         INT  0.133E+31            27663.885    172.570    207.716
         TR   0.199E+29             1481.254      4.968     45.703
         TOT                       29145.1386   177.5377   253.4186  1060.3032

       T/K    H(0)-H(T)+PV         H(T)/Eh          T*S/Eh         G(T)/Eh
   ------------------------------------------------------------------------
    298.15    0.464457E-01    0.749282E+00    0.120407E+00    0.628875E+00
   ------------------------------------------------------------------------

         :::::::::::::::::::::::::::::::::::::::::::::::::::::
         ::                  THERMODYNAMIC                  ::
         :::::::::::::::::::::::::::::::::::::::::::::::::::::
         :: total free energy        -144.837040570303 Eh   ::
         ::.................................................::
         :: total energy             -145.465915070638 Eh   ::
         :: zero point energy           0.702836096319 Eh   ::
         :: G(RRHO) w/o ZPVE           -0.073961595984 Eh   ::
         :: G(RRHO) contrib.            0.628874500335 Eh   ::
         :::::::::::::::::::::::::::::::::::::::::::::::::::::

           -------------------------------------------------
          | TOTAL ENERGY             -145.465915070638 Eh   |
          | TOTAL ENTHALPY           -144.716633239519 Eh   |
          | TOTAL FREE ENERGY        -144.837040570303 Eh   |
          | GRADIENT NORM               0.000067705947 Eh/α |
          | HOMO-LUMO GAP               1.176874553088 eV   |
           -------------------------------------------------

 * finished run on 2025/07/17 at 22:06:27.218
