   * xtb version 6.7.1 (edcfbbe) compiled by 'albert@albert-system' on 2024-07-22

   ID    Z sym.   atoms
    1    6 C      1-6, 8-22, 24-27, 29-35, 37-42, 44-57
    2    7 N      7, 23, 43
    3   16 S      28
    4    8 O      36
    5    1 H      58-92

          program call               : xtb data2507/toluene/2Cz-DMAC-TXO/2Cz-DMAC-TXO_toluene_S0_finalOpt.xtbopt.xyz --gfn 2 --uhf 2 --gbsa toluene --ohess vtight --parallel 40 --molden --ceasefiles --namespace data2507/toluene/2Cz-DMAC-TXO/2Cz-DMAC-TXO_toluene_T1_preOpt
      * Solvation model:               GBSA
        Solvent                        toluene
        Solvent mass                       9.2140E+01 g/mol
          :  Hamiltonian                  GFN2-xTB          :
 * total energy  :  -145.3912760 Eh     change       -0.8338108E-07 Eh
 * total energy  :  -145.3950429 Eh     change       -0.3766893E-02 Eh
 * total energy  :  -145.3961653 Eh     change       -0.1122460E-02 Eh
 * total energy  :  -145.3962821 Eh     change       -0.1167419E-03 Eh
 * total energy  :  -145.3963478 Eh     change       -0.6575306E-04 Eh
 * total energy  :  -145.3963847 Eh     change       -0.3686085E-04 Eh
 * total energy  :  -145.3964081 Eh     change       -0.2345240E-04 Eh
 * total energy  :  -145.3964268 Eh     change       -0.1867345E-04 Eh
 * total energy  :  -145.3964369 Eh     change       -0.1010806E-04 Eh
 * total energy  :  -145.3964616 Eh     change       -0.2464382E-04 Eh
 * total energy  :  -145.3966190 Eh     change       -0.2227640E-05 Eh
 * total energy  :  -145.3966214 Eh     change       -0.2363034E-05 Eh
 * total energy  :  -145.3966240 Eh     change       -0.2596797E-05 Eh
 * total energy  :  -145.3966266 Eh     change       -0.2644410E-05 Eh
 * total energy  :  -145.3966289 Eh     change       -0.2289656E-05 Eh
 * total energy  :  -145.3966308 Eh     change       -0.1871357E-05 Eh
 * total energy  :  -145.3966322 Eh     change       -0.1400543E-05 Eh
 * total energy  :  -145.3966333 Eh     change       -0.1114723E-05 Eh
 * total energy  :  -145.3966333 Eh     change       -0.3784749E-08 Eh
   *** GEOMETRY OPTIMIZATION CONVERGED AFTER 44 ITERATIONS ***

 final structure:
================
92
 xtb: 6.7.1 (edcfbbe)
C            0.94131900514566       -3.35729567016024        0.99597477595551
C            0.65346645099694       -2.27003803456568       -0.05767984288601
C            0.74813453289210       -2.86501969678088       -1.47608079564017
C            1.68646607438502       -1.17049741624556        0.07041324053386
C            3.02282820634011       -1.47420980370405       -0.11879909632977
C            4.02185130096688       -0.50781954682575       -0.02715823661005
N            5.35645421783570       -0.85667551871415       -0.22030979574883
C            5.85160446983633       -1.62105051764048       -1.26251815308768
C            5.19105027329695       -2.15087875423731       -2.36245068024291
C            5.93997859582184       -2.85255695198760       -3.28959693584076
C            7.31444415336853       -3.01730908427933       -3.13840234966832
C            7.98287819790255       -2.46433749436735       -2.06138210624428
C            7.25134523725849       -1.75730198168016       -1.11790612512727
C            7.61120048075464       -1.04033382459099        0.07728865340075
C            8.81270098965020       -0.83626782929273        0.74019692887017
C            8.80580263078319       -0.09880039856659        1.91009987680554
C            7.61876412159902        0.41484700417222        2.42611208526831
C            6.40923775064728        0.22196102245199        1.78377660890553
C            6.41442576847481       -0.49270520851693        0.59386957953633
C            3.66077423939457        0.81359385500541        0.24416189941583
C            2.33888684089503        1.13658668090577        0.42335389928451
C            1.33257866272441        0.15870664314747        0.36141682357553
N            0.01806867735049        0.51856287695989        0.55392871277859
C           -0.29350127330096        1.88272064612463        0.81691492880979
C            0.03225981732109        2.44596948704864        2.05364849232587
C           -0.28698487761506        3.77944349899765        2.27709676685041
C           -0.90362681005129        4.54226808526233        1.30175227965209
S           -1.26086511687288        6.21056777044831        1.73040661119641
C           -1.97078733881290        6.87877884375863        0.25849862218493
C           -2.30652700280586        8.22137720307382        0.30534700683844
C           -2.87573806352676        8.84524778915276       -0.79469774070410
C           -3.10508916004624        8.10720081972917       -1.94919316691680
C           -2.76661858537585        6.77472467920338       -1.99703120119537
C           -2.19087306208356        6.11014438548830       -0.89571313975932
C           -1.86344884569224        4.70554897641229       -1.04028466778293
O           -2.13055718685311        4.09979940856625       -2.13144490595891
C           -1.23236503462563        3.99641560258891        0.03969598875917
C           -0.91156028964849        2.63405173045872       -0.15877238748924
C           -1.00676018689604       -0.39490010131438        0.45759265003890
C           -2.32897097623430        0.01347469064510        0.69780699445241
C           -3.37634935315420       -0.86863238693592        0.60685263949866
C           -3.13119303230931       -2.20739019107028        0.29383751090520
N           -4.17822384246969       -3.12078990998947        0.19835795662714
C           -5.35262157846408       -2.93420931022746       -0.50924361160277
C           -5.74246151678725       -1.86971612345977       -1.31021426220961
C           -6.96876957153263       -1.95512361767979       -1.94422743933049
C           -7.78571191911864       -3.07359851589168       -1.79961015516605
C           -7.38935606261285       -4.14917515915337       -1.02591313747087
C           -6.16393235965337       -4.08491731534223       -0.37877175474024
C           -5.44119708479998       -5.00286158833011        0.46215897784916
C           -5.72830975845288       -6.26481694529617        0.96231542274168
C           -4.80392336388561       -6.87440836405975        1.79095959383494
C           -3.61801061788972       -6.23137379378991        2.13614024132838
C           -3.31150338439659       -4.97328907122093        1.65029838761057
C           -4.22061810489241       -4.37039611325694        0.79183984952946
C           -1.81717008262372       -2.62259658237980        0.09092195900871
C           -0.74964151824211       -1.74596834419918        0.16483324423521
H            1.95377396125800       -3.73513743864601        0.89268041480049
H            0.25563177377387       -4.19123892433316        0.88282994976188
H            0.82767921783902       -2.94552973165493        1.99686037864034
H            0.57196352413368       -2.08858980290449       -2.21827418467020
H            1.73022271380511       -3.29446547397686       -1.64806081483334
H            0.00855106188227       -3.64724543888747       -1.61632741429004
H            3.31844126367336       -2.49135404479386       -0.31910466109990
H            4.13217592923426       -2.00344290734385       -2.50678887713300
H            5.44861747905834       -3.27621924364024       -4.15300081012706
H            7.86525440744968       -3.57309876227373       -3.88259441283542
H            9.05187777325870       -2.57232354888031       -1.95810757955574
H            9.73076237048210       -1.25003194860225        0.35155376682396
H            9.73091034562933        0.07431571434955        2.43959613839387
H            7.64162428009634        0.97267353890738        3.35062304544975
H            5.49355716659343        0.60820900539094        2.20394084836549
H            4.41432559106715        1.58474823343650        0.27341608170618
H            2.06544118471227        2.16489145920070        0.59510032332306
H            0.50469306728497        1.85400157111320        2.82036193184175
H           -0.06456621193611        4.23670629449013        3.22932878099833
H           -2.11690937174191        8.77544815229763        1.21349589854196
H           -3.13591839484906        9.89136738066771       -0.74704451935265
H           -3.55179736592248        8.57726416110893       -2.81365032829261
H           -2.93499888596453        6.18369193941688       -2.88615529041655
H           -1.15631148370047        2.20775210947769       -1.12047535895987
H           -2.52454486053133        1.03865085253004        0.96743583956127
H           -4.38187835145883       -0.53639998538238        0.81172147521409
H           -5.11029654247155       -1.00580254232811       -1.44793112988520
H           -7.29595530353116       -1.13716712196451       -2.56906643620752
H           -8.73715555524573       -3.10168535848687       -2.30961082148539
H           -8.01503585081122       -5.02359051014079       -0.93104736565165
H           -6.65781734942806       -6.75407839376176        0.71406113099205
H           -5.00731697677050       -7.85769477925226        2.18826152583862
H           -2.92538446953729       -6.72253942056528        2.80339175004974
H           -2.40364047977366       -4.47262101322515        1.94799540707875
H           -1.64554889593138       -3.65690695237049       -0.15982488620725

          :  Hamiltonian                  GFN2-xTB          :
         :: gradient norm              0.000053996861 Eh/a0 ::
         :: HOMO-LUMO gap              0.461088580599 eV    ::
         :: SCC energy              -147.979280246648 Eh    ::
         :: -> dispersion             -0.135966745559 Eh    ::
         :: -> Gsolv                  -0.077512410477 Eh    ::
         :: repulsion energy           2.582646932806 Eh    ::

    * Orbital Energies and Occupations

         #    Occupation            Energy/Eh            Energy/eV
      -------------------------------------------------------------
         1        2.0000           -0.7222531             -19.6535
       ...           ...                  ...                  ...
       124        2.0000           -0.4138612             -11.2617
       125        2.0000           -0.4137652             -11.2591
       126        2.0000           -0.4105683             -11.1721
       127        2.0000           -0.4039480             -10.9920
       128        2.0000           -0.3965195             -10.7898
       129        2.0000           -0.3876647             -10.5489
       130        2.0000           -0.3875926             -10.5469
       131        2.0000           -0.3860529             -10.5050
       132        2.0000           -0.3735884             -10.1659
       133        1.9977           -0.3666019              -9.9757
       134        1.9191           -0.3631541              -9.8819
       135        1.0832           -0.3585660              -9.7571
       136        0.9999           -0.2760539              -7.5118 (HOMO)
       137        0.0001           -0.2591099              -7.0507 (LUMO)
       138        0.0000           -0.2535855              -6.9004
       139                         -0.2502447              -6.8095
       140                         -0.2451751              -6.6716
       141                         -0.2442546              -6.6465
       142                         -0.2399005              -6.5280
       143                         -0.2311570              -6.2901
       144                         -0.2310845              -6.2881
       145                         -0.2279672              -6.2033
       146                         -0.2249120              -6.1202
       147                         -0.2189571              -5.9581
       ...                                ...                  ...
       268                          0.7350872              20.0027
      -------------------------------------------------------------
                  HL-Gap            0.0169440 Eh            0.4611 eV

     #   Z          covCN         q      C6AA      α(0)
     1   6 C        3.761    -0.111    22.666     6.787
     2   6 C        3.910     0.026    20.081     6.369
     3   6 C        3.761    -0.110    22.644     6.784
     4   6 C        2.978     0.001    27.997     8.679
     5   6 C        2.928    -0.047    29.178     8.858
     6   6 C        2.911     0.061    26.631     8.462
     7   7 N        2.801    -0.020    21.633     6.908
     8   6 C        3.069     0.045    26.924     8.508
     9   6 C        2.910    -0.048    29.188     8.859
    10   6 C        2.923    -0.032    28.798     8.800
    11   6 C        2.920    -0.037    28.908     8.817
    12   6 C        2.912    -0.031    28.773     8.796
    13   6 C        3.065    -0.013    28.265     8.718
    14   6 C        3.065    -0.013    28.268     8.718
    15   6 C        2.912    -0.031    28.776     8.796
    16   6 C        2.920    -0.036    28.907     8.817
    17   6 C        2.923    -0.032    28.792     8.799
    18   6 C        2.910    -0.047    29.162     8.855
    19   6 C        3.070     0.045    26.916     8.507
    20   6 C        2.919    -0.040    28.983     8.828
    21   6 C        2.922    -0.044    29.105     8.847
    22   6 C        2.930     0.059    26.675     8.470
    23   7 N        2.756    -0.008    21.417     6.873
    24   6 C        2.925     0.049    26.893     8.504
    25   6 C        2.917    -0.063    29.573     8.918
    26   6 C        2.991    -0.046    29.125     8.853
    27   6 C        2.965     0.034    27.235     8.560
    28  16 S        2.151    -0.126   146.322    20.359
    29   6 C        2.969     0.034    27.233     8.560
    30   6 C        2.990    -0.044    29.088     8.847
    31   6 C        2.919    -0.044    29.090     8.845
    32   6 C        2.914    -0.036    28.895     8.815
    33   6 C        2.929    -0.036    28.907     8.817
    34   6 C        2.992    -0.026    28.630     8.777
    35   6 C        2.835     0.160    24.543     8.119
    36   8 O        0.858    -0.565    25.270     6.740
    37   6 C        2.991    -0.030    28.734     8.793
    38   6 C        2.930    -0.047    29.169     8.857
    39   6 C        2.930     0.060    26.663     8.468
    40   6 C        2.922    -0.043    29.063     8.841
    41   6 C        2.919    -0.039    28.970     8.826
    42   6 C        2.911     0.061    26.624     8.461
    43   7 N        2.801    -0.020    21.635     6.908
    44   6 C        3.069     0.046    26.908     8.506
    45   6 C        2.909    -0.046    29.144     8.852
    46   6 C        2.923    -0.031    28.785     8.798
    47   6 C        2.920    -0.036    28.901     8.816
    48   6 C        2.912    -0.031    28.777     8.797
    49   6 C        3.065    -0.013    28.268     8.718
    50   6 C        3.065    -0.012    28.259     8.717
    51   6 C        2.912    -0.031    28.769     8.795
    52   6 C        2.920    -0.036    28.906     8.817
    53   6 C        2.923    -0.032    28.798     8.800
    54   6 C        2.910    -0.048    29.187     8.859
    55   6 C        3.069     0.045    26.922     8.508
    56   6 C        2.928    -0.048    29.182     8.859
    57   6 C        2.978     0.001    28.000     8.680
    58   1 H        0.925     0.056     2.249     2.345
    59   1 H        0.925     0.056     2.247     2.344
    60   1 H        0.925     0.041     2.435     2.440
    61   1 H        0.925     0.038     2.479     2.462
    62   1 H        0.925     0.056     2.247     2.344
    63   1 H        0.925     0.055     2.261     2.351
    64   1 H        0.926     0.065     2.140     2.287
    65   1 H        0.926     0.041     2.436     2.441
    66   1 H        0.926     0.038     2.474     2.460
    67   1 H        0.926     0.035     2.511     2.478
    68   1 H        0.926     0.038     2.478     2.462
    69   1 H        0.926     0.038     2.473     2.459
    70   1 H        0.926     0.035     2.511     2.478
    71   1 H        0.926     0.037     2.487     2.466
    72   1 H        0.926     0.039     2.463     2.454
    73   1 H        0.926     0.056     2.250     2.346
    74   1 H        0.926     0.052     2.299     2.371
    75   1 H        0.926     0.043     2.415     2.430
    76   1 H        0.926     0.044     2.393     2.419
    77   1 H        0.926     0.035     2.520     2.483
    78   1 H        0.926     0.032     2.561     2.502
    79   1 H        0.926     0.029     2.604     2.523
    80   1 H        0.926     0.032     2.560     2.502
    81   1 H        0.926     0.042     2.425     2.435
    82   1 H        0.926     0.049     2.337     2.391
    83   1 H        0.926     0.054     2.276     2.359
    84   1 H        0.926     0.035     2.512     2.478
    85   1 H        0.926     0.035     2.517     2.481
    86   1 H        0.926     0.036     2.508     2.477
    87   1 H        0.926     0.039     2.456     2.450
    88   1 H        0.926     0.038     2.475     2.460
    89   1 H        0.926     0.036     2.500     2.472
    90   1 H        0.926     0.040     2.453     2.449
    91   1 H        0.926     0.043     2.412     2.429
    92   1 H        0.926     0.066     2.134     2.284

molecular dipole:
                 x           y           z       tot (Debye)
 q only:        2.700      -6.457       1.854
   full:        2.514      -6.085       1.616      17.230

 projected vibrational frequencies (cm⁻¹)
eigval :       -0.00    -0.00    -0.00    -0.00     0.00     0.00
eigval :        5.38    11.85    14.14    15.58    22.62    24.72
eigval :       29.71    35.57    41.87    44.38    56.18    87.88
eigval :       89.10   101.03   107.42   112.65   116.69   123.86
eigval :      125.24   128.88   131.26   144.32   146.30   162.52
eigval :      176.79   179.54   189.56   200.64   206.38   215.02
eigval :      221.83   241.19   269.46   270.11   275.36   279.03
eigval :      292.30   301.12   310.55   325.41   332.23   338.51
eigval :      348.59   350.34   353.87   357.60   375.13   391.95
eigval :      395.81   403.11   404.22   418.11   420.18   420.62
eigval :      429.12   433.94   436.38   446.62   450.75   454.14
eigval :      462.12   466.62   501.88   514.66   515.79   517.75
eigval :      529.12   531.20   534.17   537.08   537.88   546.67
eigval :      563.54   569.11   574.14   587.01   587.81   593.00
eigval :      600.84   604.34   622.42   628.05   638.02   643.02
eigval :      651.11   657.89   664.53   673.28   674.37   678.35
eigval :      691.52   698.71   702.84   709.86   711.34   712.37
eigval :      751.04   754.53   755.40   760.64   768.10   769.39
eigval :      775.30   779.30   779.79   799.30   824.64   828.44
eigval :      840.23   843.47   854.77   868.02   868.85   869.79
eigval :      872.29   874.36   882.87   886.22   892.65   894.70
eigval :      898.13   898.63   903.02   904.34   907.18   908.80
eigval :      910.42   911.06   917.88   918.69   922.45   924.13
eigval :      927.56   928.18   931.53   958.67   989.19   991.18
eigval :     1003.54  1011.43  1011.86  1012.54  1026.05  1046.51
eigval :     1069.18  1069.35  1072.04  1072.52  1080.08  1085.89
eigval :     1091.41  1116.19  1121.01  1134.51  1138.51  1146.22
eigval :     1146.89  1150.94  1152.86  1155.35  1170.04  1173.45
eigval :     1173.97  1175.34  1177.60  1179.25  1186.83  1187.62
eigval :     1203.55  1209.89  1224.67  1229.99  1230.36  1233.59
eigval :     1234.28  1237.86  1241.04  1248.65  1252.58  1265.86
eigval :     1286.03  1289.00  1292.44  1293.48  1299.05  1311.39
eigval :     1327.21  1329.91  1333.32  1339.15  1349.34  1349.91
eigval :     1354.47  1356.46  1363.19  1364.88  1367.96  1396.81
eigval :     1398.20  1404.28  1410.72  1412.88  1415.23  1418.01
eigval :     1418.52  1418.73  1433.13  1434.65  1445.50  1461.56
eigval :     1464.94  1466.13  1468.99  1480.66  1481.42  1481.57
eigval :     1482.03  1483.96  1491.67  1495.52  1518.19  1519.88
eigval :     1528.61  1542.85  1569.95  1570.96  1571.74  1574.21
eigval :     1580.71  1583.76  1586.57  1587.02  1587.27  1603.22
eigval :     1604.80  3027.58  3030.97  3050.59  3053.00  3058.79
eigval :     3062.79  3069.32  3073.62  3077.35  3077.58  3078.30
eigval :     3079.15  3080.36  3083.29  3083.84  3085.16  3085.50
eigval :     3088.29  3089.36  3090.84  3091.98  3092.64  3093.68
eigval :     3094.14  3096.78  3097.93  3099.82  3100.88  3102.70
eigval :     3103.23  3108.20  3110.65  3110.96  3116.36  3118.22

   temp. (K)  partition function   enthalpy   heat capacity  entropy
                                   cal/mol     cal/K/mol   cal/K/mol   J/K/mol
 298.15  VIB  0.829E+21            26822.662    171.004    165.354
         ROT  0.185E+09              888.752      2.981     40.813
         INT  0.154E+30            27711.415    173.985    206.168
         TR   0.199E+29             1481.254      4.968     45.703
         TOT                       29192.6686   178.9528   251.8706  1053.8265

       T/K    H(0)-H(T)+PV         H(T)/Eh          T*S/Eh         G(T)/Eh
   ------------------------------------------------------------------------
    298.15    0.465215E-01    0.746806E+00    0.119672E+00    0.627134E+00
   ------------------------------------------------------------------------

         :::::::::::::::::::::::::::::::::::::::::::::::::::::
         ::                  THERMODYNAMIC                  ::
         :::::::::::::::::::::::::::::::::::::::::::::::::::::
         :: total free energy        -144.769499055448 Eh   ::
         ::.................................................::
         :: total energy             -145.396633314280 Eh   ::
         :: zero point energy           0.700284623432 Eh   ::
         :: G(RRHO) w/o ZPVE           -0.073150364601 Eh   ::
         :: G(RRHO) contrib.            0.627134258832 Eh   ::
         :::::::::::::::::::::::::::::::::::::::::::::::::::::

           -------------------------------------------------
          | TOTAL ENERGY             -145.396633314280 Eh   |
          | TOTAL ENTHALPY           -144.649827212286 Eh   |
          | TOTAL FREE ENERGY        -144.769499055448 Eh   |
          | GRADIENT NORM               0.000054888249 Eh/α |
          | HOMO-LUMO GAP               0.461070420332 eV   |
           -------------------------------------------------

 * finished run on 2025/07/17 at 22:12:40.763
