   * xtb version 6.7.1 (edcfbbe) compiled by 'albert@albert-system' on 2024-07-22

   ID    Z sym.   atoms
    1    6 C      1-6, 8-22, 24-27, 29-35, 37-42, 44-57
    2    7 N      7, 23, 43
    3   16 S      28
    4    8 O      36
    5    1 H      58-92

          program call               : xtb data2507/toluene/2Cz-DMAC-TXO/2Cz-DMAC-TXO_toluene_S0_crest.xyz --gfn 2 --gbsa toluene --ohess vtight --parallel 40 --molden --ceasefiles --namespace data2507/toluene/2Cz-DMAC-TXO/2Cz-DMAC-TXO_toluene_S0_finalOpt
      * Solvation model:               GBSA
        Solvent                        toluene
        Solvent mass                       9.2140E+01 g/mol
          :  Hamiltonian                  GFN2-xTB          :
 * total energy  :  -145.4656249 Eh     change       -0.1130189E-08 Eh
 * total energy  :  -145.4657265 Eh     change       -0.1016011E-03 Eh
 * total energy  :  -145.4657655 Eh     change       -0.3896659E-04 Eh
 * total energy  :  -145.4657780 Eh     change       -0.1253377E-04 Eh
 * total energy  :  -145.4657872 Eh     change       -0.9171496E-05 Eh
 * total energy  :  -145.4658021 Eh     change       -0.1493450E-04 Eh
 * total energy  :  -145.4658110 Eh     change       -0.8856047E-05 Eh
 * total energy  :  -145.4658284 Eh     change       -0.1741885E-04 Eh
 * total energy  :  -145.4658444 Eh     change       -0.1600565E-04 Eh
 * total energy  :  -145.4658561 Eh     change       -0.1171102E-04 Eh
 * total energy  :  -145.4659325 Eh     change       -0.1533884E-06 Eh
 * total energy  :  -145.4659327 Eh     change       -0.1602075E-06 Eh
 * total energy  :  -145.4659328 Eh     change       -0.1560712E-06 Eh
 * total energy  :  -145.4659330 Eh     change       -0.1338335E-06 Eh
 * total energy  :  -145.4659331 Eh     change       -0.1300474E-06 Eh
 * total energy  :  -145.4659333 Eh     change       -0.1502773E-06 Eh
 * total energy  :  -145.4659334 Eh     change       -0.1500276E-06 Eh
 * total energy  :  -145.4659335 Eh     change       -0.1122003E-06 Eh
 * total energy  :  -145.4659336 Eh     change       -0.8529818E-07 Eh
   *** GEOMETRY OPTIMIZATION CONVERGED AFTER 61 ITERATIONS ***

 final structure:
================
92
 xtb: 6.7.1 (edcfbbe)
C            0.94008787779865       -3.33048154683106        0.98247702443719
C            0.64664290585392       -2.25653849005284       -0.08186620913837
C            0.74038726326159       -2.86659761202407       -1.49283570611390
C            1.67872570183711       -1.15095452815054        0.03428229311896
C            3.01892353031809       -1.45922855107595       -0.13888729300402
C            4.01283066756747       -0.49119937139718       -0.07590613212047
N            5.35986144631020       -0.84984031098841       -0.25740960653645
C            5.86822333478822       -1.56386091168131       -1.32165378279052
C            5.22256157200498       -2.03889934267976       -2.45520405148418
C            5.97830798577481       -2.71615803414812       -3.39261241602042
C            7.34733497110244       -2.91343425594596       -3.21851062100590
C            7.99949376391099       -2.42385910678700       -2.10426908873916
C            7.26114756031009       -1.74013893932814       -1.14621948648869
C            7.59888053919235       -1.09724847584651        0.09268370249589
C            8.78421505370843       -0.94385018220646        0.80106260632353
C            8.75394633117708       -0.26801030058730        2.00473402397601
C            7.55954725113224        0.24285307262857        2.51045517724477
C            6.36811972416419        0.10384749551866        1.82505155755279
C            6.39501627533013       -0.55881632563237        0.60549760045322
C            3.65423538188128        0.82986846169226        0.16069638492664
C            2.32814174069596        1.15337326541322        0.34720377785625
C            1.32709323715802        0.17781081633377        0.29963159286227
N            0.00305854903320        0.53885469286156        0.49693183691254
C           -0.30843692899347        1.89809659334322        0.76448432162228
C           -0.05385956478262        2.44008628183814        2.02888057904154
C           -0.35598045585229        3.75652983105344        2.28296883466170
C           -0.92497984825649        4.56265381600420        1.29197009702258
S           -1.26204327021619        6.21305173981134        1.74476052697131
C           -1.95638492039229        6.90810781641329        0.29849661995705
C           -2.32503079731048        8.25212625841002        0.38353840774502
C           -2.88401270787425        8.89246763401407       -0.69964257190337
C           -3.08509901704570        8.19879948838622       -1.89024516874266
C           -2.72153422045175        6.87604342857352       -1.97614601762912
C           -2.14949252814079        6.19744286529261       -0.88925407749950
C           -1.79714562759241        4.78484746001127       -1.08886468325934
O           -2.00401411455129        4.23237292906630       -2.16722516545340
C           -1.19243315992108        4.03476035885855        0.02581906337191
C           -0.86647133534989        2.69399100961868       -0.21438769468770
C           -1.02524412663350       -0.38829079146874        0.42007934799768
C           -2.34360379145825        0.01365868628824        0.65706149723280
C           -3.38856590681914       -0.88180903126037        0.59454168458888
C           -3.13583707600248       -2.21284221556867        0.28750193152121
N           -4.18446842721418       -3.14589353292812        0.21081998120181
C           -5.32114917974045       -3.02246899894071       -0.55948159533453
C           -5.68862571975685       -2.01047570018123       -1.43589345912821
C           -6.88720301007334       -2.14427689136999       -2.10984531118823
C           -7.70431286547141       -3.25893488838157       -1.92750539287342
C           -7.33572101127764       -4.27745249893400       -1.07126144373171
C           -6.13467849533321       -4.16666986460363       -0.38174246433666
C           -5.44525606538946       -5.01489264089931        0.54968085426054
C           -5.73558811526846       -6.24795069200707        1.12052055919807
C           -4.83882538918203       -6.78936280485645        2.02010842236690
C           -3.67032825587774       -6.11134507271500        2.36407996871483
C           -3.35926176897511       -4.88444580522921        1.81059853532809
C           -4.24582760543457       -4.34515026763374        0.88832191510059
C           -1.82592572552611       -2.61715239724576        0.06562688437405
C           -0.76044610877219       -1.73344376053494        0.13674268705235
H            1.94550008007433       -3.72533077348658        0.86856003767590
H            0.24092096988469       -4.15756928844759        0.89832456060616
H            0.85034591699423       -2.90111655091222        1.97886176692417
H            0.54356736811694       -2.10197985027769       -2.24255188932053
H            1.72985240017388       -3.27831411988260       -1.67035017314261
H            0.01519944943112       -3.66525433359007       -1.61961173239689
H            3.31714644600922       -2.47937187078108       -0.32351404175456
H            4.16662237738262       -1.87247936793322       -2.60630189830239
H            5.49912677671262       -3.09824621191230       -4.28258171642944
H            7.90353665837774       -3.44975302330814       -3.97358431833900
H            9.06290887170979       -2.56446870933747       -1.97814581462004
H            9.70805853851069       -1.34988543924449        0.41619016014091
H            9.66541354178550       -0.13728226514151        2.56980611040651
H            7.56596131569060        0.75626908037618        3.46121954891680
H            5.44477206257338        0.49069571298755        2.22922511687214
H            4.40970038464218        1.60028771012864        0.18642661185249
H            2.06206508666559        2.18456573027947        0.51754507930921
H            0.38142903474544        1.81893930764589        2.79671768012686
H           -0.16255402725350        4.18656599562485        3.25370024158821
H           -2.16372804871246        8.77642409679138        1.31331185727387
H           -3.16594073470028        9.93136773858455       -0.62256589266831
H           -3.52354083537427        8.69629352601936       -2.74138420549765
H           -2.86446307686370        6.31226305611325       -2.88660250847900
H           -1.07445413224372        2.29667311562626       -1.19745056043456
H           -2.55315334214191        1.04250145438709        0.90370982206493
H           -4.39720871303382       -0.55347186476577        0.79411838807914
H           -5.05555714265594       -1.14979489077955       -1.59257813463204
H           -7.19697048799560       -1.36895940070678       -2.79582280720082
H           -8.63516887048190       -3.32538503642718       -2.47178238025208
H           -7.96392027142620       -5.14617066467686       -0.94028624509673
H           -6.64748534990126       -6.76767631313355        0.86585595368385
H           -5.04524792442591       -7.74830653864519        2.47283266642216
H           -2.99549610650880       -6.55389127632220        3.08262610356944
H           -2.46204533422690       -4.35628348527963        2.09578106759552
H           -1.65029933217250       -3.65418156106503       -0.17411422291586

          :  Hamiltonian                  GFN2-xTB          :
         :: gradient norm              0.000035171225 Eh/a0 ::
         :: HOMO-LUMO gap              1.203668776688 eV    ::
         :: SCC energy              -148.061235758287 Eh    ::
         :: -> dispersion             -0.136053455667 Eh    ::
         :: -> Gsolv                  -0.062217373831 Eh    ::
         :: repulsion energy           2.595302158691 Eh    ::

    * Orbital Energies and Occupations

         #    Occupation            Energy/Eh            Energy/eV
      -------------------------------------------------------------
         1        2.0000           -0.7473076             -20.3353
       ...           ...                  ...                  ...
       123        2.0000           -0.4153221             -11.3015
       124        2.0000           -0.4114669             -11.1966
       125        2.0000           -0.4087256             -11.1220
       126        2.0000           -0.4038388             -10.9890
       127        2.0000           -0.4032007             -10.9717
       128        2.0000           -0.4027732             -10.9600
       129        2.0000           -0.4024210             -10.9504
       130        2.0000           -0.3884747             -10.5709
       131        2.0000           -0.3765274             -10.2458
       132        2.0000           -0.3764645             -10.2441
       133        2.0000           -0.3701975             -10.0736
       134        2.0000           -0.3608303              -9.8187
       135        2.0000           -0.3473173              -9.4510 (HOMO)
       136                         -0.3030833              -8.2473 (LUMO)
       137                         -0.2641853              -7.1888
       138                         -0.2514954              -6.8435
       139                         -0.2449502              -6.6654
       140                         -0.2447047              -6.6588
       141                         -0.2430836              -6.6146
       142                         -0.2358498              -6.4178
       143                         -0.2299504              -6.2573
       144                         -0.2290895              -6.2338
       145                         -0.2199870              -5.9862
       146                         -0.2199193              -5.9843
       ...                                ...                  ...
       268                          0.7467765              20.3208
      -------------------------------------------------------------
                  HL-Gap            0.0442340 Eh            1.2037 eV

     #   Z          covCN         q      C6AA      α(0)
     1   6 C        3.761    -0.105    22.556     6.770
     2   6 C        3.909     0.024    20.120     6.376
     3   6 C        3.761    -0.105    22.545     6.769
     4   6 C        2.979    -0.010    28.253     8.719
     5   6 C        2.930    -0.049    29.210     8.863
     6   6 C        2.910     0.050    26.873     8.500
     7   7 N        2.802    -0.046    22.135     6.988
     8   6 C        3.079     0.047    26.859     8.497
     9   6 C        2.909    -0.053    29.313     8.878
    10   6 C        2.923    -0.036    28.893     8.815
    11   6 C        2.919    -0.044    29.088     8.844
    12   6 C        2.912    -0.036    28.884     8.813
    13   6 C        3.067    -0.020    28.436     8.744
    14   6 C        3.068    -0.020    28.435     8.744
    15   6 C        2.912    -0.036    28.885     8.813
    16   6 C        2.919    -0.044    29.089     8.844
    17   6 C        2.924    -0.036    28.891     8.815
    18   6 C        2.909    -0.053    29.304     8.876
    19   6 C        3.078     0.047    26.856     8.496
    20   6 C        2.921    -0.045    29.119     8.849
    21   6 C        2.924    -0.058    29.444     8.898
    22   6 C        2.927     0.055    26.765     8.484
    23   7 N        2.754    -0.061    22.428     7.034
    24   6 C        2.923     0.067    26.502     8.442
    25   6 C        2.921    -0.030    28.750     8.793
    26   6 C        2.993    -0.036    28.880     8.815
    27   6 C        2.967     0.045    26.988     8.521
    28  16 S        2.163    -0.041   142.742    20.108
    29   6 C        2.968     0.047    26.937     8.513
    30   6 C        2.994    -0.036    28.880     8.815
    31   6 C        2.920    -0.017    28.435     8.745
    32   6 C        2.915    -0.028    28.705     8.786
    33   6 C        2.929    -0.017    28.433     8.745
    34   6 C        2.995    -0.024    28.594     8.772
    35   6 C        2.833     0.221    23.356     7.919
    36   8 O        0.858    -0.448    22.668     6.383
    37   6 C        2.996    -0.023    28.573     8.768
    38   6 C        2.931    -0.028    28.703     8.786
    39   6 C        2.927     0.055    26.761     8.484
    40   6 C        2.924    -0.057    29.423     8.895
    41   6 C        2.921    -0.045    29.113     8.848
    42   6 C        2.910     0.050    26.870     8.500
    43   7 N        2.802    -0.047    22.140     6.988
    44   6 C        3.078     0.047    26.853     8.496
    45   6 C        2.909    -0.052    29.295     8.875
    46   6 C        2.924    -0.036    28.890     8.814
    47   6 C        2.919    -0.044    29.087     8.844
    48   6 C        2.912    -0.036    28.886     8.813
    49   6 C        3.068    -0.020    28.436     8.744
    50   6 C        3.067    -0.020    28.434     8.744
    51   6 C        2.912    -0.035    28.883     8.813
    52   6 C        2.919    -0.044    29.088     8.844
    53   6 C        2.923    -0.036    28.893     8.815
    54   6 C        2.909    -0.053    29.314     8.878
    55   6 C        3.079     0.047    26.857     8.496
    56   6 C        2.930    -0.049    29.212     8.864
    57   6 C        2.979    -0.010    28.254     8.719
    58   1 H        0.925     0.045     2.383     2.414
    59   1 H        0.925     0.045     2.383     2.414
    60   1 H        0.925     0.034     2.532     2.489
    61   1 H        0.925     0.032     2.557     2.501
    62   1 H        0.925     0.045     2.384     2.414
    63   1 H        0.925     0.045     2.390     2.417
    64   1 H        0.926     0.046     2.368     2.406
    65   1 H        0.926     0.030     2.591     2.517
    66   1 H        0.926     0.028     2.611     2.527
    67   1 H        0.926     0.026     2.650     2.546
    68   1 H        0.926     0.028     2.617     2.530
    69   1 H        0.926     0.028     2.617     2.530
    70   1 H        0.926     0.026     2.646     2.544
    71   1 H        0.926     0.029     2.606     2.524
    72   1 H        0.926     0.029     2.598     2.521
    73   1 H        0.926     0.040     2.444     2.445
    74   1 H        0.926     0.033     2.538     2.491
    75   1 H        0.926     0.066     2.131     2.283
    76   1 H        0.926     0.068     2.110     2.272
    77   1 H        0.926     0.060     2.199     2.319
    78   1 H        0.926     0.060     2.202     2.321
    79   1 H        0.926     0.054     2.271     2.357
    80   1 H        0.926     0.060     2.196     2.317
    81   1 H        0.926     0.067     2.116     2.275
    82   1 H        0.926     0.031     2.566     2.505
    83   1 H        0.926     0.039     2.462     2.454
    84   1 H        0.926     0.027     2.630     2.536
    85   1 H        0.926     0.027     2.624     2.533
    86   1 H        0.926     0.026     2.645     2.543
    87   1 H        0.926     0.028     2.608     2.525
    88   1 H        0.926     0.028     2.617     2.530
    89   1 H        0.926     0.026     2.644     2.543
    90   1 H        0.926     0.029     2.599     2.521
    91   1 H        0.926     0.031     2.576     2.510
    92   1 H        0.926     0.046     2.365     2.405

molecular dipole:
                 x           y           z       tot (Debye)
 q only:       -0.004       1.811       1.542
   full:       -0.079       1.879       1.371       5.916

 projected vibrational frequencies (cm⁻¹)
eigval :       -0.00    -0.00    -0.00     0.00     0.00     0.00
eigval :        9.46     9.86    13.45    15.38    18.90    22.65
eigval :       28.50    32.18    35.60    44.31    50.92    91.60
eigval :       91.85   103.47   105.25   109.49   113.84   123.79
eigval :      124.34   127.56   128.16   142.46   144.14   154.63
eigval :      175.71   179.87   187.54   200.37   203.49   209.58
eigval :      212.96   240.25   271.23   272.58   277.71   278.95
eigval :      293.56   299.69   312.71   328.42   333.74   340.28
eigval :      352.60   355.52   358.78   372.51   377.54   394.08
eigval :      396.35   403.88   416.87   420.72   421.99   423.84
eigval :      426.20   431.73   434.80   450.82   452.98   453.71
eigval :      465.74   466.93   491.56   507.73   517.63   518.04
eigval :      527.34   529.26   533.83   541.06   541.60   544.05
eigval :      561.58   570.56   583.26   587.31   589.34   603.37
eigval :      605.82   614.05   627.64   636.16   646.19   648.26
eigval :      665.48   672.73   673.49   674.65   679.81   683.61
eigval :      692.50   700.16   707.89   708.89   723.75   724.52
eigval :      752.15   755.12   762.90   767.82   768.29   779.10
eigval :      779.19   784.52   801.33   820.90   822.67   828.35
eigval :      843.88   868.14   869.23   871.09   871.58   881.99
eigval :      890.21   891.31   894.92   895.76   898.65   899.27
eigval :      899.65   900.41   904.30   904.57   913.11   914.14
eigval :      914.80   920.21   921.65   921.75   922.25   922.85
eigval :      923.08   927.59   932.39   957.35   991.78   992.50
eigval :     1006.27  1011.22  1011.53  1015.24  1043.81  1067.66
eigval :     1067.72  1068.28  1070.78  1070.94  1084.04  1087.97
eigval :     1095.01  1119.87  1123.70  1137.53  1145.44  1149.41
eigval :     1149.97  1156.70  1158.64  1160.40  1171.23  1173.09
eigval :     1174.67  1175.47  1179.89  1180.48  1187.14  1187.87
eigval :     1201.20  1220.94  1227.13  1233.07  1235.08  1235.53
eigval :     1236.07  1243.34  1252.17  1257.07  1261.19  1271.68
eigval :     1296.55  1297.57  1302.50  1305.09  1305.66  1320.55
eigval :     1323.28  1330.34  1339.58  1342.05  1355.74  1355.83
eigval :     1361.15  1361.51  1369.63  1381.13  1387.09  1399.15
eigval :     1400.07  1415.09  1418.73  1422.08  1427.61  1428.14
eigval :     1433.16  1439.25  1442.02  1448.72  1473.98  1474.87
eigval :     1477.47  1485.63  1487.31  1487.39  1489.09  1497.63
eigval :     1499.12  1500.56  1534.85  1554.23  1557.90  1569.77
eigval :     1571.95  1575.32  1577.09  1580.27  1586.86  1587.11
eigval :     1593.60  1596.71  1596.79  1599.66  1611.77  1613.03
eigval :     1613.36  3020.78  3024.34  3041.37  3043.67  3050.61
eigval :     3055.00  3068.60  3068.89  3068.89  3069.59  3074.00
eigval :     3074.45  3074.97  3075.55  3081.91  3082.88  3083.80
eigval :     3084.05  3086.08  3088.36  3089.00  3089.77  3091.14
eigval :     3091.33  3091.93  3092.35  3092.45  3093.44  3095.89
eigval :     3099.33  3100.13  3103.63  3103.88  3105.65  3107.34

   temp. (K)  partition function   enthalpy   heat capacity  entropy
                                   cal/mol     cal/K/mol   cal/K/mol   J/K/mol
 298.15  VIB  0.112E+22            26748.687    169.625    164.987
         ROT  0.187E+09              888.752      2.981     40.829
         INT  0.209E+30            27637.439    172.606    205.816
         TR   0.199E+29             1481.254      4.968     45.703
         TOT                       29118.6934   177.5745   251.5190  1052.3553

       T/K    H(0)-H(T)+PV         H(T)/Eh          T*S/Eh         G(T)/Eh
   ------------------------------------------------------------------------
    298.15    0.464036E-01    0.749282E+00    0.119505E+00    0.629777E+00
   ------------------------------------------------------------------------

         :::::::::::::::::::::::::::::::::::::::::::::::::::::
         ::                  THERMODYNAMIC                  ::
         :::::::::::::::::::::::::::::::::::::::::::::::::::::
         :: total free energy        -144.836156447378 Eh   ::
         ::.................................................::
         :: total energy             -145.465933602773 Eh   ::
         :: zero point energy           0.702878339610 Eh   ::
         :: G(RRHO) w/o ZPVE           -0.073101184215 Eh   ::
         :: G(RRHO) contrib.            0.629777155395 Eh   ::
         :::::::::::::::::::::::::::::::::::::::::::::::::::::

           -------------------------------------------------
          | TOTAL ENERGY             -145.465933602773 Eh   |
          | TOTAL ENTHALPY           -144.716651671584 Eh   |
          | TOTAL FREE ENERGY        -144.836156447378 Eh   |
          | GRADIENT NORM               0.000035147346 Eh/α |
          | HOMO-LUMO GAP               1.203668272831 eV   |
           -------------------------------------------------

 * finished run on 2025/07/17 at 22:12:30.042
