   * xtb version 6.7.1 (edcfbbe) compiled by 'albert@albert-system' on 2024-07-22

   ID    Z sym.   atoms
    1    6 C      1-4, 6-17, 19-24, 26-31, 33, 34
    2    7 N      5
    3    8 O      18, 32
    4    5 B      25
    5    1 H      35-52

          program call               : xtb data2507/toluene/Ph-OBNA/Ph-OBNA_toluene_S0_finalOpt.xtbopt.xyz --gfn 2 --uhf 2 --gbsa toluene --ohess vtight --parallel 40 --molden --ceasefiles --namespace data2507/toluene/Ph-OBNA/Ph-OBNA_toluene_T1_preOpt
      * Solvation model:               GBSA
        Solvent                        toluene
        Solvent mass                       9.2140E+01 g/mol
          :  Hamiltonian                  GFN2-xTB          :
 * total energy  :   -85.7122190 Eh     change       -0.1877694E-08 Eh
 * total energy  :   -85.7137922 Eh     change       -0.1573165E-02 Eh
 * total energy  :   -85.7142406 Eh     change       -0.4484841E-03 Eh
 * total energy  :   -85.7142901 Eh     change       -0.4948368E-04 Eh
 * total energy  :   -85.7143133 Eh     change       -0.2322205E-04 Eh
 * total energy  :   -85.7143252 Eh     change       -0.1187606E-04 Eh
 * total energy  :   -85.7143368 Eh     change       -0.1157896E-04 Eh
 * total energy  :   -85.7143491 Eh     change       -0.1230020E-04 Eh
 * total energy  :   -85.7143579 Eh     change       -0.8791336E-05 Eh
 * total energy  :   -85.7143631 Eh     change       -0.5165139E-05 Eh
 * total energy  :   -85.7143710 Eh     change       -0.1794960E-05 Eh
 * total energy  :   -85.7143726 Eh     change       -0.1554337E-05 Eh
 * total energy  :   -85.7143737 Eh     change       -0.1085902E-05 Eh
 * total energy  :   -85.7143744 Eh     change       -0.7543874E-06 Eh
 * total energy  :   -85.7143750 Eh     change       -0.5761673E-06 Eh
 * total energy  :   -85.7143755 Eh     change       -0.5012768E-06 Eh
 * total energy  :   -85.7143760 Eh     change       -0.4845332E-06 Eh
 * total energy  :   -85.7143765 Eh     change       -0.5295348E-06 Eh
 * total energy  :   -85.7143765 Eh     change       -0.7476800E-08 Eh
   *** GEOMETRY OPTIMIZATION CONVERGED AFTER 22 ITERATIONS ***

 final structure:
================
52
 xtb: 6.7.1 (edcfbbe)
C            5.88450402262423       -2.93790600928866        0.14675170301701
C            5.92000241194089       -1.85910141419491        1.01674680413362
C            4.93547435170048       -0.89013494395454        0.96752606818580
C            3.90602053510927       -0.99336979285961        0.03404648534090
N            2.90619195900556       -0.00995614231599       -0.02097394341102
C            3.10675363166576        1.34203016208624       -0.07765760129724
C            4.29512750260055        2.06201766919424       -0.15747127638761
C            4.21189921407299        3.43735950253254       -0.23570945460574
C            2.97627234328467        4.10119812912316       -0.23942195816539
C            1.79224331753245        3.40344447010361       -0.18440143978612
C            1.84300094900583        2.00805642868379       -0.10959561163316
C            0.85110455291695        0.99664678307556       -0.06718377754147
C           -0.55782403191381        1.00540857559741       -0.05191348372487
C           -1.27688369913443       -0.20101478283114        0.00495397981699
C           -0.54884567028146       -1.40019994713244        0.05839527081461
C            0.85797993224066       -1.44962604164377        0.06387739734672
C            1.53809176187728       -0.25055336509067       -0.01927495586625
O           -1.17110477174345       -2.59866488004885        0.11962498451027
C           -2.53134085779129       -2.72146899350211        0.03840221435598
C           -2.97802850441389       -4.03938978607631        0.03084851759470
C           -4.33118204199226       -4.31481607042007       -0.08268749964793
C           -5.22599876073330       -3.25651916719445       -0.20708251016270
C           -4.77790220141140       -1.95133762243000       -0.19277384624683
C           -3.41934778952050       -1.61338376438977       -0.04266560857421
B           -2.80631746875136       -0.20345782775523        0.01770813001839
C           -3.42438826222669        1.20774745765127        0.08959680070321
C           -4.78037799287333        1.53868899894003        0.25763137402825
C           -5.23378309183325        2.84422215114070        0.28948342872204
C           -4.34523505904159        3.90405225393876        0.16465611881515
C           -2.99177707242976        3.63297305228693        0.03221810116685
C           -2.54222801961360        2.31646046832152        0.00752478605478
O           -1.18003174837779        2.19878739112480       -0.08970370469593
C            3.87245991034748       -2.07611035397224       -0.84219983971056
C            4.85824028484400       -3.04324992728951       -0.77921247772128
H            6.65341653148001       -3.69418866819939        0.19079111651089
H            6.71430806897724       -1.77629846517759        1.74361410263480
H            4.94487875662711       -0.06167622200069        1.65985823096096
H            5.25014314236196        1.56052331141805       -0.17232437255979
H            5.11919513974411        4.01910121688329       -0.29995859699929
H            2.96241201986960        5.17933771451984       -0.29768786147461
H            0.83781468207885        3.90459730774661       -0.20303461550759
H            1.35590549477526       -2.40241440390452        0.14395885413161
H           -2.24912005746657       -4.83264569653817        0.10657596282591
H           -4.67927719321619       -5.33626516899346       -0.08744841216143
H           -6.28248386390501       -3.46013353135914       -0.31411978860062
H           -5.49587833785772       -1.15583744113855       -0.31024309908869
H           -5.49512162549964        0.74043510986660        0.37615534273914
H           -6.28986419660666        3.04192133578010        0.41059310426842
H           -4.69493233496030        4.92490853033542        0.18149268060441
H           -2.26843769286791        4.43089783001203       -0.04553305216521
H            3.08547916499767       -2.14169941768084       -1.57834947672018
H            4.82943785408888       -3.87898189295217       -1.46249416706176

          :  Hamiltonian                  GFN2-xTB          :
         :: gradient norm              0.000071146781 Eh/a0 ::
         :: HOMO-LUMO gap              0.115534476641 eV    ::
         :: SCC energy               -87.189764919424 Eh    ::
         :: -> dispersion             -0.070658098392 Eh    ::
         :: -> Gsolv                  -0.034854754654 Eh    ::
         :: repulsion energy           1.475388413262 Eh    ::

    * Orbital Energies and Occupations

         #    Occupation            Energy/Eh            Energy/eV
      -------------------------------------------------------------
         1        2.0000           -0.7335263             -19.9603
       ...           ...                  ...                  ...
        68        2.0000           -0.4209807             -11.4555
        69        2.0000           -0.4172215             -11.3532
        70        2.0000           -0.4166013             -11.3363
        71        2.0000           -0.4160610             -11.3216
        72        2.0000           -0.4018125             -10.9339
        73        2.0000           -0.3979839             -10.8297
        74        2.0000           -0.3919427             -10.6653
        75        2.0000           -0.3850367             -10.4774
        76        2.0000           -0.3846774             -10.4676
        77        2.0000           -0.3824129             -10.4060
        78        1.9988           -0.3763191             -10.2402
        79        1.0012           -0.3635751              -9.8934
        80        0.9033           -0.2612527              -7.1090 (HOMO)
        81        0.0967           -0.2570067              -6.9935 (LUMO)
        82                         -0.2394169              -6.5149
        83                         -0.2349867              -6.3943
        84                         -0.2314672              -6.2985
        85                         -0.2162838              -5.8854
        86                         -0.2148274              -5.8458
        87                         -0.2099921              -5.7142
        88                         -0.1975842              -5.3765
        89                         -0.1901375              -5.1739
        90                         -0.1394547              -3.7948
        91                         -0.1105169              -3.0073
       ...                                ...                  ...
       154                          0.7278533              19.8059
      -------------------------------------------------------------
                  HL-Gap            0.0042460 Eh            0.1155 eV

     #   Z          covCN         q      C6AA      α(0)
     1   6 C        2.919    -0.031    28.777     8.797
     2   6 C        2.919    -0.026    28.657     8.779
     3   6 C        2.921    -0.041    29.014     8.833
     4   6 C        2.913     0.059    26.681     8.470
     5   7 N        2.798    -0.019    21.614     6.905
     6   6 C        3.077     0.055    26.697     8.471
     7   6 C        2.907    -0.050    29.245     8.867
     8   6 C        2.922    -0.027    28.683     8.783
     9   6 C        2.918    -0.034    28.840     8.807
    10   6 C        2.909    -0.033    28.825     8.804
    11   6 C        3.066    -0.001    27.974     8.673
    12   6 C        3.054    -0.037    28.871     8.812
    13   6 C        2.863     0.133    25.081     8.209
    14   6 C        2.882    -0.126    31.215     9.159
    15   6 C        2.872     0.133    25.098     8.212
    16   6 C        2.903    -0.060    29.503     8.906
    17   6 C        3.074     0.035    27.147     8.543
    18   8 O        1.712    -0.221    17.670     5.676
    19   6 C        2.872     0.131    25.138     8.219
    20   6 C        2.914    -0.059    29.456     8.900
    21   6 C        2.916    -0.044    29.089     8.844
    22   6 C        2.913    -0.033    28.819     8.803
    23   6 C        2.922    -0.049    29.212     8.863
    24   6 C        2.879    -0.083    30.077     8.991
    25   5 B        2.723     0.153    19.084     7.321
    26   6 C        2.879    -0.084    30.099     8.994
    27   6 C        2.923    -0.049    29.207     8.863
    28   6 C        2.914    -0.033    28.831     8.805
    29   6 C        2.917    -0.044    29.099     8.846
    30   6 C        2.914    -0.058    29.429     8.896
    31   6 C        2.874     0.129    25.171     8.225
    32   8 O        1.711    -0.215    17.577     5.661
    33   6 C        2.921    -0.041    29.025     8.835
    34   6 C        2.919    -0.026    28.657     8.779
    35   1 H        0.926     0.043     2.408     2.426
    36   1 H        0.926     0.045     2.383     2.414
    37   1 H        0.926     0.046     2.365     2.405
    38   1 H        0.926     0.044     2.400     2.423
    39   1 H        0.926     0.044     2.402     2.424
    40   1 H        0.926     0.040     2.448     2.447
    41   1 H        0.926     0.045     2.384     2.415
    42   1 H        0.926     0.063     2.167     2.302
    43   1 H        0.926     0.035     2.520     2.482
    44   1 H        0.926     0.028     2.611     2.527
    45   1 H        0.925     0.028     2.619     2.531
    46   1 H        0.926     0.031     2.575     2.509
    47   1 H        0.926     0.030     2.582     2.513
    48   1 H        0.925     0.027     2.627     2.535
    49   1 H        0.926     0.028     2.618     2.530
    50   1 H        0.926     0.034     2.534     2.489
    51   1 H        0.926     0.044     2.390     2.418
    52   1 H        0.926     0.044     2.394     2.420

molecular dipole:
                 x           y           z       tot (Debye)
 q only:        2.481      -0.086      -0.002
   full:        2.557      -0.146      -0.000       6.509

 projected vibrational frequencies (cm⁻¹)
eigval :       -0.00    -0.00    -0.00    -0.00     0.00     0.00
eigval :       17.98    29.73    47.59    51.37    60.51    68.54
eigval :       73.82   103.08   112.54   125.74   160.52   193.34
eigval :      197.61   207.87   224.30   235.11   249.66   263.43
eigval :      271.28   278.94   321.52   340.99   358.64   371.07
eigval :      378.60   393.85   399.67   416.14   427.64   466.04
eigval :      469.80   478.59   481.90   504.97   522.62   529.24
eigval :      535.80   547.52   555.26   567.00   582.07   592.04
eigval :      606.93   613.26   638.78   659.60   661.79   669.96
eigval :      673.97   686.63   692.94   698.97   747.19   748.44
eigval :      750.73   759.60   762.78   773.41   807.12   810.47
eigval :      829.61   837.71   838.25   860.29   876.17   876.90
eigval :      879.11   888.40   895.77   899.97   902.67   904.15
eigval :      905.36   913.70   927.74   929.20   930.50   968.71
eigval :      986.08  1040.22  1052.56  1059.78  1072.24  1076.49
eigval :     1089.36  1102.89  1115.29  1117.05  1140.32  1142.82
eigval :     1157.67  1164.85  1167.00  1169.48  1173.14  1177.00
eigval :     1184.15  1190.65  1204.45  1213.35  1223.60  1243.91
eigval :     1246.25  1263.56  1269.91  1281.73  1302.20  1317.31
eigval :     1323.27  1335.55  1339.80  1359.57  1361.82  1370.66
eigval :     1390.84  1396.05  1399.32  1406.99  1418.99  1431.80
eigval :     1439.73  1466.40  1467.83  1481.23  1500.66  1509.09
eigval :     1517.63  1529.55  1545.42  1553.59  1563.49  1575.50
eigval :     3062.98  3063.53  3078.60  3079.02  3079.88  3080.95
eigval :     3081.35  3089.00  3090.25  3090.34  3091.05  3093.33
eigval :     3099.21  3099.72  3102.67  3107.02  3109.42  3110.48

   temp. (K)  partition function   enthalpy   heat capacity  entropy
                                   cal/mol     cal/K/mol   cal/K/mol   J/K/mol
 298.15  VIB  0.331E+10            14207.907     96.285     85.293
         ROT  0.271E+08              888.752      2.981     36.996
         INT  0.898E+17            15096.660     99.266    122.289
         TR   0.879E+28             1481.254      4.968     44.082
         TOT                       16577.9137   104.2344   166.3714   696.0981

       T/K    H(0)-H(T)+PV         H(T)/Eh          T*S/Eh         G(T)/Eh
   ------------------------------------------------------------------------
    298.15    0.264186E-01    0.407509E+00    0.790484E-01    0.328461E+00
   ------------------------------------------------------------------------

         :::::::::::::::::::::::::::::::::::::::::::::::::::::
         ::                  THERMODYNAMIC                  ::
         :::::::::::::::::::::::::::::::::::::::::::::::::::::
         :: total free energy         -85.385915487169 Eh   ::
         ::.................................................::
         :: total energy              -85.714376510005 Eh   ::
         :: zero point energy           0.381090877610 Eh   ::
         :: G(RRHO) w/o ZPVE           -0.052629854774 Eh   ::
         :: G(RRHO) contrib.            0.328461022836 Eh   ::
         :::::::::::::::::::::::::::::::::::::::::::::::::::::

           -------------------------------------------------
          | TOTAL ENERGY              -85.714376510005 Eh   |
          | TOTAL ENTHALPY            -85.306867045241 Eh   |
          | TOTAL FREE ENERGY         -85.385915487169 Eh   |
          | GRADIENT NORM               0.000070971871 Eh/α |
          | HOMO-LUMO GAP               0.115539486465 eV   |
           -------------------------------------------------

 * finished run on 2025/09/13 at 05:42:05.451
