   * xtb version 6.7.1 (edcfbbe) compiled by 'albert@albert-system' on 2024-07-22

   ID    Z sym.   atoms
    1    6 C      1-4, 6-17, 19-24, 26-31, 33, 34
    2    7 N      5
    3    8 O      18, 32
    4    5 B      25
    5    1 H      35-52

          program call               : xtb data2507/toluene/Ph-OBNA/Ph-OBNA_toluene_T1_crest.xyz --gfn 2 --uhf 2 --gbsa toluene --ohess vtight --parallel 40 --molden --ceasefiles --namespace data2507/toluene/Ph-OBNA/Ph-OBNA_toluene_T1_finalOpt
      * Solvation model:               GBSA
        Solvent                        toluene
        Solvent mass                       9.2140E+01 g/mol
          :  Hamiltonian                  GFN2-xTB          :
 * total energy  :   -85.7143216 Eh     change       -0.1771842E-07 Eh
 * total energy  :   -85.7143657 Eh     change       -0.4406130E-04 Eh
 * total energy  :   -85.7143875 Eh     change       -0.2176309E-04 Eh
 * total energy  :   -85.7143907 Eh     change       -0.3196594E-05 Eh
 * total energy  :   -85.7143926 Eh     change       -0.1922265E-05 Eh
 * total energy  :   -85.7143936 Eh     change       -0.1072510E-05 Eh
 * total energy  :   -85.7143946 Eh     change       -0.9263703E-06 Eh
 * total energy  :   -85.7143951 Eh     change       -0.5235897E-06 Eh
 * total energy  :   -85.7143954 Eh     change       -0.2709942E-06 Eh
 * total energy  :   -85.7143956 Eh     change       -0.1929207E-06 Eh
 * total energy  :   -85.7143957 Eh     change       -0.1226398E-06 Eh
 * total energy  :   -85.7143957 Eh     change       -0.1916253E-07 Eh
   *** GEOMETRY OPTIMIZATION CONVERGED AFTER 12 ITERATIONS ***

 final structure:
================
52
 xtb: 6.7.1 (edcfbbe)
C            5.89126877621686       -2.92734020603247        0.05596882574163
C            5.94616976111316       -1.86282534653664        0.94230574069115
C            4.96029579548263       -0.89394449212333        0.93206174787418
C            3.90928707560704       -0.98225860383805        0.02124099278013
N            2.90797551612204        0.00103788405733        0.00159771626971
C            3.10434107245512        1.35420116738760       -0.04469126503635
C            4.28995430580804        2.07944199165336       -0.11798547959193
C            4.20198562646185        3.45521377011610       -0.18229342553962
C            2.96421458266310        4.11484971314123       -0.17896247778779
C            1.78271548773582        3.41227779048647       -0.13160218622371
C            1.83830348619990        2.01638113444756       -0.07101244334551
C            0.84941795571099        1.00166512647912       -0.03850434162517
C           -0.55965735641175        1.00553896026472       -0.03186527978149
C           -1.27560924072370       -0.20293033249445        0.02304380363554
C           -0.54297163115506       -1.39907793770997        0.08408420220504
C            0.86402686391191       -1.44428204783521        0.08876072518430
C            1.54050573225429       -0.24344868289766        0.00407646448970
O           -1.16035570203813       -2.59964734403884        0.15129170656508
C           -2.52026580493006       -2.72815972115423        0.07668172164994
C           -2.96088957839175       -4.04816882216726        0.08849187820081
C           -4.31309968320757       -4.33162878483099       -0.01513978638731
C           -5.21301195338943       -3.27900167834791       -0.14852612930958
C           -4.77059705822822       -1.97168630591253       -0.15347506786420
C           -3.41293835915339       -1.62473850396609       -0.01624655856808
B           -2.80538873084572       -0.21091482464734        0.02399608881813
C           -3.42934171022364        1.19950487711315        0.06318775138973
C           -4.79038548643917        1.52954973186933        0.18838310170594
C           -5.24809131493261        2.83390624318091        0.19079516683084
C           -4.35949689011905        3.89491977000423        0.07717847822729
C           -3.00254232327306        3.62569203869873       -0.01624507238064
C           -2.54908854246935        2.31024495502638       -0.01303253792866
O           -1.18469883257410        2.19672810171364       -0.07871430962752
C            3.85607567615518       -2.05137349957163       -0.87109340995248
C            4.84348579712597       -3.01842496000305       -0.84716297773082
H            6.66170749663451       -3.68322470809130        0.06920142291791
H            6.75686739641210       -1.79127366734472        1.65205876067485
H            4.98643768556489       -0.07775698278829        1.63825926920701
H            5.24700493398410        1.58218591680087       -0.13829673084728
H            5.10737477476364        4.04060804345408       -0.24008891120626
H            2.94662778545449        5.19350188938091       -0.22535937504442
H            0.82651105118011        3.91018722473247       -0.14477333569919
H            1.36460674910904       -2.39564905404894        0.16963219082183
H           -2.22773577795473       -4.83671784401781        0.17204781727462
H           -4.65638288488314       -5.35465481665146       -0.00465763746368
H           -6.26918811321102       -3.48828302979318       -0.24733309815834
H           -5.49400730725776       -1.18214310883988       -0.27615069303989
H           -5.50708467433248        0.73175398753570        0.29624848972663
H           -6.30772578609867        3.02970887980859        0.27973694402799
H           -4.71214298157582        4.91486595005569        0.07158833112664
H           -2.27935662424690        4.42444473110328       -0.08661700763626
H            3.05232955485971       -2.10623193631864       -1.58981739424045
H            4.79914914387979       -3.84260011870965       -1.54352907732014

          :  Hamiltonian                  GFN2-xTB          :
         :: gradient norm              0.000172383948 Eh/a0 ::
         :: HOMO-LUMO gap              0.115890095692 eV    ::
         :: SCC energy               -87.189624174223 Eh    ::
         :: -> dispersion             -0.070660381677 Eh    ::
         :: -> Gsolv                  -0.034830451913 Eh    ::
         :: repulsion energy           1.475228469786 Eh    ::

    * Orbital Energies and Occupations

         #    Occupation            Energy/Eh            Energy/eV
      -------------------------------------------------------------
         1        2.0000           -0.7336032             -19.9624
       ...           ...                  ...                  ...
        68        2.0000           -0.4208730             -11.4525
        69        2.0000           -0.4171685             -11.3517
        70        2.0000           -0.4165806             -11.3357
        71        2.0000           -0.4160282             -11.3207
        72        2.0000           -0.4018547             -10.9350
        73        2.0000           -0.3979988             -10.8301
        74        2.0000           -0.3917736             -10.6607
        75        2.0000           -0.3852310             -10.4827
        76        2.0000           -0.3846492             -10.4668
        77        2.0000           -0.3823941             -10.4055
        78        1.9988           -0.3763583             -10.2412
        79        1.0012           -0.3635766              -9.8934
        80        0.9039           -0.2613190              -7.1109 (HOMO)
        81        0.0961           -0.2570598              -6.9950 (LUMO)
        82                         -0.2393633              -6.5134
        83                         -0.2348824              -6.3915
        84                         -0.2315161              -6.2999
        85                         -0.2162887              -5.8855
        86                         -0.2148468              -5.8463
        87                         -0.2099665              -5.7135
        88                         -0.1975334              -5.3752
        89                         -0.1901160              -5.1733
        90                         -0.1394332              -3.7942
        91                         -0.1105379              -3.0079
       ...                                ...                  ...
       154                          0.7277677              19.8036
      -------------------------------------------------------------
                  HL-Gap            0.0042592 Eh            0.1159 eV

     #   Z          covCN         q      C6AA      α(0)
     1   6 C        2.919    -0.031    28.779     8.797
     2   6 C        2.919    -0.026    28.658     8.779
     3   6 C        2.921    -0.041    29.018     8.834
     4   6 C        2.913     0.059    26.683     8.470
     5   7 N        2.798    -0.019    21.611     6.904
     6   6 C        3.077     0.055    26.696     8.471
     7   6 C        2.907    -0.050    29.247     8.868
     8   6 C        2.922    -0.027    28.683     8.783
     9   6 C        2.918    -0.034    28.840     8.806
    10   6 C        2.909    -0.033    28.826     8.804
    11   6 C        3.066    -0.000    27.971     8.672
    12   6 C        3.053    -0.037    28.873     8.812
    13   6 C        2.863     0.134    25.077     8.208
    14   6 C        2.882    -0.126    31.217     9.160
    15   6 C        2.873     0.132    25.101     8.213
    16   6 C        2.903    -0.060    29.499     8.906
    17   6 C        3.075     0.035    27.149     8.543
    18   8 O        1.712    -0.221    17.668     5.675
    19   6 C        2.873     0.131    25.137     8.219
    20   6 C        2.914    -0.059    29.457     8.900
    21   6 C        2.916    -0.044    29.088     8.844
    22   6 C        2.913    -0.033    28.820     8.803
    23   6 C        2.922    -0.049    29.212     8.863
    24   6 C        2.879    -0.083    30.078     8.991
    25   5 B        2.722     0.153    19.086     7.321
    26   6 C        2.879    -0.084    30.100     8.994
    27   6 C        2.923    -0.049    29.206     8.862
    28   6 C        2.914    -0.033    28.831     8.805
    29   6 C        2.916    -0.044    29.099     8.846
    30   6 C        2.915    -0.057    29.428     8.896
    31   6 C        2.874     0.129    25.173     8.225
    32   8 O        1.711    -0.215    17.573     5.660
    33   6 C        2.921    -0.041    29.027     8.835
    34   6 C        2.919    -0.026    28.658     8.779
    35   1 H        0.926     0.043     2.409     2.427
    36   1 H        0.926     0.045     2.384     2.415
    37   1 H        0.926     0.047     2.363     2.404
    38   1 H        0.926     0.044     2.398     2.421
    39   1 H        0.926     0.044     2.401     2.423
    40   1 H        0.926     0.040     2.448     2.446
    41   1 H        0.926     0.045     2.384     2.414
    42   1 H        0.926     0.063     2.167     2.302
    43   1 H        0.926     0.035     2.519     2.482
    44   1 H        0.926     0.028     2.611     2.527
    45   1 H        0.925     0.028     2.619     2.531
    46   1 H        0.926     0.031     2.575     2.510
    47   1 H        0.926     0.030     2.582     2.513
    48   1 H        0.925     0.027     2.627     2.535
    49   1 H        0.926     0.028     2.618     2.530
    50   1 H        0.926     0.034     2.534     2.489
    51   1 H        0.926     0.044     2.393     2.419
    52   1 H        0.926     0.044     2.396     2.421

molecular dipole:
                 x           y           z       tot (Debye)
 q only:        2.476      -0.073      -0.009
   full:        2.552      -0.133      -0.008       6.496

 projected vibrational frequencies (cm⁻¹)
eigval :       -0.00    -0.00    -0.00     0.00     0.00     0.00
eigval :       20.73    30.80    48.47    55.35    66.45    72.31
eigval :       74.62   104.20   112.38   127.12   160.75   193.14
eigval :      198.53   207.76   225.23   237.26   251.69   263.82
eigval :      271.09   279.03   321.85   341.34   359.97   371.70
eigval :      380.24   393.22   402.55   416.65   425.54   468.21
eigval :      471.26   481.15   482.33   508.70   523.45   529.31
eigval :      535.87   547.50   556.14   566.97   582.16   591.85
eigval :      607.23   613.53   638.84   660.56   662.86   670.88
eigval :      675.54   687.16   694.32   699.48   746.23   748.85
eigval :      749.71   760.87   763.03   773.87   807.44   811.39
eigval :      829.53   835.08   837.33   860.34   876.27   879.24
eigval :      881.62   888.26   896.13   899.93   901.60   903.41
eigval :      904.81   913.79   929.29   933.60   935.95   969.38
eigval :      985.88  1040.39  1052.61  1060.14  1072.21  1076.87
eigval :     1090.03  1102.65  1115.18  1116.66  1140.41  1142.69
eigval :     1157.63  1164.91  1166.98  1169.40  1173.28  1178.04
eigval :     1184.24  1191.31  1204.16  1212.97  1223.61  1243.76
eigval :     1246.71  1263.77  1270.18  1282.30  1302.56  1317.46
eigval :     1323.53  1335.75  1339.85  1359.72  1361.81  1370.82
eigval :     1391.02  1396.07  1399.24  1406.89  1419.16  1431.97
eigval :     1440.16  1466.26  1467.83  1481.38  1501.22  1509.56
eigval :     1518.36  1530.02  1545.43  1553.79  1562.99  1575.57
eigval :     3063.05  3063.61  3078.69  3079.04  3080.33  3081.08
eigval :     3081.77  3089.24  3090.44  3090.52  3091.24  3093.68
eigval :     3099.66  3100.10  3104.18  3106.79  3110.35  3111.86

   temp. (K)  partition function   enthalpy   heat capacity  entropy
                                   cal/mol     cal/K/mol   cal/K/mol   J/K/mol
 298.15  VIB  0.216E+10            14161.541     96.429     84.821
         ROT  0.271E+08              888.752      2.981     36.997
         INT  0.586E+17            15050.293     99.410    121.818
         TR   0.879E+28             1481.254      4.968     44.082
         TOT                       16531.5468   104.3782   165.8999   694.1250

       T/K    H(0)-H(T)+PV         H(T)/Eh          T*S/Eh         G(T)/Eh
   ------------------------------------------------------------------------
    298.15    0.263447E-01    0.407617E+00    0.788244E-01    0.328792E+00
   ------------------------------------------------------------------------

         :::::::::::::::::::::::::::::::::::::::::::::::::::::
         ::                  THERMODYNAMIC                  ::
         :::::::::::::::::::::::::::::::::::::::::::::::::::::
         :: total free energy         -85.385603245938 Eh   ::
         ::.................................................::
         :: total energy              -85.714395709586 Eh   ::
         :: zero point energy           0.381272145096 Eh   ::
         :: G(RRHO) w/o ZPVE           -0.052479681448 Eh   ::
         :: G(RRHO) contrib.            0.328792463648 Eh   ::
         :::::::::::::::::::::::::::::::::::::::::::::::::::::

           -------------------------------------------------
          | TOTAL ENERGY              -85.714395709586 Eh   |
          | TOTAL ENTHALPY            -85.306778867768 Eh   |
          | TOTAL FREE ENERGY         -85.385603245938 Eh   |
          | GRADIENT NORM               0.000172153984 Eh/α |
          | HOMO-LUMO GAP               0.115899289250 eV   |
           -------------------------------------------------

 * finished run on 2025/09/13 at 05:44:35.462
