   * xtb version 6.7.1 (edcfbbe) compiled by 'albert@albert-system' on 2024-07-22

   ID    Z sym.   atoms
    1    6 C      1-4, 6-17, 19-24, 26-31, 33, 34
    2    7 N      5
    3    8 O      18, 32
    4    5 B      25
    5    1 H      35-52

          program call               : xtb data2507/toluene/Ph-OBNA/Ph-OBNA_toluene_S0_crest.xyz --gfn 2 --gbsa toluene --ohess vtight --parallel 40 --molden --ceasefiles --namespace data2507/toluene/Ph-OBNA/Ph-OBNA_toluene_S0_finalOpt
      * Solvation model:               GBSA
        Solvent                        toluene
        Solvent mass                       9.2140E+01 g/mol
          :  Hamiltonian                  GFN2-xTB          :
 * total energy  :   -85.8115768 Eh     change       -0.1045649E-08 Eh
 * total energy  :   -85.8116075 Eh     change       -0.3061941E-04 Eh
 * total energy  :   -85.8116190 Eh     change       -0.1152865E-04 Eh
 * total energy  :   -85.8116218 Eh     change       -0.2780600E-05 Eh
 * total energy  :   -85.8116255 Eh     change       -0.3698421E-05 Eh
 * total energy  :   -85.8116286 Eh     change       -0.3120685E-05 Eh
 * total energy  :   -85.8116304 Eh     change       -0.1839895E-05 Eh
 * total energy  :   -85.8116313 Eh     change       -0.8485427E-06 Eh
 * total energy  :   -85.8116318 Eh     change       -0.5607553E-06 Eh
 * total energy  :   -85.8116323 Eh     change       -0.4201137E-06 Eh
 * total energy  :   -85.8116332 Eh     change       -0.3241517E-06 Eh
 * total energy  :   -85.8116335 Eh     change       -0.3421253E-06 Eh
 * total energy  :   -85.8116338 Eh     change       -0.3192374E-06 Eh
 * total energy  :   -85.8116341 Eh     change       -0.2512451E-06 Eh
 * total energy  :   -85.8116343 Eh     change       -0.1889597E-06 Eh
 * total energy  :   -85.8116345 Eh     change       -0.1826522E-06 Eh
 * total energy  :   -85.8116346 Eh     change       -0.1543730E-06 Eh
 * total energy  :   -85.8116347 Eh     change       -0.1117427E-06 Eh
 * total energy  :   -85.8116348 Eh     change       -0.6248729E-07 Eh
   *** GEOMETRY OPTIMIZATION CONVERGED AFTER 21 ITERATIONS ***

 final structure:
================
52
 xtb: 6.7.1 (edcfbbe)
C            5.87509059576712       -2.92448121558141        0.17713769448106
C            5.88133339395866       -1.85882259017004        1.06231676003530
C            4.88896925385635       -0.89698804765537        1.00284980623897
C            3.88601591898436       -0.99387035244814        0.04334536405672
N            2.88188478316548       -0.01165996669415       -0.02506201840746
C            3.09613392555714        1.35280997043274       -0.10248194772509
C            4.28805076004585        2.05674620102474       -0.18264370329430
C            4.21790536533488        3.43484013331289       -0.27606399173180
C            2.99424645246775        4.10011087800710       -0.29828037522674
C            1.80314033118993        3.40275541856131       -0.24086800111052
C            1.84951828054686        2.01788092592697       -0.14601255240478
C            0.84492880540603        0.99438660484008       -0.08675791353302
C           -0.54966567154192        1.00556770007914       -0.06630002649511
C           -1.25915632934660       -0.20223636281601        0.00985334630864
C           -0.53259403368568       -1.41053869016624        0.08542159760328
C            0.85296217850436       -1.45247626717839        0.08540623033228
C            1.52794861808939       -0.24345702840278       -0.01723844692646
O           -1.17203577981663       -2.60484304739984        0.17503330672549
C           -2.52637784021695       -2.71478123434004        0.05817045170695
C           -2.99199409112491       -4.03227072516725        0.05054089259624
C           -4.33545852770106       -4.28955551450491       -0.10249509672917
C           -5.22433466674203       -3.23288668496166       -0.26427699475202
C           -4.76081074689206       -1.93568831970604       -0.23982954344343
C           -3.40692285430758       -1.62261475464313       -0.05511296828704
B           -2.78197070696680       -0.20562261841957        0.02164381080035
C           -3.40896906011813        1.20905388797638        0.11378150646689
C           -4.76274441133732        1.51568816534795        0.31333100342691
C           -5.23005308041816        2.81063295131361        0.35588714612442
C           -4.34613096106842        3.87265088753865        0.19915142211756
C           -3.00351944748812        3.62201902262025        0.03137384869467
C           -2.53373827524476        2.30607660931160        0.00442064176236
O           -1.18037057926290        2.19939516531764       -0.12627993755820
C            3.88291849276688       -2.06153448134756       -0.84866636627164
C            4.87337427410280       -3.02438770732204       -0.77453681214732
H            6.64907375512373       -3.67544428428379        0.22893817793112
H            6.65823963088070       -1.77900851882153        1.80829381619208
H            4.87790541700934       -0.07445873132192        1.70251841390032
H            5.24000916108253        1.54776629916066       -0.18145052519994
H            5.13217760795460        4.00703536401815       -0.33621657058201
H            2.98075246419041        5.17793195985336       -0.36989717692744
H            0.85267637683088        3.91204950128222       -0.27251942723680
H            1.36640665098530       -2.39640374961949        0.16706694845566
H           -2.27328104230555       -4.83131380762718        0.15501374644659
H           -4.69200630773521       -5.30900034148819       -0.11036762835932
H           -6.27629918932716       -3.43103669727377       -0.40876210551774
H           -5.46220405222251       -1.13000746040726       -0.38621085878319
H           -5.45997250917958        0.70588310086555        0.45611612733008
H           -6.28141469384436        3.00367794140434        0.51115432196509
H           -4.70631518234618        4.89052852918991        0.22193465011582
H           -2.29036401448653        4.42618538194994       -0.06988751748288
H            3.11114769699053       -2.12461434730748       -1.60122701299285
H            4.86654304113543       -3.85123432985956       -1.46933397258903

          :  Hamiltonian                  GFN2-xTB          :
         :: gradient norm              0.000033954911 Eh/a0 ::
         :: HOMO-LUMO gap              2.435398881322 eV    ::
         :: SCC energy               -87.305145766318 Eh    ::
         :: -> dispersion             -0.070846115933 Eh    ::
         :: -> Gsolv                  -0.033965620626 Eh    ::
         :: repulsion energy           1.493510983539 Eh    ::

    * Orbital Energies and Occupations

         #    Occupation            Energy/Eh            Energy/eV
      -------------------------------------------------------------
         1        2.0000           -0.7318479             -19.9146
       ...           ...                  ...                  ...
        67        2.0000           -0.4246279             -11.5547
        68        2.0000           -0.4208641             -11.4523
        69        2.0000           -0.4174289             -11.3588
        70        2.0000           -0.4132485             -11.2451
        71        2.0000           -0.4114558             -11.1963
        72        2.0000           -0.4082907             -11.1102
        73        2.0000           -0.4038088             -10.9882
        74        2.0000           -0.3969263             -10.8009
        75        2.0000           -0.3935295             -10.7085
        76        2.0000           -0.3922336             -10.6732
        77        2.0000           -0.3891784             -10.5901
        78        2.0000           -0.3697500             -10.0614
        79        2.0000           -0.3601714              -9.8008 (HOMO)
        80                         -0.2706720              -7.3654 (LUMO)
        81                         -0.2481143              -6.7515
        82                         -0.2351644              -6.3991
        83                         -0.2319162              -6.3108
        84                         -0.2284662              -6.2169
        85                         -0.2238614              -6.0916
        86                         -0.2181008              -5.9348
        87                         -0.2106780              -5.7328
        88                         -0.1958582              -5.3296
        89                         -0.1835937              -4.9958
        90                         -0.1462579              -3.9799
       ...                                ...                  ...
       154                          0.7395739              20.1248
      -------------------------------------------------------------
                  HL-Gap            0.0894993 Eh            2.4354 eV

     #   Z          covCN         q      C6AA      α(0)
     1   6 C        2.919    -0.032    28.795     8.800
     2   6 C        2.920    -0.027    28.686     8.783
     3   6 C        2.922    -0.041    29.021     8.834
     4   6 C        2.913     0.063    26.581     8.454
     5   7 N        2.805    -0.039    21.991     6.965
     6   6 C        3.079     0.045    26.904     8.504
     7   6 C        2.910    -0.051    29.264     8.870
     8   6 C        2.924    -0.036    28.889     8.814
     9   6 C        2.920    -0.041    29.031     8.836
    10   6 C        2.912    -0.035    28.883     8.813
    11   6 C        3.065    -0.011    28.218     8.711
    12   6 C        3.064    -0.051    29.194     8.860
    13   6 C        2.866     0.135    25.045     8.203
    14   6 C        2.887    -0.132    31.370     9.183
    15   6 C        2.874     0.133    25.084     8.210
    16   6 C        2.905    -0.092    30.299     9.026
    17   6 C        3.074     0.052    26.767     8.483
    18   8 O        1.712    -0.241    17.988     5.726
    19   6 C        2.874     0.137    25.017     8.199
    20   6 C        2.916    -0.055    29.359     8.885
    21   6 C        2.920    -0.028    28.689     8.784
    22   6 C        2.915    -0.041    29.017     8.833
    23   6 C        2.925    -0.033    28.834     8.806
    24   6 C        2.882    -0.091    30.281     9.021
    25   5 B        2.723     0.210    18.243     7.157
    26   6 C        2.882    -0.090    30.261     9.018
    27   6 C        2.925    -0.033    28.825     8.805
    28   6 C        2.915    -0.040    28.995     8.830
    29   6 C        2.920    -0.027    28.683     8.783
    30   6 C        2.916    -0.053    29.324     8.880
    31   6 C        2.877     0.136    25.034     8.202
    32   8 O        1.711    -0.230    17.810     5.698
    33   6 C        2.922    -0.041    29.028     8.835
    34   6 C        2.920    -0.027    28.684     8.783
    35   1 H        0.926     0.041     2.429     2.437
    36   1 H        0.926     0.042     2.416     2.431
    37   1 H        0.926     0.043     2.403     2.424
    38   1 H        0.926     0.033     2.544     2.494
    39   1 H        0.926     0.032     2.555     2.499
    40   1 H        0.926     0.030     2.591     2.517
    41   1 H        0.926     0.036     2.503     2.474
    42   1 H        0.926     0.046     2.367     2.406
    43   1 H        0.926     0.042     2.424     2.435
    44   1 H        0.926     0.039     2.463     2.454
    45   1 H        0.926     0.035     2.513     2.479
    46   1 H        0.926     0.043     2.415     2.430
    47   1 H        0.926     0.043     2.404     2.425
    48   1 H        0.926     0.036     2.501     2.473
    49   1 H        0.926     0.040     2.451     2.448
    50   1 H        0.926     0.042     2.424     2.435
    51   1 H        0.926     0.042     2.418     2.432
    52   1 H        0.926     0.042     2.422     2.434

molecular dipole:
                 x           y           z       tot (Debye)
 q only:        0.346      -0.362       0.031
   full:        0.430      -0.411       0.033       1.514

 projected vibrational frequencies (cm⁻¹)
eigval :       -0.00    -0.00     0.00     0.00     0.00     0.00
eigval :       23.85    32.66    49.04    57.67    67.41    68.48
eigval :       77.34   105.95   117.07   129.57   165.54   198.28
eigval :      199.03   210.51   226.40   246.60   255.88   267.00
eigval :      275.27   280.56   342.03   348.46   371.75   377.86
eigval :      381.99   394.97   413.84   419.65   437.57   476.84
eigval :      483.83   488.47   497.14   536.79   538.31   541.23
eigval :      553.24   556.62   578.78   583.54   588.34   599.03
eigval :      616.55   635.10   649.73   665.44   676.27   681.36
eigval :      689.01   692.99   703.14   715.75   755.58   767.60
eigval :      772.30   775.59   776.97   782.75   825.23   830.73
eigval :      845.88   870.53   873.82   875.15   884.38   901.26
eigval :      903.18   907.23   911.25   912.30   913.33   921.10
eigval :      925.32   926.09   932.49   937.23   941.62   992.61
eigval :     1051.08  1064.43  1072.94  1078.75  1080.36  1083.17
eigval :     1097.71  1117.34  1121.46  1129.04  1153.61  1160.47
eigval :     1173.01  1176.69  1179.09  1182.90  1187.84  1199.80
eigval :     1206.57  1212.65  1228.02  1244.14  1257.74  1265.66
eigval :     1275.18  1278.42  1299.83  1313.26  1315.14  1322.13
eigval :     1327.54  1353.52  1363.08  1373.11  1404.87  1413.54
eigval :     1418.17  1425.18  1433.47  1444.62  1447.94  1456.35
eigval :     1480.00  1480.84  1543.51  1550.04  1556.60  1575.47
eigval :     1581.70  1588.06  1591.65  1593.02  1596.05  1606.46
eigval :     3072.31  3073.59  3074.33  3077.54  3079.61  3080.65
eigval :     3081.69  3082.45  3088.22  3090.75  3092.00  3092.69
eigval :     3093.50  3097.97  3101.12  3105.01  3110.26  3110.88

   temp. (K)  partition function   enthalpy   heat capacity  entropy
                                   cal/mol     cal/K/mol   cal/K/mol   J/K/mol
 298.15  VIB  0.119E+10            13844.893     94.392     82.932
         ROT  0.270E+08              888.752      2.981     36.985
         INT  0.321E+17            14733.645     97.373    119.916
         TR   0.879E+28             1481.254      4.968     44.082
         TOT                       16214.8989   102.3410   163.9987   686.1705

       T/K    H(0)-H(T)+PV         H(T)/Eh          T*S/Eh         G(T)/Eh
   ------------------------------------------------------------------------
    298.15    0.258401E-01    0.412420E+00    0.779211E-01    0.334499E+00
   ------------------------------------------------------------------------

         :::::::::::::::::::::::::::::::::::::::::::::::::::::
         ::                  THERMODYNAMIC                  ::
         :::::::::::::::::::::::::::::::::::::::::::::::::::::
         :: total free energy         -85.477135733846 Eh   ::
         ::.................................................::
         :: total energy              -85.811634785322 Eh   ::
         :: zero point energy           0.386580036207 Eh   ::
         :: G(RRHO) w/o ZPVE           -0.052080984731 Eh   ::
         :: G(RRHO) contrib.            0.334499051476 Eh   ::
         :::::::::::::::::::::::::::::::::::::::::::::::::::::

           -------------------------------------------------
          | TOTAL ENERGY              -85.811634785322 Eh   |
          | TOTAL ENTHALPY            -85.399214662939 Eh   |
          | TOTAL FREE ENERGY         -85.477135733846 Eh   |
          | GRADIENT NORM               0.000033958233 Eh/α |
          | HOMO-LUMO GAP               2.435400809305 eV   |
           -------------------------------------------------

 * finished run on 2025/09/13 at 05:42:02.894
