   * xtb version 6.7.1 (edcfbbe) compiled by 'albert@albert-system' on 2024-07-22

   ID    Z sym.   atoms
    1    6 C      1-4, 6-17, 19-24, 26-31, 33, 34
    2    7 N      5
    3    8 O      18, 32
    4    5 B      25
    5    1 H      35-52

          program call               : xtb data2507/toluene/Ph-OBNA/Ph-OBNA.xyz --gfn 2 --gbsa toluene --ohess vtight --parallel 40 --molden --ceasefiles --namespace data2507/toluene/Ph-OBNA/Ph-OBNA_toluene_S0_preOpt
      * Solvation model:               GBSA
        Solvent                        toluene
        Solvent mass                       9.2140E+01 g/mol
          :  Hamiltonian                  GFN2-xTB          :
 * total energy  :   -85.7549598 Eh     change       -0.6766072E-09 Eh
 * total energy  :   -85.7885174 Eh     change       -0.3355752E-01 Eh
 * total energy  :   -85.8011036 Eh     change       -0.1258628E-01 Eh
 * total energy  :   -85.8063873 Eh     change       -0.5283691E-02 Eh
 * total energy  :   -85.8092146 Eh     change       -0.2827232E-02 Eh
 * total energy  :   -85.8103037 Eh     change       -0.1089095E-02 Eh
 * total energy  :   -85.8106010 Eh     change       -0.2973035E-03 Eh
 * total energy  :   -85.8107231 Eh     change       -0.1221280E-03 Eh
 * total energy  :   -85.8108187 Eh     change       -0.9559051E-04 Eh
 * total energy  :   -85.8109068 Eh     change       -0.8813446E-04 Eh
 * total energy  :   -85.8116372 Eh     change       -0.4200568E-06 Eh
 * total energy  :   -85.8116375 Eh     change       -0.3121614E-06 Eh
 * total energy  :   -85.8116377 Eh     change       -0.2070478E-06 Eh
 * total energy  :   -85.8116378 Eh     change       -0.1648919E-06 Eh
 * total energy  :   -85.8116380 Eh     change       -0.1817008E-06 Eh
 * total energy  :   -85.8116383 Eh     change       -0.2410457E-06 Eh
 * total energy  :   -85.8116386 Eh     change       -0.3260096E-06 Eh
 * total energy  :   -85.8116390 Eh     change       -0.3787740E-06 Eh
 * total energy  :   -85.8116390 Eh     change       -0.1298275E-08 Eh
   *** GEOMETRY OPTIMIZATION CONVERGED AFTER 68 ITERATIONS ***

 final structure:
================
52
 xtb: 6.7.1 (edcfbbe)
C            5.85417377757291       -2.79597510086382        0.20124865967777
C            5.84176585115426       -1.72154643205664        1.07570466780587
C            4.83143923971675       -0.77909325189739        1.00828308266314
C            3.82913169001848       -0.90450651646518        0.05147306314080
N            2.80632986568117        0.05757108594212       -0.02575062853275
C            2.99375990783531        1.42480259801185       -0.12149796095482
C            4.17165402453600        2.15087828991724       -0.21054167093336
C            4.07456707419682        3.52616532595216       -0.31994635577941
C            2.83810957589477        4.16700018077829       -0.34980855139327
C            1.66082317108379        3.44720589540233       -0.28426755749683
C            1.73430426051478        2.06468246734701       -0.17320852179549
C            0.75002709028125        1.02249970940497       -0.09999375104261
C           -0.64454225202017        1.00643540585877       -0.08102756590204
C           -1.33069643243204       -0.21345742617401        0.01517154717835
C           -0.58006324578108       -1.40568111476475        0.11029294648471
C            0.80605981540922       -1.42070161195666        0.10809529084243
C            1.45727064385695       -0.20049145389817       -0.01328039931228
O           -1.19519013506573       -2.61069949321823        0.22183419809747
C           -2.54774581455469       -2.74926305645359        0.11705202521930
C           -2.98673567677710       -4.07569941030865        0.14108645397692
C           -4.32594280046818       -4.36320159160843        0.00594550235853
C           -5.23702213676608       -3.32806965772288       -0.17063867069082
C           -4.79929651313057       -2.02173862831685       -0.17884226598799
C           -3.45051223544091       -1.67724218221784       -0.01305015537403
B           -2.85335417726474       -0.24643533325008        0.02797739464656
C           -3.50815746941305        1.15786602482637        0.08516375173525
C           -4.86903248881482        1.44318775170864        0.26776233016363
C           -5.36134446851370        2.72948743260429        0.27843087746085
C           -4.49688310267045        3.80483058461558        0.10510377838717
C           -3.14855161837112        3.57627703335034       -0.04705177612003
C           -2.65365712135488        2.26925216657986       -0.04226772507344
O           -1.29777356381449        2.18663877728081       -0.16229177657006
C            3.84464577724576       -1.98095493672246       -0.82977417244515
C            4.85309559484211       -2.92426433783543       -0.74771376732475
H            6.64229575835236       -3.53163744692308        0.25922983014112
H            6.61816084867537       -1.61974207290187        1.81953313768222
H            4.80607424351593        0.05009914387392        1.69964544508921
H            5.13336037442400        1.66064392451061       -0.20326954945395
H            4.97744988126705        4.11542992885505       -0.38689621943782
H            2.80373360804435        5.24344960143766       -0.43379412128933
H            0.70057497135703        3.93745040107406       -0.32165717715393
H            1.33789941033216       -2.35312847353067        0.20348733155477
H           -2.25102540297897       -4.85753459569277        0.25682516468473
H           -4.66195615405695       -5.38947380872930        0.02338689987347
H           -6.28610802470952       -3.54994042054471       -0.30082321452878
H           -5.51846570440497       -1.23412002833981       -0.33619269571116
H           -5.55237422739632        0.62394873165920        0.42263691253686
H           -6.41746988273300        2.90541444604409        0.42119475242629
H           -4.87666370476995        4.81582856151056        0.10274104868607
H           -2.44986052625310        4.39132104432671       -0.16129117550771
H            3.07291909818977       -2.06571267110755       -1.58027108998018
H            4.86079732595731       -3.75805345937318       -1.43415757672550

          :  Hamiltonian                  GFN2-xTB          :
         :: gradient norm              0.000028675548 Eh/a0 ::
         :: HOMO-LUMO gap              2.434481509286 eV    ::
         :: SCC energy               -87.305088727563 Eh    ::
         :: -> dispersion             -0.070844637216 Eh    ::
         :: -> Gsolv                  -0.033967002433 Eh    ::
         :: repulsion energy           1.493449751902 Eh    ::

    * Orbital Energies and Occupations

         #    Occupation            Energy/Eh            Energy/eV
      -------------------------------------------------------------
         1        2.0000           -0.7319003             -19.9160
       ...           ...                  ...                  ...
        67        2.0000           -0.4246216             -11.5545
        68        2.0000           -0.4208673             -11.4524
        69        2.0000           -0.4174359             -11.3590
        70        2.0000           -0.4132697             -11.2456
        71        2.0000           -0.4114599             -11.1964
        72        2.0000           -0.4082868             -11.1100
        73        2.0000           -0.4037298             -10.9860
        74        2.0000           -0.3968756             -10.7995
        75        2.0000           -0.3936478             -10.7117
        76        2.0000           -0.3921425             -10.6707
        77        2.0000           -0.3892068             -10.5909
        78        2.0000           -0.3697537             -10.0615
        79        2.0000           -0.3601465              -9.8001 (HOMO)
        80                         -0.2706809              -7.3656 (LUMO)
        81                         -0.2481069              -6.7513
        82                         -0.2351753              -6.3994
        83                         -0.2319352              -6.3113
        84                         -0.2284743              -6.2171
        85                         -0.2238519              -6.0913
        86                         -0.2180805              -5.9343
        87                         -0.2106427              -5.7319
        88                         -0.1958622              -5.3297
        89                         -0.1835575              -4.9949
        90                         -0.1462092              -3.9786
       ...                                ...                  ...
       154                          0.7395694              20.1247
      -------------------------------------------------------------
                  HL-Gap            0.0894656 Eh            2.4345 eV

     #   Z          covCN         q      C6AA      α(0)
     1   6 C        2.919    -0.032    28.794     8.800
     2   6 C        2.920    -0.027    28.686     8.783
     3   6 C        2.922    -0.041    29.021     8.834
     4   6 C        2.913     0.063    26.581     8.454
     5   7 N        2.805    -0.039    21.992     6.965
     6   6 C        3.079     0.045    26.904     8.504
     7   6 C        2.910    -0.051    29.264     8.870
     8   6 C        2.924    -0.036    28.889     8.814
     9   6 C        2.920    -0.042    29.031     8.836
    10   6 C        2.912    -0.035    28.883     8.813
    11   6 C        3.065    -0.011    28.218     8.711
    12   6 C        3.064    -0.051    29.195     8.860
    13   6 C        2.866     0.135    25.045     8.203
    14   6 C        2.887    -0.132    31.371     9.183
    15   6 C        2.874     0.133    25.084     8.210
    16   6 C        2.905    -0.092    30.299     9.026
    17   6 C        3.075     0.052    26.766     8.482
    18   8 O        1.712    -0.241    17.985     5.726
    19   6 C        2.874     0.137    25.017     8.199
    20   6 C        2.916    -0.055    29.360     8.885
    21   6 C        2.920    -0.028    28.689     8.784
    22   6 C        2.915    -0.041    29.017     8.833
    23   6 C        2.925    -0.034    28.835     8.806
    24   6 C        2.882    -0.091    30.282     9.021
    25   5 B        2.723     0.210    18.245     7.158
    26   6 C        2.882    -0.090    30.261     9.018
    27   6 C        2.925    -0.033    28.825     8.805
    28   6 C        2.915    -0.040    28.996     8.830
    29   6 C        2.920    -0.027    28.683     8.783
    30   6 C        2.916    -0.053    29.324     8.880
    31   6 C        2.877     0.136    25.034     8.202
    32   8 O        1.711    -0.230    17.807     5.697
    33   6 C        2.922    -0.041    29.027     8.835
    34   6 C        2.920    -0.027    28.684     8.783
    35   1 H        0.926     0.041     2.429     2.437
    36   1 H        0.926     0.043     2.416     2.430
    37   1 H        0.926     0.043     2.403     2.424
    38   1 H        0.926     0.033     2.544     2.494
    39   1 H        0.926     0.032     2.555     2.500
    40   1 H        0.926     0.030     2.591     2.517
    41   1 H        0.926     0.036     2.503     2.474
    42   1 H        0.926     0.046     2.368     2.406
    43   1 H        0.926     0.042     2.424     2.435
    44   1 H        0.926     0.039     2.463     2.454
    45   1 H        0.926     0.035     2.513     2.479
    46   1 H        0.926     0.043     2.415     2.430
    47   1 H        0.926     0.043     2.404     2.425
    48   1 H        0.926     0.036     2.501     2.473
    49   1 H        0.926     0.040     2.452     2.449
    50   1 H        0.926     0.042     2.424     2.435
    51   1 H        0.926     0.042     2.419     2.432
    52   1 H        0.926     0.042     2.422     2.434

molecular dipole:
                 x           y           z       tot (Debye)
 q only:        0.354      -0.356       0.033
   full:        0.439      -0.403       0.036       1.517

 projected vibrational frequencies (cm⁻¹)
eigval :       -0.00    -0.00     0.00     0.00     0.00     0.00
eigval :       21.81    29.41    48.41    54.06    67.19    68.32
eigval :       76.73   105.90   116.49   129.81   165.25   197.94
eigval :      198.78   209.65   225.93   246.02   255.45   266.49
eigval :      274.75   279.78   341.97   346.78   371.54   377.33
eigval :      381.00   394.29   412.30   419.12   436.83   476.21
eigval :      482.90   488.26   495.73   537.03   538.34   541.22
eigval :      553.22   556.66   578.62   582.50   587.97   598.83
eigval :      616.52   633.90   649.73   665.57   676.25   680.50
eigval :      688.20   692.31   703.53   715.35   753.24   766.83
eigval :      771.70   775.48   776.86   782.37   825.20   830.21
eigval :      845.98   870.45   873.19   874.79   881.43   901.08
eigval :      902.94   906.68   910.33   912.03   913.21   920.88
eigval :      925.00   925.25   929.63   932.74   941.52   992.68
eigval :     1051.21  1064.62  1072.93  1078.77  1080.19  1082.87
eigval :     1098.29  1117.29  1121.27  1129.05  1154.12  1160.55
eigval :     1172.82  1176.71  1177.73  1183.16  1187.72  1199.57
eigval :     1206.39  1212.75  1227.63  1244.47  1257.66  1265.79
eigval :     1274.96  1278.26  1299.83  1313.18  1315.20  1321.94
eigval :     1327.56  1353.55  1363.02  1372.90  1404.89  1413.63
eigval :     1418.06  1425.15  1433.16  1444.63  1447.68  1456.51
eigval :     1479.89  1480.85  1543.35  1550.02  1556.43  1575.24
eigval :     1581.74  1588.02  1591.53  1592.93  1595.98  1606.52
eigval :     3072.54  3073.68  3074.26  3077.01  3079.26  3080.71
eigval :     3081.57  3082.56  3088.24  3090.91  3092.04  3092.11
eigval :     3093.57  3097.76  3101.86  3105.89  3110.98  3111.65

   temp. (K)  partition function   enthalpy   heat capacity  entropy
                                   cal/mol     cal/K/mol   cal/K/mol   J/K/mol
 298.15  VIB  0.158E+10            13874.185     94.321     83.181
         ROT  0.270E+08              888.752      2.981     36.985
         INT  0.427E+17            14762.938     97.302    120.166
         TR   0.879E+28             1481.254      4.968     44.082
         TOT                       16244.1915   102.2699   164.2480   687.2137

       T/K    H(0)-H(T)+PV         H(T)/Eh          T*S/Eh         G(T)/Eh
   ------------------------------------------------------------------------
    298.15    0.258868E-01    0.412349E+00    0.780395E-01    0.334309E+00
   ------------------------------------------------------------------------

         :::::::::::::::::::::::::::::::::::::::::::::::::::::
         ::                  THERMODYNAMIC                  ::
         :::::::::::::::::::::::::::::::::::::::::::::::::::::
         :: total free energy         -85.477329952074 Eh   ::
         ::.................................................::
         :: total energy              -85.811638978015 Eh   ::
         :: zero point energy           0.386461794750 Eh   ::
         :: G(RRHO) w/o ZPVE           -0.052152768808 Eh   ::
         :: G(RRHO) contrib.            0.334309025942 Eh   ::
         :::::::::::::::::::::::::::::::::::::::::::::::::::::

           -------------------------------------------------
          | TOTAL ENERGY              -85.811638978015 Eh   |
          | TOTAL ENTHALPY            -85.399290416321 Eh   |
          | TOTAL FREE ENERGY         -85.477329952074 Eh   |
          | GRADIENT NORM               0.000028674247 Eh/α |
          | HOMO-LUMO GAP               2.434481792905 eV   |
           -------------------------------------------------

 * finished run on 2025/09/13 at 05:40:02.744
