   * xtb version 6.7.1 (edcfbbe) compiled by 'albert@albert-system' on 2024-07-22

   ID    Z sym.   atoms
    1    6 C      1-6, 8-25, 27-48, 50-65
    2    7 N      7, 26, 49
    3    1 H      66-106

          program call               : xtb data2507/gas/2CzTPEPCz/2CzTPEPCz.xyz --gfn 2 --ohess vtight --parallel 40 --molden --ceasefiles --namespace data2507/gas/2CzTPEPCz/2CzTPEPCz_gas_S0_preOpt
          :  Hamiltonian                  GFN2-xTB          :
 * total energy  :  -162.4984960 Eh     change       -0.4037531E-08 Eh
 * total energy  :  -162.5181341 Eh     change       -0.1963816E-01 Eh
 * total energy  :  -162.5227002 Eh     change       -0.4566107E-02 Eh
 * total energy  :  -162.5239473 Eh     change       -0.1247025E-02 Eh
 * total energy  :  -162.5254523 Eh     change       -0.1505034E-02 Eh
 * total energy  :  -162.5265335 Eh     change       -0.1081185E-02 Eh
 * total energy  :  -162.5273755 Eh     change       -0.8420121E-03 Eh
 * total energy  :  -162.5279356 Eh     change       -0.5600481E-03 Eh
 * total energy  :  -162.5282623 Eh     change       -0.3267218E-03 Eh
 * total energy  :  -162.5284869 Eh     change       -0.2246734E-03 Eh
 * total energy  :  -162.5317012 Eh     change       -0.5380536E-06 Eh
 * total energy  :  -162.5317018 Eh     change       -0.5297357E-06 Eh
 * total energy  :  -162.5317022 Eh     change       -0.4489603E-06 Eh
 * total energy  :  -162.5317025 Eh     change       -0.3188261E-06 Eh
 * total energy  :  -162.5317029 Eh     change       -0.3449091E-06 Eh
 * total energy  :  -162.5317033 Eh     change       -0.4732932E-06 Eh
 * total energy  :  -162.5317039 Eh     change       -0.6032380E-06 Eh
 * total energy  :  -162.5317046 Eh     change       -0.6189584E-06 Eh
 * total energy  :  -162.5317046 Eh     change       -0.4691117E-08 Eh
   *** GEOMETRY OPTIMIZATION CONVERGED AFTER 122 ITERATIONS ***

 final structure:
================
106
 xtb: 6.7.1 (edcfbbe)
C           -1.79282571879543       -2.30081465395176       -0.03527522237127
C           -2.61407281957588       -1.23479279230605       -0.03231489189394
C           -4.07266598260491       -1.37006488775736       -0.02976646758047
C           -4.86808599598188       -0.41325638399980       -0.66263215296032
C           -6.24252817387555       -0.52487519854781       -0.67147536775308
C           -6.86181864200348       -1.60341126717361       -0.04430056434723
N           -8.25647073360648       -1.72266635793189       -0.05385584363208
C           -9.05687327904431       -1.95286230893475        1.04811845741218
C           -8.70895544299971       -2.06003994910983        2.38706839782141
C           -9.72302963755476       -2.26567085863794        3.30277664150103
C          -11.05534488385226       -2.35462042218248        2.90565696815134
C          -11.41022136344804       -2.22343361169142        1.57806354059799
C          -10.40863355302689       -2.01627045535540        0.63887963185504
C          -10.41419251543165       -1.81970949862655       -0.78372113564661
C          -11.42040609190563       -1.79553874788816       -1.74035861930519
C          -11.07203149520889       -1.60165659070348       -3.06197208686834
C           -9.73884723456555       -1.44847096700057       -3.43598785795934
C           -8.72020079143779       -1.46871530146370       -2.50266199142786
C           -9.06632432624714       -1.63857829881141       -1.16978904349411
C           -6.07807269662841       -2.56082617927309        0.59526066457606
C           -4.70408312836129       -2.44076617233797        0.60415860131899
C           -2.06459035013223        0.13370592170877       -0.07928156237782
C           -1.12209579779504        0.47407249478843       -1.04750621131491
C           -0.52932704871781        1.71813746594797       -1.04531918230918
C           -0.85982169233353        2.64793405233398       -0.06196923640223
N           -0.18276811018104        3.87237898473481       -0.00960192622956
C            1.19102467838618        4.01466372097977       -0.02131797997984
C            2.17953427010741        3.04081738742283       -0.05103454309366
C            3.49612577448253        3.45918952739639       -0.02906315334857
C            3.82962880528101        4.81059407902419        0.03104059671634
C            2.85040126258062        5.78187550857777        0.08664233502826
C            1.51914832959661        5.38691089242272        0.06533511811008
C            0.27428153881670        6.10051555003911        0.12835257070599
C           -0.05186675982983        7.44799965624829        0.20586452626734
C           -1.38501744935657        7.80560087204703        0.22989103906103
C           -2.38733444271753        6.84026802985470        0.16325443992955
C           -2.08827488119628        5.49359302254098        0.08558885134957
C           -0.75023499016455        5.12680333189820        0.08437963516812
C           -1.84194241446744        2.33589674171409        0.87352544817814
C           -2.44589375830933        1.09372185289246        0.85372674602243
C           -0.33826304949227       -2.23036871733537        0.03832750906199
C            0.44678147213656       -3.07079018885343       -0.75087779019496
C            1.82332567311699       -2.97650683951099       -0.73450099207308
C            2.46643156866727       -2.05108761384220        0.08578743939349
C            3.92805839771226       -1.91845512137335        0.07905021540142
C            4.52397744886621       -0.66121143521486        0.17039610670357
C            5.89649905505136       -0.52260075701333        0.15817042122230
C            6.71191004511850       -1.64574405846592        0.04756539425046
N            8.10552597495736       -1.50871639896509        0.02456573896866
C            9.00132509850958       -2.21598126629773        0.80189263595201
C            8.76144458278047       -3.15090052380316        1.79882527649706
C            9.85236309239375       -3.69445619500381        2.44950992708548
C           11.15425452998229       -3.31625578726177        2.12860891149356
C           11.39812446287943       -2.36821567582319        1.15534128874800
C           10.31775294235032       -1.80712262049772        0.48736586492835
C           10.20080192756500       -0.80632576975407       -0.53575134153659
C           11.12724283561563       -0.05701309071904       -1.24888150678428
C           10.66822791477704        0.82671477751692       -2.20482286572734
C            9.30566279341502        0.95663856685931       -2.46427410834434
C            8.36493165955092        0.22171410878329       -1.76862756272965
C            8.81861986690612       -0.65012561032269       -0.78903924205597
C            6.12700339244012       -2.90597682738293       -0.04307373109845
C            4.75332889625177       -3.03676920406200       -0.02442747339806
C            1.68339197841969       -1.24798610428260        0.91511648932138
C            0.30888120758959       -1.33729701654156        0.89479629192422
H           -2.21201186254414       -3.29442313660180       -0.12850186018098
H           -4.39743994706750        0.42419945091973       -1.15702508313702
H           -6.84724108534816        0.23026927433751       -1.15106322681478
H           -7.68164763243751       -1.97407431598217        2.70787656957187
H           -9.47722168346549       -2.35584765699680        4.35069457031910
H          -11.81840250044860       -2.51899967709224        3.65184573990381
H          -12.44409531393381       -2.27539941762163        1.27164723091668
H          -12.45185754495738       -1.93098228649254       -1.45181523369015
H          -11.83918406451223       -1.57727465104472       -3.82155522407827
H           -9.49523822566435       -1.31458952169982       -4.47972926823587
H           -7.68882352390598       -1.36753198965471       -2.80542774998782
H           -6.55405269416589       -3.40347412772405        1.07422663134569
H           -4.11111585079396       -3.18086643145874        1.12038863012919
H           -0.85416334438284       -0.24815192555421       -1.80421393517559
H            0.19467993385551        1.97953868974615       -1.80234852580458
H            1.92709117122792        1.99073410377928       -0.08178750094433
H            4.28717834351473        2.72394670019900       -0.05759657234928
H            4.87091280006457        5.09636251978030        0.04310201594884
H            3.10904636342765        6.82808006673439        0.14974653402927
H            0.72481111346964        8.19698729985282        0.24222054582962
H           -1.66016215141480        8.84792988585867        0.29234773598639
H           -3.42153807646273        7.15176383991229        0.16894896237874
H           -2.87187363223101        4.75400307016738        0.01696424954747
H           -2.10543484350591        3.05789298041785        1.63193890198242
H           -3.19289729987398        0.84695220035871        1.59468155116626
H           -0.03464982779456       -3.78307315971999       -1.40638902684821
H            2.40874133420451       -3.60963424575290       -1.38531201542479
H            3.90181693678253        0.21860420081487        0.24015221412874
H            6.34772627346099        0.45457517425477        0.24674585776088
H            7.75590469241650       -3.43721999834188        2.06829882325370
H            9.69174118475565       -4.42651763580457        3.22734064341518
H           11.98031545927023       -3.76687475119391        2.65844880463757
H           12.40591925255528       -2.06236590122798        0.91786260031773
H           12.18392065374724       -0.17036874430331       -1.05877978403579
H           11.37171968531388        1.42103850021155       -2.76877550692015
H            8.97689908579797        1.64470463158900       -3.22925311650468
H            7.31279493070842        0.31632376458276       -1.99156242433356
H            6.75594202246645       -3.77821240900467       -0.14153087529273
H            4.31333293509830       -4.02159184398363       -0.07875409581156
H            2.16166726994081       -0.56008835966125        1.59738840142688
H           -0.27600356256057       -0.71914298585115        1.55913574504781

          :  Hamiltonian                  GFN2-xTB          :
         :: gradient norm              0.000050254364 Eh/a0 ::
         :: HOMO-LUMO gap              2.285809474609 eV    ::
         :: SCC energy              -165.657526070809 Eh    ::
         :: -> dispersion             -0.152755850614 Eh    ::
         :: repulsion energy           3.125821499915 Eh    ::

    * Orbital Energies and Occupations

         #    Occupation            Energy/Eh            Energy/eV
      -------------------------------------------------------------
         1        2.0000           -0.6762920             -18.4028
       ...           ...                  ...                  ...
       140        2.0000           -0.4112512             -11.1907
       141        2.0000           -0.4070840             -11.0773
       142        2.0000           -0.4047228             -11.0131
       143        2.0000           -0.4045974             -11.0097
       144        2.0000           -0.4026159             -10.9557
       145        2.0000           -0.4007675             -10.9054
       146        2.0000           -0.3789763             -10.3125
       147        2.0000           -0.3782559             -10.2929
       148        2.0000           -0.3780245             -10.2866
       149        2.0000           -0.3760067             -10.2317
       150        2.0000           -0.3623551              -9.8602
       151        2.0000           -0.3611179              -9.8265
       152        2.0000           -0.3583383              -9.7509 (HOMO)
       153                         -0.2743363              -7.4651 (LUMO)
       154                         -0.2477109              -6.7406
       155                         -0.2464320              -6.7058
       156                         -0.2437120              -6.6317
       157                         -0.2403191              -6.5394
       158                         -0.2374485              -6.4613
       159                         -0.2364366              -6.4338
       160                         -0.2338394              -6.3631
       161                         -0.2320207              -6.3136
       162                         -0.2254583              -6.1350
       163                         -0.2214562              -6.0261
       ...                                ...                  ...
       301                          0.7486396              20.3715
      -------------------------------------------------------------
                  HL-Gap            0.0840019 Eh            2.2858 eV

     #   Z          covCN         q      C6AA      α(0)
     1   6 C        2.910    -0.045    29.128     8.850
     2   6 C        2.961     0.001    27.996     8.679
     3   6 C        2.977     0.008    27.845     8.656
     4   6 C        2.925    -0.032    28.793     8.800
     5   6 C        2.920    -0.043    29.077     8.843
     6   6 C        2.913     0.063    26.579     8.454
     7   7 N        2.802    -0.044    22.081     6.979
     8   6 C        3.075     0.047    26.879     8.500
     9   6 C        2.910    -0.051    29.266     8.871
    10   6 C        2.924    -0.034    28.835     8.806
    11   6 C        2.920    -0.041    29.013     8.833
    12   6 C        2.913    -0.033    28.816     8.802
    13   6 C        3.068    -0.017    28.360     8.732
    14   6 C        3.068    -0.017    28.360     8.732
    15   6 C        2.913    -0.033    28.816     8.803
    16   6 C        2.920    -0.041    29.012     8.833
    17   6 C        2.924    -0.033    28.833     8.806
    18   6 C        2.910    -0.051    29.264     8.870
    19   6 C        3.075     0.047    26.877     8.500
    20   6 C        2.920    -0.043    29.075     8.842
    21   6 C        2.924    -0.035    28.861     8.810
    22   6 C        2.980     0.013    27.717     8.636
    23   6 C        2.925    -0.031    28.765     8.795
    24   6 C        2.921    -0.043    29.070     8.842
    25   6 C        2.914     0.063    26.592     8.456
    26   7 N        2.803    -0.044    22.086     6.980
    27   6 C        3.077     0.046    26.879     8.500
    28   6 C        2.909    -0.051    29.256     8.869
    29   6 C        2.924    -0.033    28.829     8.805
    30   6 C        2.920    -0.041    29.020     8.834
    31   6 C        2.913    -0.033    28.814     8.802
    32   6 C        3.068    -0.017    28.359     8.732
    33   6 C        3.069    -0.017    28.367     8.733
    34   6 C        2.912    -0.033    28.814     8.802
    35   6 C        2.920    -0.041    29.015     8.833
    36   6 C        2.924    -0.033    28.832     8.806
    37   6 C        2.910    -0.051    29.264     8.870
    38   6 C        3.075     0.047    26.874     8.500
    39   6 C        2.920    -0.044    29.094     8.845
    40   6 C        2.923    -0.032    28.803     8.801
    41   6 C        2.972     0.015    27.667     8.628
    42   6 C        2.924    -0.036    28.902     8.816
    43   6 C        2.923    -0.035    28.870     8.811
    44   6 C        2.977     0.008    27.835     8.654
    45   6 C        2.976     0.007    27.869     8.659
    46   6 C        2.925    -0.034    28.836     8.806
    47   6 C        2.920    -0.043    29.069     8.841
    48   6 C        2.913     0.063    26.598     8.457
    49   7 N        2.802    -0.044    22.087     6.980
    50   6 C        3.076     0.047    26.875     8.500
    51   6 C        2.910    -0.051    29.266     8.871
    52   6 C        2.924    -0.034    28.838     8.806
    53   6 C        2.920    -0.041    29.019     8.834
    54   6 C        2.913    -0.033    28.820     8.803
    55   6 C        3.068    -0.017    28.366     8.733
    56   6 C        3.068    -0.017    28.366     8.733
    57   6 C        2.913    -0.033    28.820     8.803
    58   6 C        2.920    -0.041    29.018     8.834
    59   6 C        2.924    -0.034    28.836     8.806
    60   6 C        2.910    -0.051    29.264     8.870
    61   6 C        3.076     0.047    26.875     8.500
    62   6 C        2.920    -0.044    29.083     8.844
    63   6 C        2.924    -0.034    28.837     8.806
    64   6 C        2.923    -0.035    28.870     8.811
    65   6 C        2.923    -0.034    28.840     8.807
    66   1 H        0.925     0.038     2.477     2.461
    67   1 H        0.926     0.036     2.509     2.477
    68   1 H        0.926     0.041     2.437     2.441
    69   1 H        0.926     0.027     2.634     2.538
    70   1 H        0.926     0.029     2.604     2.524
    71   1 H        0.926     0.028     2.615     2.529
    72   1 H        0.926     0.031     2.573     2.508
    73   1 H        0.926     0.031     2.573     2.508
    74   1 H        0.926     0.028     2.615     2.529
    75   1 H        0.926     0.029     2.604     2.523
    76   1 H        0.926     0.027     2.631     2.536
    77   1 H        0.926     0.041     2.429     2.437
    78   1 H        0.926     0.038     2.476     2.460
    79   1 H        0.926     0.035     2.518     2.482
    80   1 H        0.926     0.041     2.438     2.442
    81   1 H        0.926     0.025     2.663     2.552
    82   1 H        0.926     0.027     2.630     2.536
    83   1 H        0.926     0.028     2.614     2.528
    84   1 H        0.926     0.031     2.572     2.508
    85   1 H        0.926     0.031     2.574     2.509
    86   1 H        0.926     0.028     2.616     2.529
    87   1 H        0.926     0.029     2.604     2.523
    88   1 H        0.926     0.026     2.638     2.540
    89   1 H        0.926     0.041     2.437     2.441
    90   1 H        0.926     0.034     2.525     2.485
    91   1 H        0.926     0.030     2.582     2.513
    92   1 H        0.926     0.032     2.553     2.499
    93   1 H        0.926     0.038     2.471     2.458
    94   1 H        0.926     0.040     2.452     2.449
    95   1 H        0.926     0.027     2.632     2.537
    96   1 H        0.926     0.028     2.612     2.527
    97   1 H        0.926     0.027     2.624     2.533
    98   1 H        0.926     0.030     2.580     2.512
    99   1 H        0.926     0.030     2.581     2.512
   100   1 H        0.926     0.027     2.623     2.533
   101   1 H        0.926     0.029     2.606     2.525
   102   1 H        0.926     0.027     2.630     2.536
   103   1 H        0.926     0.040     2.446     2.446
   104   1 H        0.926     0.037     2.492     2.468
   105   1 H        0.926     0.032     2.565     2.504
   106   1 H        0.926     0.030     2.592     2.517

molecular dipole:
                 x           y           z       tot (Debye)
 q only:       -0.364      -0.424      -0.018
   full:       -0.402      -0.490      -0.026       1.612

 projected vibrational frequencies (cm⁻¹)
eigval :       -0.00    -0.00    -0.00     0.00     0.00     0.00
eigval :        6.17     7.19    10.70    11.30    13.45    16.31
eigval :       21.70    31.38    38.24    40.85    44.26    55.71
eigval :       63.36    66.96    77.17    82.30    86.21    94.38
eigval :       98.69   104.10   104.30   105.58   134.46   142.20
eigval :      144.26   145.13   146.41   158.04   165.31   173.55
eigval :      201.26   208.83   220.36   225.92   246.24   252.68
eigval :      255.16   271.49   271.88   272.04   275.93   298.13
eigval :      320.35   337.32   351.77   368.12   374.98   379.44
eigval :      382.66   384.27   386.57   389.25   394.64   395.19
eigval :      400.96   413.64   416.18   420.03   423.64   426.09
eigval :      429.24   433.89   437.46   439.68   450.47   480.19
eigval :      492.92   505.33   518.44   518.74   519.22   531.65
eigval :      533.88   533.99   539.95   541.15   541.16   541.34
eigval :      569.92   575.63   578.50   582.69   585.73   588.89
eigval :      594.80   597.49   602.29   608.19   617.77   619.20
eigval :      628.93   637.69   667.42   673.90   673.98   674.25
eigval :      677.33   683.69   696.26   701.17   702.38   707.88
eigval :      708.81   710.03   719.50   748.73   754.74   757.14
eigval :      760.23   769.25   769.60   769.69   771.09   780.60
eigval :      780.90   780.95   803.32   815.99   823.07   830.88
eigval :      846.57   856.74   866.05   866.73   866.82   871.97
eigval :      873.54   873.88   874.21   879.60   879.90   881.62
eigval :      897.75   897.85   898.12   902.27   902.44   902.54
eigval :      902.71   902.81   903.02   906.76   917.02   919.14
eigval :      919.72   920.52   920.72   921.23   921.26   926.14
eigval :      926.58   927.16   930.10   931.49   933.93   934.49
eigval :      936.09   936.82   965.96   994.89  1012.08  1012.09
eigval :     1012.30  1016.41  1021.82  1029.99  1070.51  1070.51
eigval :     1070.68  1073.89  1074.06  1075.28  1081.19  1117.74
eigval :     1118.30  1118.43  1135.57  1136.24  1137.95  1147.32
eigval :     1153.03  1153.44  1153.62  1171.56  1176.77  1177.19
eigval :     1178.35  1181.41  1181.45  1181.99  1183.24  1184.22
eigval :     1185.75  1197.61  1202.70  1206.36  1209.40  1221.71
eigval :     1236.74  1236.93  1238.04  1244.74  1245.45  1247.30
eigval :     1266.82  1268.47  1269.60  1273.61  1280.65  1298.25
eigval :     1299.94  1300.87  1303.08  1303.40  1305.01  1308.54
eigval :     1313.40  1315.69  1316.96  1322.10  1334.20  1357.42
eigval :     1357.81  1357.91  1362.24  1362.39  1362.66  1369.39
eigval :     1371.53  1374.48  1396.01  1406.89  1408.28  1414.23
eigval :     1428.42  1428.54  1429.08  1431.90  1432.27  1433.54
eigval :     1476.35  1476.64  1476.88  1479.16  1488.35  1488.61
eigval :     1488.89  1492.85  1495.79  1509.25  1551.24  1556.99
eigval :     1560.44  1564.30  1575.19  1575.27  1575.37  1584.38
eigval :     1589.12  1589.20  1589.40  1593.01  1596.26  1599.14
eigval :     1599.15  1599.27  1602.80  1615.05  1615.25  1615.47
eigval :     1626.57  3052.63  3069.42  3071.03  3075.51  3075.88
eigval :     3075.94  3076.06  3076.12  3076.29  3077.45  3078.56
eigval :     3080.21  3080.41  3081.15  3081.20  3081.46  3081.84
eigval :     3082.17  3083.60  3083.97  3084.54  3085.01  3085.37
eigval :     3087.90  3088.12  3088.72  3089.50  3089.72  3093.22
eigval :     3093.72  3094.07  3094.26  3094.48  3094.80  3095.18
eigval :     3095.33  3095.48  3096.43  3096.57  3096.76  3096.86

   temp. (K)  partition function   enthalpy   heat capacity  entropy
                                   cal/mol     cal/K/mol   cal/K/mol   J/K/mol
 298.15  VIB  0.384E+25            29935.952    190.778    187.887
         ROT  0.311E+09              888.752      2.981     41.845
         INT  0.120E+34            30824.704    193.759    229.731
         TR   0.231E+29             1481.254      4.968     45.998
         TOT                       32305.9578   198.7271   275.7293  1153.6513

       T/K    H(0)-H(T)+PV         H(T)/Eh          T*S/Eh         G(T)/Eh
   ------------------------------------------------------------------------
    298.15    0.514828E-01    0.872194E+00    0.131008E+00    0.741186E+00
   ------------------------------------------------------------------------

         :::::::::::::::::::::::::::::::::::::::::::::::::::::
         ::                  THERMODYNAMIC                  ::
         :::::::::::::::::::::::::::::::::::::::::::::::::::::
         :: total free energy        -161.790518404193 Eh   ::
         ::.................................................::
         :: total energy             -162.531704570892 Eh   ::
         :: zero point energy           0.820711222144 Eh   ::
         :: G(RRHO) w/o ZPVE           -0.079525055445 Eh   ::
         :: G(RRHO) contrib.            0.741186166699 Eh   ::
         :::::::::::::::::::::::::::::::::::::::::::::::::::::

           -------------------------------------------------
          | TOTAL ENERGY             -162.531704570892 Eh   |
          | TOTAL ENTHALPY           -161.659510527959 Eh   |
          | TOTAL FREE ENERGY        -161.790518404193 Eh   |
          | GRADIENT NORM               0.000050253235 Eh/α |
          | HOMO-LUMO GAP               2.285809386521 eV   |
           -------------------------------------------------

 * finished run on 2025/07/16 at 09:42:40.352
