   * xtb version 6.7.1 (edcfbbe) compiled by 'albert@albert-system' on 2024-07-22

   ID    Z sym.   atoms
    1    6 C      1-6, 8-25, 27-48, 50-65
    2    7 N      7, 26, 49
    3    1 H      66-106

          program call               : xtb data2507/gas/2CzTPEPCz/2CzTPEPCz_gas_S0_crest.xyz --gfn 2 --ohess vtight --parallel 40 --molden --ceasefiles --namespace data2507/gas/2CzTPEPCz/2CzTPEPCz_gas_S0_finalOpt
          :  Hamiltonian                  GFN2-xTB          :
 * total energy  :  -162.5316879 Eh     change       -0.3714263E-08 Eh
 * total energy  :  -162.5316887 Eh     change       -0.7765640E-06 Eh
 * total energy  :  -162.5316894 Eh     change       -0.6622506E-06 Eh
 * total energy  :  -162.5316905 Eh     change       -0.1148434E-05 Eh
 * total energy  :  -162.5316911 Eh     change       -0.5906071E-06 Eh
 * total energy  :  -162.5316918 Eh     change       -0.6804181E-06 Eh
 * total energy  :  -162.5316923 Eh     change       -0.5508333E-06 Eh
 * total energy  :  -162.5316927 Eh     change       -0.3528048E-06 Eh
 * total energy  :  -162.5316932 Eh     change       -0.5239662E-06 Eh
 * total energy  :  -162.5316939 Eh     change       -0.7236405E-06 Eh
 * total energy  :  -162.5316956 Eh     change       -0.3333423E-06 Eh
 * total energy  :  -162.5316959 Eh     change       -0.3750625E-06 Eh
 * total energy  :  -162.5316964 Eh     change       -0.4971292E-06 Eh
 * total energy  :  -162.5316971 Eh     change       -0.7237804E-06 Eh
 * total energy  :  -162.5316980 Eh     change       -0.8501190E-06 Eh
 * total energy  :  -162.5316987 Eh     change       -0.7217228E-06 Eh
 * total energy  :  -162.5316992 Eh     change       -0.5025563E-06 Eh
 * total energy  :  -162.5316997 Eh     change       -0.4267033E-06 Eh
 * total energy  :  -162.5316997 Eh     change       -0.4646836E-08 Eh
   *** GEOMETRY OPTIMIZATION CONVERGED AFTER 22 ITERATIONS ***

 final structure:
================
106
 xtb: 6.7.1 (edcfbbe)
C           -1.84887416821553       -2.26733199463267       -0.11002901422048
C           -2.63134559266521       -1.17427548196519       -0.05155638933421
C           -4.09397665329166       -1.25576829547493       -0.06308181527571
C           -4.84842423669859       -0.23947502089541       -0.65187517229684
C           -6.22588253253315       -0.29963835397148       -0.67563306038513
C           -6.88940252538608       -1.38445568521156       -0.10738853979858
N           -8.28746103350563       -1.45102377220706       -0.13138009322679
C           -9.10415562373365       -1.70324004029600        0.95361663910471
C           -8.77042975592386       -1.88562209716897        2.28801759964160
C           -9.79824483164139       -2.09604976426070        3.18714757101770
C          -11.12987706825926       -2.11712245553825        2.77846576670354
C          -11.46969732732497       -1.91133465392901        1.45640877078580
C          -10.45414056090191       -1.69761827380826        0.53383605524199
C          -10.44156256506956       -1.43433661617573       -0.87789215115202
C          -11.43881510492846       -1.32831361848311       -1.83833536833994
C          -11.07345854789919       -1.08480711440590       -3.14708737274377
C           -9.73278069563347       -0.96229935390123       -3.50530670259673
C           -8.72275062142289       -1.06387355633447       -2.56792114775666
C           -9.08505825560649       -1.28451482834421       -1.24684417003914
C           -6.14670458672976       -2.40114965838824        0.48816042555805
C           -4.76926700520300       -2.33301354735371        0.51158175404889
C           -2.03367734171609        0.17454477688637       -0.02251247712008
C           -1.07830166618453        0.53552240449367       -0.97034186976173
C           -0.44505530290297        1.75756041207329       -0.90066602888831
C           -0.74714143058133        2.64322816500776        0.13130420000366
N           -0.03382575337516        3.84235793363957        0.24818084748856
C            1.34342263989203        3.94567060427730        0.24216187048476
C            2.30356096801656        2.94692623070290        0.15885048549800
C            3.63163982398688        3.32544436031637        0.20190922899417
C            4.00377969537513        4.66150822454005        0.33441950599318
C            3.05283472942465        5.65614271145107        0.44304235469394
C            1.71078730895395        5.30134240498441        0.40184861544705
C            0.48688652499233        6.04596989710073        0.50448021379698
C            0.19932316210700        7.39616902937047        0.65412627838239
C           -1.12307725085912        7.78987075201371        0.69902185213894
C           -2.15258632406738        6.85852030251639        0.58227111332328
C           -1.89208637130227        5.50997346103873        0.43227376810331
C           -0.56507430198026        5.10573926484080        0.40985071490131
C           -1.73951825086434        2.31255716195598        1.04943570963356
C           -2.38396090333691        1.09390120447553        0.96213373200138
C           -0.39256782126238       -2.24983939037613       -0.03616581127046
C            0.36297735252328       -3.06619379343917       -0.87758881229968
C            1.74172565810138       -3.01099172927627       -0.86760108977623
C            2.41611960743253       -2.15129680746051       -0.00216572035720
C            3.88023752032810       -2.05130648709999       -0.02120666686873
C            4.50453078485481       -0.81431024850318        0.13484619704426
C            5.87922914199250       -0.70323708796770        0.10669001384613
C            6.66842089352736       -1.83402044605367       -0.08568666070662
N            8.06389852488338       -1.72303499122012       -0.12759861171068
C            8.95951964729481       -2.49101516192044        0.58987492898253
C            8.71922753941614       -3.47877751242012        1.53433598093055
C            9.81078500815526       -4.07979120493547        2.13117071759081
C           11.11383009844353       -3.70693625804408        1.80870516644859
C           11.35875188187289       -2.70760124475261        0.88844564473921
C           10.27780331223441       -2.08844726858955        0.27492667040372
C           10.16201310635087       -1.02752539937995       -0.68588287191505
C           11.08975290155507       -0.25509677701637       -1.37218951534633
C           10.63075314035758        0.69062576678637       -2.26687186980863
C            9.26651215760935        0.86025656565235       -2.49241400150924
C            8.32443900614903        0.10371979066183       -1.82223619614308
C            8.77881125190734       -0.83159232108098       -0.90339353393794
C            6.05529881080740       -3.07447408334556       -0.23998262771706
C            4.67956580612584       -3.17811994263797       -0.20487473846029
C            1.66169662179961       -1.37830801980211        0.88064803497293
C            0.28509505121639       -1.42799100493920        0.86665271523967
H           -2.30247761500686       -3.23910504086451       -0.25669410667181
H           -4.34317212432598        0.60374764940250       -1.10016259249455
H           -6.79853748102586        0.50019736351617       -1.12090459489017
H           -7.74303593583226       -1.85273513325119        2.61827459320181
H           -9.56389556079759       -2.24374359878763        4.23115200704420
H          -11.90406519339218       -2.28769274140343        3.51168545787558
H          -12.50243755695690       -1.91090325288671        1.14186972368197
H          -12.47668636515011       -1.43961922521404       -1.56277734314044
H          -11.83334435804788       -0.99659606661279       -3.90924346962536
H           -9.47650367932291       -0.78768618286643       -4.53995647638479
H           -7.68607985197123       -0.98562339341009       -2.85920868113639
H           -6.65742450565529       -3.24831855140637        0.92119162597406
H           -4.20792536866606       -3.11984339232917        0.99291162240411
H           -0.83297174356483       -0.15291495753500       -1.76524372706576
H            0.28823597426191        2.03577294742004       -1.64261626519918
H            2.02071313844002        1.90780944570028        0.07182969478464
H            4.40123474485881        2.57038208426827        0.13317419970903
H            5.05283905130845        4.91616802691138        0.36100647498643
H            3.34144568209306        6.68956978020764        0.56201039678715
H            0.99701695578722        8.11974614212320        0.72923305959833
H           -1.36834388314965        8.83480169709076        0.81737151861921
H           -3.17748344648657        7.19860960742386        0.60597786623652
H           -2.69645155592264        4.79778076456606        0.32502123783332
H           -1.98005942423416        3.00034076841577        1.84629392618743
H           -3.13982388945116        0.83188723402145        1.68872972278756
H           -0.14283988544345       -3.72559441716763       -1.56906703849614
H            2.30448481900366       -3.62113504828730       -1.55906384879178
H            3.90273642075859        0.07232331178960        0.26760420131336
H            6.35286769859480        0.25741207198395        0.24510443264674
H            7.71320653348029       -3.76206855156176        1.80521670886542
H            9.64988615287280       -4.85369458554089        2.86731798053989
H           11.94028275952780       -4.20312644462294        2.29545690682474
H           12.36793158191862       -2.40674109775027        0.65048765815012
H           12.14730658292151       -0.39844101760504       -1.20914765657800
H           11.33534347424455        1.30355142311689       -2.80912490077195
H            8.93740081290581        1.59724289735298       -3.21022611418255
H            7.27044663107622        0.23032397576314       -2.01906112743113
H            6.66373135908019       -3.95187215150357       -0.40135063564261
H            4.21784373780041       -4.14876334572683       -0.31015246003558
H            2.16379647353757       -0.74511556926050        1.59786128838856
H           -0.27779759435511       -0.83333013097898        1.57030465238557

          :  Hamiltonian                  GFN2-xTB          :
         :: gradient norm              0.000048748135 Eh/a0 ::
         :: HOMO-LUMO gap              2.289990141907 eV    ::
         :: SCC energy              -165.657602337307 Eh    ::
         :: -> dispersion             -0.152827366489 Eh    ::
         :: repulsion energy           3.125902681822 Eh    ::

    * Orbital Energies and Occupations

         #    Occupation            Energy/Eh            Energy/eV
      -------------------------------------------------------------
         1        2.0000           -0.6763118             -18.4034
       ...           ...                  ...                  ...
       140        2.0000           -0.4112906             -11.1918
       141        2.0000           -0.4070753             -11.0771
       142        2.0000           -0.4047342             -11.0134
       143        2.0000           -0.4045796             -11.0092
       144        2.0000           -0.4026104             -10.9556
       145        2.0000           -0.4007510             -10.9050
       146        2.0000           -0.3790322             -10.3140
       147        2.0000           -0.3782703             -10.2933
       148        2.0000           -0.3780010             -10.2859
       149        2.0000           -0.3760030             -10.2316
       150        2.0000           -0.3623572              -9.8602
       151        2.0000           -0.3611227              -9.8266
       152        2.0000           -0.3583565              -9.7514 (HOMO)
       153                         -0.2742009              -7.4614 (LUMO)
       154                         -0.2477380              -6.7413
       155                         -0.2464349              -6.7058
       156                         -0.2436995              -6.6314
       157                         -0.2403380              -6.5399
       158                         -0.2374603              -6.4616
       159                         -0.2364665              -6.4346
       160                         -0.2338722              -6.3640
       161                         -0.2320378              -6.3141
       162                         -0.2254737              -6.1355
       163                         -0.2214668              -6.0264
       ...                                ...                  ...
       301                          0.7486483              20.3718
      -------------------------------------------------------------
                  HL-Gap            0.0841556 Eh            2.2900 eV

     #   Z          covCN         q      C6AA      α(0)
     1   6 C        2.910    -0.045    29.126     8.850
     2   6 C        2.961     0.001    27.996     8.679
     3   6 C        2.977     0.008    27.844     8.656
     4   6 C        2.925    -0.032    28.793     8.800
     5   6 C        2.920    -0.043    29.076     8.843
     6   6 C        2.913     0.063    26.579     8.454
     7   7 N        2.802    -0.044    22.082     6.979
     8   6 C        3.075     0.047    26.878     8.500
     9   6 C        2.910    -0.051    29.266     8.871
    10   6 C        2.924    -0.034    28.835     8.806
    11   6 C        2.920    -0.041    29.013     8.833
    12   6 C        2.913    -0.033    28.816     8.802
    13   6 C        3.068    -0.017    28.360     8.732
    14   6 C        3.068    -0.017    28.361     8.732
    15   6 C        2.913    -0.033    28.816     8.803
    16   6 C        2.920    -0.041    29.013     8.833
    17   6 C        2.924    -0.033    28.833     8.806
    18   6 C        2.910    -0.051    29.264     8.870
    19   6 C        3.075     0.047    26.877     8.500
    20   6 C        2.920    -0.043    29.073     8.842
    21   6 C        2.924    -0.035    28.860     8.810
    22   6 C        2.980     0.013    27.717     8.636
    23   6 C        2.925    -0.031    28.766     8.795
    24   6 C        2.921    -0.043    29.071     8.842
    25   6 C        2.914     0.063    26.592     8.456
    26   7 N        2.803    -0.044    22.086     6.980
    27   6 C        3.077     0.046    26.879     8.500
    28   6 C        2.909    -0.051    29.256     8.869
    29   6 C        2.924    -0.033    28.830     8.805
    30   6 C        2.920    -0.041    29.020     8.834
    31   6 C        2.913    -0.033    28.814     8.802
    32   6 C        3.068    -0.017    28.359     8.732
    33   6 C        3.069    -0.017    28.366     8.733
    34   6 C        2.913    -0.033    28.814     8.802
    35   6 C        2.920    -0.041    29.014     8.833
    36   6 C        2.924    -0.033    28.832     8.806
    37   6 C        2.910    -0.051    29.265     8.871
    38   6 C        3.075     0.047    26.875     8.500
    39   6 C        2.920    -0.044    29.095     8.845
    40   6 C        2.924    -0.032    28.803     8.801
    41   6 C        2.972     0.015    27.666     8.628
    42   6 C        2.924    -0.036    28.901     8.816
    43   6 C        2.923    -0.035    28.870     8.811
    44   6 C        2.977     0.008    27.836     8.654
    45   6 C        2.976     0.007    27.869     8.659
    46   6 C        2.925    -0.034    28.837     8.806
    47   6 C        2.920    -0.043    29.067     8.841
    48   6 C        2.913     0.063    26.598     8.457
    49   7 N        2.802    -0.044    22.087     6.980
    50   6 C        3.076     0.047    26.875     8.500
    51   6 C        2.910    -0.051    29.266     8.871
    52   6 C        2.924    -0.034    28.838     8.806
    53   6 C        2.920    -0.041    29.019     8.834
    54   6 C        2.913    -0.033    28.820     8.803
    55   6 C        3.068    -0.017    28.366     8.733
    56   6 C        3.068    -0.017    28.366     8.733
    57   6 C        2.913    -0.033    28.820     8.803
    58   6 C        2.920    -0.041    29.018     8.834
    59   6 C        2.924    -0.034    28.836     8.806
    60   6 C        2.910    -0.051    29.264     8.870
    61   6 C        3.076     0.047    26.875     8.499
    62   6 C        2.920    -0.044    29.083     8.844
    63   6 C        2.924    -0.034    28.837     8.806
    64   6 C        2.923    -0.035    28.870     8.811
    65   6 C        2.923    -0.034    28.839     8.807
    66   1 H        0.925     0.038     2.477     2.461
    67   1 H        0.926     0.035     2.510     2.477
    68   1 H        0.926     0.041     2.437     2.441
    69   1 H        0.926     0.027     2.635     2.539
    70   1 H        0.926     0.029     2.604     2.524
    71   1 H        0.926     0.028     2.616     2.529
    72   1 H        0.926     0.031     2.573     2.509
    73   1 H        0.926     0.031     2.573     2.508
    74   1 H        0.926     0.028     2.615     2.529
    75   1 H        0.926     0.029     2.604     2.523
    76   1 H        0.926     0.027     2.631     2.537
    77   1 H        0.926     0.041     2.429     2.437
    78   1 H        0.926     0.038     2.476     2.460
    79   1 H        0.926     0.035     2.519     2.482
    80   1 H        0.926     0.041     2.439     2.442
    81   1 H        0.926     0.025     2.665     2.553
    82   1 H        0.926     0.027     2.628     2.535
    83   1 H        0.926     0.028     2.614     2.528
    84   1 H        0.926     0.031     2.572     2.508
    85   1 H        0.926     0.031     2.574     2.509
    86   1 H        0.926     0.028     2.616     2.529
    87   1 H        0.926     0.029     2.604     2.523
    88   1 H        0.926     0.026     2.638     2.540
    89   1 H        0.926     0.041     2.437     2.441
    90   1 H        0.926     0.034     2.526     2.485
    91   1 H        0.926     0.030     2.582     2.513
    92   1 H        0.926     0.032     2.553     2.499
    93   1 H        0.926     0.038     2.469     2.457
    94   1 H        0.926     0.040     2.453     2.449
    95   1 H        0.926     0.027     2.632     2.537
    96   1 H        0.926     0.028     2.612     2.527
    97   1 H        0.926     0.027     2.624     2.533
    98   1 H        0.926     0.030     2.580     2.512
    99   1 H        0.926     0.030     2.581     2.512
   100   1 H        0.926     0.027     2.623     2.533
   101   1 H        0.926     0.029     2.606     2.525
   102   1 H        0.926     0.027     2.631     2.536
   103   1 H        0.926     0.040     2.446     2.446
   104   1 H        0.926     0.037     2.491     2.468
   105   1 H        0.926     0.032     2.565     2.504
   106   1 H        0.926     0.030     2.592     2.517

molecular dipole:
                 x           y           z       tot (Debye)
 q only:       -0.375      -0.418      -0.030
   full:       -0.414      -0.483      -0.042       1.621

 projected vibrational frequencies (cm⁻¹)
eigval :       -0.00    -0.00    -0.00     0.00     0.00     0.00
eigval :        5.95     7.26    10.72    11.26    13.55    16.33
eigval :       21.65    31.51    38.33    40.84    44.11    55.73
eigval :       63.20    66.99    77.19    82.15    86.31    94.31
eigval :       98.68   104.06   104.26   105.57   134.48   142.09
eigval :      144.23   145.06   146.40   157.86   165.16   173.33
eigval :      201.19   208.76   220.46   225.84   246.22   252.68
eigval :      255.13   271.48   271.86   272.03   275.89   298.27
eigval :      320.08   337.65   351.76   368.16   375.04   379.46
eigval :      382.55   384.24   386.54   389.19   394.61   395.19
eigval :      400.97   413.68   416.22   420.04   423.62   426.09
eigval :      429.18   433.92   437.43   439.67   450.56   480.28
eigval :      492.86   505.27   518.44   518.76   519.22   531.65
eigval :      533.84   533.99   540.00   541.15   541.16   541.34
eigval :      569.90   575.66   578.43   582.68   585.73   588.88
eigval :      594.83   597.44   602.30   608.14   617.78   619.17
eigval :      628.82   637.84   667.55   673.90   673.97   674.25
eigval :      677.39   683.58   696.31   701.14   702.32   707.88
eigval :      708.80   710.00   719.56   748.64   754.75   757.14
eigval :      760.20   769.21   769.59   769.67   771.11   780.54
eigval :      780.89   780.93   803.27   815.96   823.07   830.79
eigval :      846.46   856.64   865.98   866.74   866.80   871.87
eigval :      873.50   873.83   874.16   879.60   879.82   881.62
eigval :      897.76   897.86   898.14   902.20   902.42   902.51
eigval :      902.72   902.81   903.00   906.72   916.95   919.14
eigval :      919.70   920.43   920.70   921.22   921.23   926.17
eigval :      926.52   927.04   930.08   931.44   933.89   934.44
eigval :      936.06   936.80   965.90   994.90  1012.09  1012.11
eigval :     1012.35  1016.44  1021.84  1029.99  1070.46  1070.49
eigval :     1070.72  1073.86  1073.99  1075.31  1081.11  1117.71
eigval :     1118.27  1118.43  1135.60  1136.16  1137.81  1147.31
eigval :     1152.98  1153.41  1153.64  1171.52  1176.78  1177.19
eigval :     1178.34  1181.41  1181.45  1181.93  1183.21  1184.15
eigval :     1185.87  1197.46  1202.68  1206.37  1209.28  1221.39
eigval :     1236.75  1236.96  1238.09  1244.74  1245.47  1247.35
eigval :     1266.85  1268.46  1269.58  1273.62  1280.57  1298.20
eigval :     1299.93  1300.85  1303.11  1303.45  1305.08  1308.48
eigval :     1313.38  1315.56  1316.99  1322.04  1333.95  1357.44
eigval :     1357.80  1357.93  1362.25  1362.40  1362.69  1369.40
eigval :     1371.58  1374.46  1395.93  1406.93  1408.21  1414.25
eigval :     1428.41  1428.55  1429.12  1431.94  1432.30  1433.58
eigval :     1476.37  1476.65  1476.90  1479.16  1488.37  1488.60
eigval :     1488.90  1492.83  1495.83  1509.24  1551.26  1557.07
eigval :     1560.53  1564.33  1575.20  1575.27  1575.36  1584.56
eigval :     1589.15  1589.23  1589.43  1593.03  1596.34  1599.15
eigval :     1599.16  1599.30  1602.83  1615.07  1615.26  1615.47
eigval :     1626.95  3052.84  3069.48  3071.12  3075.52  3075.88
eigval :     3075.93  3076.08  3076.13  3076.28  3077.46  3078.59
eigval :     3080.19  3080.43  3081.16  3081.18  3081.52  3081.86
eigval :     3082.13  3083.80  3083.87  3084.59  3085.06  3085.46
eigval :     3087.90  3088.07  3088.76  3089.48  3089.68  3093.15
eigval :     3093.78  3094.03  3094.20  3094.52  3094.80  3095.15
eigval :     3095.35  3095.58  3096.47  3096.58  3096.79  3096.88

   temp. (K)  partition function   enthalpy   heat capacity  entropy
                                   cal/mol     cal/K/mol   cal/K/mol   J/K/mol
 298.15  VIB  0.395E+25            29937.672    190.780    187.925
         ROT  0.310E+09              888.752      2.981     41.833
         INT  0.122E+34            30826.425    193.761    229.758
         TR   0.231E+29             1481.254      4.968     45.998
         TOT                       32307.6787   198.7294   275.7559  1153.7628

       T/K    H(0)-H(T)+PV         H(T)/Eh          T*S/Eh         G(T)/Eh
   ------------------------------------------------------------------------
    298.15    0.514856E-01    0.872192E+00    0.131021E+00    0.741171E+00
   ------------------------------------------------------------------------

         :::::::::::::::::::::::::::::::::::::::::::::::::::::
         ::                  THERMODYNAMIC                  ::
         :::::::::::::::::::::::::::::::::::::::::::::::::::::
         :: total free energy        -161.790528537521 Eh   ::
         ::.................................................::
         :: total energy             -162.531699655484 Eh   ::
         :: zero point energy           0.820706091291 Eh   ::
         :: G(RRHO) w/o ZPVE           -0.079534973329 Eh   ::
         :: G(RRHO) contrib.            0.741171117963 Eh   ::
         :::::::::::::::::::::::::::::::::::::::::::::::::::::

           -------------------------------------------------
          | TOTAL ENERGY             -162.531699655484 Eh   |
          | TOTAL ENTHALPY           -161.659508000993 Eh   |
          | TOTAL FREE ENERGY        -161.790528537521 Eh   |
          | GRADIENT NORM               0.000048744099 Eh/α |
          | HOMO-LUMO GAP               2.289990163212 eV   |
           -------------------------------------------------

 * finished run on 2025/07/16 at 09:50:50.105
