   * xtb version 6.7.1 (edcfbbe) compiled by 'albert@albert-system' on 2024-07-22

   ID    Z sym.   atoms
    1    6 C      1-6, 8-25, 27-48, 50-65
    2    7 N      7, 26, 49
    3    1 H      66-106

          program call               : xtb data2507/gas/2CzTPEPCz/2CzTPEPCz_gas_T1_crest.xyz --gfn 2 --spinpol --tblite --uhf 2 --ohess vtight --parallel 40 --molden --ceasefiles --namespace data2507/gas/2CzTPEPCz/2CzTPEPCz_gas_T1_finalOpt
 * total energy  :  -162.4656908 Eh     change       -0.1881310E-07 Eh
 * total energy  :  -162.4657478 Eh     change       -0.5698188E-04 Eh
 * total energy  :  -162.4657823 Eh     change       -0.3452125E-04 Eh
 * total energy  :  -162.4657907 Eh     change       -0.8409562E-05 Eh
 * total energy  :  -162.4658023 Eh     change       -0.1155004E-04 Eh
 * total energy  :  -162.4658112 Eh     change       -0.8906583E-05 Eh
 * total energy  :  -162.4658195 Eh     change       -0.8327745E-05 Eh
 * total energy  :  -162.4658256 Eh     change       -0.6090630E-05 Eh
 * total energy  :  -162.4658325 Eh     change       -0.6861113E-05 Eh
 * total energy  :  -162.4658400 Eh     change       -0.7476576E-05 Eh
 * total energy  :  -162.4659340 Eh     change       -0.5427810E-06 Eh
 * total energy  :  -162.4659346 Eh     change       -0.5617046E-06 Eh
 * total energy  :  -162.4659352 Eh     change       -0.6352212E-06 Eh
 * total energy  :  -162.4659359 Eh     change       -0.6896381E-06 Eh
 * total energy  :  -162.4659367 Eh     change       -0.7506258E-06 Eh
 * total energy  :  -162.4659375 Eh     change       -0.7807066E-06 Eh
 * total energy  :  -162.4659382 Eh     change       -0.7820145E-06 Eh
 * total energy  :  -162.4659382 Eh     change        0.3089298E-08 Eh
 * total energy  :  -162.4659383 Eh     change       -0.4407894E-08 Eh
   *** GEOMETRY OPTIMIZATION CONVERGED AFTER 45 ITERATIONS ***

 final structure:
================
106
 xtb: 6.7.1 (edcfbbe)
C           -1.90138622392810       -1.61833922168594       -1.41089958104255
C           -2.73713834333510       -0.54462300295045       -0.90440398871763
C           -4.11184955400465       -0.79878455413641       -0.63211950209804
C           -5.08334165786678        0.22530352888654       -0.64747987575367
C           -6.41045176643479       -0.04729927101821       -0.42639274155324
C           -6.83493510362067       -1.35461538880200       -0.17330553269773
N           -8.18579880959498       -1.63002521038676        0.05385116203689
C           -8.69251932637024       -2.38324138508697        1.09500607517544
C           -8.03045261477183       -2.97552167886939        2.16127501656579
C           -8.78951789635609       -3.65509155216570        3.09478463923020
C          -10.17545799291839       -3.74012026684920        2.98330628211946
C          -10.84242611972566       -3.13020584396259        1.93919313175864
C          -10.10131783350387       -2.44176041514420        0.98861479364095
C          -10.45347889887299       -1.68860007760070       -0.18285323439450
C          -11.66019438533214       -1.40494634029994       -0.80755842089122
C          -11.64484497390976       -0.65297663418299       -1.96566358955227
C          -10.44481785688360       -0.20109530168115       -2.50984956373050
C           -9.23132146966875       -0.47100414498896       -1.90650463642025
C           -9.24222213828931       -1.20268079178381       -0.72726929735882
C           -5.89024517381004       -2.38524871945643       -0.16409686186453
C           -4.56508193879169       -2.11514541750518       -0.39532288214193
C           -2.13013043592278        0.74129629918863       -0.71713303287400
C           -1.03030990275268        1.13478100053335       -1.50893570790231
C           -0.32845078277943        2.28158740765731       -1.23887799199325
C           -0.67989860159558        3.08597754235171       -0.15223551560319
N            0.10764402312979        4.18979780704618        0.18011892981180
C            1.48450286960753        4.17029560491416        0.29860515588880
C            2.36777108583882        3.10723248833454        0.16868067727482
C            3.71170734667613        3.35793181210869        0.36963834593203
C            4.17302649436154        4.62932361046746        0.70339110798037
C            3.29587130249270        5.68380522013514        0.86259671053737
C            1.94044600792853        5.45735492981290        0.66503613206861
C            0.77358887512217        6.28943016612778        0.76768851323161
C            0.58084483058196        7.63033806547023        1.07018405769684
C           -0.70563308412924        8.13237533631221        1.06059074408061
C           -1.78976580677689        7.31920405920992        0.73834324144090
C           -1.62314790133540        5.98201602787251        0.43237823022219
C           -0.33565524944442        5.46558087586962        0.46583096735125
C           -1.79907544759250        2.74330106237804        0.61112070555311
C           -2.51583885489835        1.60583798866417        0.32689782850086
C           -0.57014429694403       -1.81098143404749       -1.06709164493921
C            0.25565869398499       -2.69460589759503       -1.82122068532802
C            1.60178515849127       -2.76711296919047       -1.60866829536834
C            2.23261480891927       -1.99203441314565       -0.61491750094061
C            3.67576484373488       -2.00334793716381       -0.44124679905974
C            4.34757940968753       -0.86003124650180        0.00919810789128
C            5.71651290996439       -0.84642154346812        0.15758205179168
C            6.46724084617969       -1.98228024726919       -0.14094577448989
N            7.85949239585403       -1.96618558917134       -0.00433544673176
C            8.62134149235659       -2.91443076782569        0.64994504231007
C            8.21841439173091       -4.03609099686386        1.36071311971842
C            9.19754468782141       -4.81167693646736        1.95149339236980
C           10.54720351234003       -4.48165231026664        1.85066375538583
C           10.95237037010026       -3.35244348776576        1.16737874820753
C            9.98676327739181       -2.55709219845802        0.56526908529313
C           10.04274360705182       -1.33317904936049       -0.18418041772970
C           11.08535166640931       -0.51831916463225       -0.60447362429188
C           10.78782049357353        0.60505149377211       -1.34990503393037
C            9.47204878961161        0.91007985018192       -1.69078056603895
C            8.41795939157771        0.11415576271307       -1.28496708558913
C            8.70812215648515       -1.00192698340954       -0.51295923910004
C            5.81248209683872       -3.13081674368771       -0.58256919762097
C            4.44266055463046       -3.13812992920978       -0.72922500813279
C            1.41015540295092       -1.20008234362255        0.20795240834400
C            0.06270455282746       -1.11987264325167        0.00935553113117
H           -2.33647281105318       -2.27546075969450       -2.15341498040708
H           -4.78012259774106        1.23624619305351       -0.87404614198738
H           -7.13692963096876        0.75200772342216       -0.43262714573476
H           -6.95899383898819       -2.89888408583448        2.26798375462814
H           -8.29710836477108       -4.12714197081225        3.93218242266459
H          -10.73278952342864       -4.28287976633756        3.73220769526929
H          -11.91810001680359       -3.18039601108970        1.86236917222104
H          -12.58829946297245       -1.77149893142379       -0.39556088613029
H          -12.57266462649554       -0.41844846596680       -2.46587201017782
H          -10.46245745829641        0.36968431972762       -3.42661492839274
H           -8.30611871919365       -0.13343205108650       -2.34836763100833
H           -6.21815213123917       -3.40035324807261        0.00534044825564
H           -3.84325830320274       -2.91848079956515       -0.37788418738720
H           -0.75241230725497        0.52873965604321       -2.35779624583783
H            0.49808609483480        2.57512335993716       -1.86874570189558
H            2.01602475202329        2.11478212603998       -0.07197276624608
H            4.42234356088080        2.55068770234469        0.26770757677144
H            5.23164885087343        4.78484754079836        0.84886815927289
H            3.65154037701456        6.66460903626566        1.13987674703844
H            1.42267217960354        8.26483746472421        1.30297545914261
H           -0.87763425378914        9.17209664202983        1.29590453083440
H           -2.78252121356679        7.74431494898418        0.72304679193371
H           -2.46742176456439        5.36529258596010        0.16397793729654
H           -2.06804458124522        3.35461758591123        1.45995272730218
H           -3.33618599410520        1.32171239040750        0.96925229985405
H           -0.20048860496415       -3.27452049802506       -2.61122443705684
H            2.20363890716904       -3.40139024653724       -2.24292199210270
H            3.78654144586808        0.03638086154956        0.22600053578275
H            6.21693800485459        0.03986267156189        0.51902758643546
H            7.17409341277170       -4.29027940583394        1.46196805916498
H            8.90925532159681       -5.69159674981040        2.50758140251520
H           11.28222502194875       -5.11549563424333        2.32405039476218
H           11.99672990907439       -3.08631506953733        1.10386170075206
H           12.10630756469621       -0.76515242424260       -0.35501337269253
H           11.58358953764726        1.25390005400930       -1.68435520229629
H            9.27097870031204        1.78635296176012       -2.28939775759098
H            7.40437395284200        0.34922688749458       -1.57276831297421
H            6.38982232016075       -4.01055799910648       -0.82549099888876
H            3.95488825225326       -4.04422570382064       -1.05571054818571
H            1.85215101814723       -0.67129003992910        1.04032106342436
H           -0.54515182011404       -0.54428248977163        0.68982071615210

 projected vibrational frequencies (cm⁻¹)
eigval :       -0.00    -0.00     0.00     0.00     0.00     0.00
eigval :        5.91     6.79    12.31    12.89    15.10    17.05
eigval :       21.98    29.92    37.99    41.83    43.08    55.88
eigval :       62.92    73.53    80.86    84.86    96.18   100.81
eigval :      103.61   105.11   105.77   116.66   135.81   144.05
eigval :      145.08   147.37   157.86   159.13   172.72   178.87
eigval :      204.76   216.36   219.63   231.19   247.82   253.76
eigval :      257.91   271.54   272.03   272.34   282.14   290.03
eigval :      316.07   325.54   349.91   359.36   372.36   375.08
eigval :      379.32   381.23   385.77   391.03   394.83   395.67
eigval :      399.28   403.26   415.42   417.78   423.14   428.32
eigval :      429.04   433.69   437.78   441.37   450.06   458.78
eigval :      476.24   491.61   515.90   517.71   518.43   521.80
eigval :      533.12   535.43   536.49   539.52   540.41   540.78
eigval :      540.88   573.38   576.83   581.41   583.18   583.74
eigval :      591.81   593.30   596.11   600.72   614.91   617.57
eigval :      618.04   629.70   666.00   669.83   673.84   674.15
eigval :      674.49   674.90   682.79   692.13   696.83   705.85
eigval :      708.84   709.54   711.62   728.74   745.60   754.40
eigval :      756.85   759.13   768.50   769.67   769.70   769.96
eigval :      780.54   780.60   780.84   800.97   814.89   823.04
eigval :      825.79   836.83   851.61   856.74   863.51   864.41
eigval :      872.67   873.31   873.55   874.34   876.46   877.71
eigval :      896.39   897.12   897.30   900.42   902.35   902.40
eigval :      902.71   902.85   903.24   903.76   911.65   917.61
eigval :      918.04   919.32   919.81   920.34   921.91   922.21
eigval :      925.97   926.53   928.01   928.78   929.82   932.84
eigval :      934.39   942.99   955.47   973.13  1007.17  1011.35
eigval :     1011.63  1011.83  1012.03  1014.94  1064.39  1070.40
eigval :     1070.57  1070.79  1073.99  1074.35  1075.44  1113.32
eigval :     1116.79  1117.58  1118.52  1135.19  1137.06  1143.75
eigval :     1149.78  1152.11  1153.10  1153.92  1172.84  1176.42
eigval :     1176.80  1178.71  1181.00  1181.18  1181.25  1181.55
eigval :     1184.62  1186.32  1200.45  1206.29  1208.69  1221.16
eigval :     1235.78  1236.39  1236.82  1244.25  1245.14  1246.17
eigval :     1262.31  1268.54  1270.30  1280.67  1285.46  1294.87
eigval :     1297.93  1299.17  1299.82  1301.21  1301.53  1302.78
eigval :     1316.53  1317.85  1321.90  1327.68  1333.77  1357.67
eigval :     1357.91  1358.21  1360.05  1360.47  1361.20  1363.84
eigval :     1367.61  1368.68  1404.65  1409.38  1414.01  1421.91
eigval :     1422.90  1425.68  1426.57  1426.84  1427.00  1429.80
eigval :     1436.43  1467.40  1471.90  1472.62  1473.26  1474.37
eigval :     1480.12  1484.90  1487.63  1487.91  1488.21  1496.67
eigval :     1509.80  1513.05  1544.89  1545.52  1562.86  1573.59
eigval :     1573.61  1574.35  1581.46  1587.62  1587.87  1588.51
eigval :     1593.45  1595.23  1595.50  1597.32  1611.48  1611.66
eigval :     1613.52  3037.93  3067.63  3072.96  3074.04  3076.39
eigval :     3076.74  3076.91  3077.27  3077.47  3078.16  3079.97
eigval :     3080.62  3081.10  3081.82  3081.87  3082.53  3082.56
eigval :     3083.10  3083.67  3083.82  3084.27  3085.55  3086.86
eigval :     3088.92  3089.38  3090.56  3090.62  3090.71  3091.54
eigval :     3092.05  3094.72  3095.00  3095.09  3095.33  3095.63
eigval :     3096.07  3096.18  3097.07  3097.20  3097.70  3099.66

   temp. (K)  partition function   enthalpy   heat capacity  entropy
                                   cal/mol     cal/K/mol   cal/K/mol   J/K/mol
 298.15  VIB  0.187E+25            29991.730    192.052    187.094
         ROT  0.320E+09              888.752      2.981     41.901
         INT  0.599E+33            30880.483    195.033    228.995
         TR   0.231E+29             1481.254      4.968     45.998
         TOT                       32361.7366   200.0009   274.9927  1150.5695

       T/K    H(0)-H(T)+PV         H(T)/Eh          T*S/Eh         G(T)/Eh
   ------------------------------------------------------------------------
    298.15    0.515717E-01    0.869687E+00    0.130658E+00    0.739029E+00
   ------------------------------------------------------------------------

         :::::::::::::::::::::::::::::::::::::::::::::::::::::
         ::                  THERMODYNAMIC                  ::
         :::::::::::::::::::::::::::::::::::::::::::::::::::::
         :: total free energy        -161.726909396717 Eh   ::
         ::.................................................::
         :: total energy             -162.465938238671 Eh   ::
         :: zero point energy           0.818115036735 Eh   ::
         :: G(RRHO) w/o ZPVE           -0.079086194781 Eh   ::
         :: G(RRHO) contrib.            0.739028841955 Eh   ::
         :::::::::::::::::::::::::::::::::::::::::::::::::::::

           -------------------------------------------------
          | TOTAL ENERGY             -162.465938238671 Eh   |
          | TOTAL ENTHALPY           -161.596251492027 Eh   |
          | TOTAL FREE ENERGY        -161.726909396717 Eh   |
          | GRADIENT NORM               0.000123542719 Eh/α |
           -------------------------------------------------

 * finished run on 2025/07/16 at 09:59:19.113
