   * xtb version 6.7.1 (edcfbbe) compiled by 'albert@albert-system' on 2024-07-22

   ID    Z sym.   atoms
    1    6 C      1-6, 8-25, 27-48, 50-65
    2    7 N      7, 26, 49
    3    1 H      66-106

          program call               : xtb data2507/gas/2CzTPEPCz/2CzTPEPCz_gas_S0_finalOpt.xtbopt.xyz --gfn 2 --spinpol --tblite --uhf 2 --ohess vtight --parallel 40 --molden --ceasefiles --namespace data2507/gas/2CzTPEPCz/2CzTPEPCz_gas_T1_preOpt
 * total energy  :  -162.4433265 Eh     change       -0.3177206E-07 Eh
 * total energy  :  -162.4526715 Eh     change       -0.9345009E-02 Eh
 * total energy  :  -162.4575616 Eh     change       -0.4890047E-02 Eh
 * total energy  :  -162.4589666 Eh     change       -0.1405049E-02 Eh
 * total energy  :  -162.4606478 Eh     change       -0.1681153E-02 Eh
 * total energy  :  -162.4615753 Eh     change       -0.9275218E-03 Eh
 * total energy  :  -162.4620698 Eh     change       -0.4945063E-03 Eh
 * total energy  :  -162.4623619 Eh     change       -0.2920834E-03 Eh
 * total energy  :  -162.4626318 Eh     change       -0.2699517E-03 Eh
 * total energy  :  -162.4628771 Eh     change       -0.2452525E-03 Eh
 * total energy  :  -162.4658064 Eh     change       -0.1140572E-05 Eh
 * total energy  :  -162.4658078 Eh     change       -0.1384451E-05 Eh
 * total energy  :  -162.4658086 Eh     change       -0.7760888E-06 Eh
 * total energy  :  -162.4658094 Eh     change       -0.8056769E-06 Eh
 * total energy  :  -162.4658102 Eh     change       -0.7848404E-06 Eh
 * total energy  :  -162.4658110 Eh     change       -0.8441248E-06 Eh
 * total energy  :  -162.4658120 Eh     change       -0.1008886E-05 Eh
 * total energy  :  -162.4658130 Eh     change       -0.9992873E-06 Eh
 * total energy  :  -162.4658130 Eh     change       -0.9538724E-08 Eh
   *** GEOMETRY OPTIMIZATION CONVERGED AFTER 152 ITERATIONS ***

 final structure:
================
106
 xtb: 6.7.1 (edcfbbe)
C           -1.87904052663661       -1.78599469148103       -1.18239193105930
C           -2.71666167218171       -0.67854122448490       -0.76267301982541
C           -4.10330756039574       -0.90251995638356       -0.52420888549784
C           -5.06021251481039        0.12905327765920       -0.63880198257256
C           -6.39866124826466       -0.11636858391842       -0.45892757300038
C           -6.85045674866502       -1.40241140888750       -0.14995462260589
N           -8.21420402938374       -1.64940775820728        0.02756068505162
C           -8.78250640433824       -2.33344606631149        1.08447971248442
C           -8.18203296853460       -2.87385911554994        2.21293038622157
C           -8.99616792421942       -3.48745041892459        3.14575163998174
C          -10.37667585297409       -3.55735981821253        2.97316253913672
C          -10.98282416400103       -2.99812037411751        1.86551612629693
C          -10.18562315049564       -2.37694704998442        0.91402691728913
C          -10.46892488293551       -1.68832687607372       -0.31445716789404
C          -11.63952790921591       -1.42413199143089       -1.01217618088866
C          -11.55602878055651       -0.74277979740380       -2.21039034310483
C          -10.32372727905233       -0.34241294271993       -2.72182950109814
C           -9.14520444160528       -0.59379075276787       -2.04561354734489
C           -9.22494292562535       -1.25337362508834       -0.82711992265578
C           -5.91990026240127       -2.43966725511684       -0.03721061129731
C           -4.58267025587799       -2.19706974008753       -0.22662246328374
C           -2.10720910522275        0.61420062712343       -0.63766430226873
C           -0.98850061921282        0.95879032462894       -1.42581277545765
C           -0.29549638405372        2.12327336610798       -1.21378021495415
C           -0.67621273570079        2.99649779819873       -0.19227773706457
N            0.09511375964583        4.12762049202480        0.08149077805263
C            1.46859906480321        4.13055004985569        0.23429691023004
C            2.36365676846957        3.07005521664718        0.20068699059586
C            3.69999829436638        3.34767028629308        0.41626768997135
C            4.14219992288601        4.64391602352373        0.67093067611759
C            3.25264745475217        5.69816143096435        0.73383559228640
C            1.90453667667343        5.44477974716576        0.51972350571629
C            0.72871937379872        6.27037407223372        0.53377023011744
C            0.51742845044661        7.62756501555676        0.73394438986265
C           -0.77226722123608        8.11499693124676        0.65483840385638
C           -1.84105183527432        7.27019353760323        0.36418990787766
C           -1.65588317724695        5.91610293028871        0.16024078720237
C           -0.36564434983661        5.41612352247255        0.26390380015975
C           -1.81142091582087        2.69871969616508        0.56645531132153
C           -2.51784658975220        1.54195558996002        0.34045770786338
C           -0.54917847584806       -1.95370728599829       -0.82173772346977
C            0.28087203356668       -2.88038572036404       -1.51800338214146
C            1.62919364070922       -2.92178649580238       -1.31299329477715
C            2.25834104248814       -2.07114384442295       -0.38131270903499
C            3.70390380153264       -2.03715261771645       -0.23693277905593
C            4.35345493771240       -0.84926667311466        0.12213855228901
C            5.72483345045623       -0.78721304991412        0.22734006994791
C            6.50105677518621       -1.91741419503987       -0.02387137676799
N            7.89583105958884       -1.84913968238702        0.06020965096392
C            8.71300744230886       -2.72827526944743        0.74328527997749
C            8.37482892016307       -3.81400401400208        1.53854513126019
C            9.40086014463514       -4.51858563012717        2.13860891708263
C           10.73384102761412       -4.15296159741327        1.96501314878924
C           11.07499770291484       -3.05784231480227        1.19654158990897
C           10.06145707558165       -2.33412845075213        0.58301683109581
C           10.04819441730653       -1.16077353867716       -0.24521799547030
C           11.04625201763918       -0.34326542053931       -0.75832492569517
C           10.68339184745391        0.71793835089823       -1.56354844311540
C            9.34632982890624        0.95810752751811       -1.87188622036361
C            8.33561129471848        0.15838266912811       -1.37374049232533
C            8.69190142522197       -0.89416090498681       -0.54244229781659
C            5.86891670921214       -3.11093971904275       -0.36865233655135
C            4.49631730312769       -3.16663075495665       -0.47277334906417
C            1.43095846353575       -1.24293418174636        0.40047024232846
C            0.08129446443701       -1.19245577000928        0.20844448418137
H           -2.30983737018886       -2.49371734591199       -1.87950229456405
H           -4.73518612073507        1.12185414488758       -0.91072729317531
H           -7.11394014627195        0.68864224032620       -0.54274594280191
H           -7.11556474228953       -2.80770543914884        2.36633452730645
H           -8.55216344415219       -3.91872344460045        4.03084799555749
H          -10.97824377168726       -4.04776378007404        3.72393711615097
H          -12.05443129697407       -3.03610994688261        1.74023687371809
H          -12.59250063479008       -1.75150006747245       -0.62469999411690
H          -12.45480782970569       -0.52460974720974       -2.76774276131810
H          -10.28772772032678        0.17238685729692       -3.67064196254586
H           -8.19421032643943       -0.29730093127430       -2.46144999830338
H           -6.26720209602592       -3.43955153692413        0.17790796961426
H           -3.87285346471620       -3.00536798092661       -0.12961643532456
H           -0.69013664558455        0.30155909077938       -2.22831371978423
H            0.54552481675569        2.37801940694165       -1.84138783298811
H            2.02548272199971        2.06004950008769        0.02156325980522
H            4.41974839026571        2.54256720130956        0.38952994141630
H            5.19550924512433        4.81985951796141        0.83099511237087
H            3.59310125743610        6.69956770580388        0.94978764223966
H            1.34779274553870        8.28534733165006        0.94197395632957
H           -0.95862697072621        9.16724904867014        0.80977443092304
H           -2.83630891764872        7.68343943866326        0.29218462226992
H           -2.48781042577516        5.27332602978013       -0.08457758282515
H           -2.10214353738161        3.36324681398677        1.36674215197579
H           -3.35266951086228        1.29666312390085        0.98020681080300
H           -0.17416571776012       -3.51735264531957       -2.26341386787087
H            2.23405893728828       -3.58987515813709       -1.90839851497387
H            3.77194585314728        0.04291491732604        0.29814300132011
H            6.20875600241143        0.13423892479678        0.51602500416312
H            7.34415463488563       -4.09405593524988        1.69588063331895
H            9.16340435088862       -5.36977087972887        2.75965250013154
H           11.50693988421444       -4.73137233701931        2.44859130772515
H           12.10665177329121       -2.76343169597279        1.07595331675557
H           12.08355104810959       -0.54067208117764       -0.53352922567174
H           11.44377089536851        1.36756633553062       -1.97086950238889
H            9.09356856480917        1.78559430373763       -2.51841560230324
H            7.30469389714805        0.34185298003231       -1.63641573496293
H            6.46545378587636       -3.98777490270505       -0.57256044138635
H            4.02723579736613       -4.10546675301603       -0.72587789725694
H            1.87224847345296       -0.65921091838174        1.19571769867577
H           -0.53015268222420       -0.58611951021242        0.85838611442206

 projected vibrational frequencies (cm⁻¹)
eigval :       -0.00    -0.00     0.00     0.00     0.00     0.00
eigval :        5.60     6.68    11.76    12.39    15.24    16.56
eigval :       21.19    30.06    37.96    41.78    42.89    55.27
eigval :       62.82    73.60    81.71    84.47    95.58   101.06
eigval :      103.48   104.83   105.55   116.83   135.79   143.80
eigval :      144.89   147.64   158.46   159.32   173.10   178.29
eigval :      204.79   215.83   219.88   231.46   247.74   253.69
eigval :      257.62   271.14   271.99   272.20   281.87   289.90
eigval :      316.67   325.86   349.17   359.39   371.78   375.48
eigval :      379.07   381.18   385.76   390.84   394.66   395.71
eigval :      399.25   402.98   414.86   417.83   422.95   428.12
eigval :      428.66   433.50   437.48   441.43   450.30   458.87
eigval :      476.09   491.72   515.79   517.79   518.54   521.60
eigval :      533.20   535.34   536.47   539.78   540.25   540.65
eigval :      540.78   573.18   576.39   581.27   583.17   583.58
eigval :      591.82   593.27   596.05   600.64   614.95   617.53
eigval :      618.10   629.36   665.83   669.87   673.88   674.13
eigval :      674.45   675.17   682.87   692.05   696.55   705.86
eigval :      708.81   709.54   712.01   730.72   745.80   754.57
eigval :      756.96   759.20   768.57   769.26   769.27   769.63
eigval :      780.02   780.11   780.43   800.59   814.78   822.73
eigval :      825.14   836.44   851.19   856.91   862.63   864.15
eigval :      872.35   872.80   872.88   873.47   875.92   877.60
eigval :      896.50   897.18   897.39   900.38   901.89   901.96
eigval :      902.27   902.40   902.82   903.49   910.98   917.08
eigval :      917.54   918.81   919.30   919.89   921.66   921.97
eigval :      925.49   926.05   927.86   928.80   929.42   932.23
eigval :      934.03   942.80   955.50   972.49  1006.20  1011.26
eigval :     1011.72  1011.98  1012.17  1015.11  1063.85  1070.64
eigval :     1070.74  1070.99  1074.33  1075.37  1075.65  1115.32
eigval :     1117.16  1117.99  1118.54  1135.00  1137.14  1143.67
eigval :     1149.50  1152.12  1152.91  1153.57  1172.80  1175.24
eigval :     1176.00  1178.50  1180.44  1180.48  1181.10  1181.22
eigval :     1184.67  1186.48  1200.44  1206.19  1208.90  1220.90
eigval :     1235.53  1235.91  1236.85  1243.95  1244.96  1246.06
eigval :     1262.35  1268.42  1270.23  1280.04  1285.60  1294.78
eigval :     1297.75  1298.64  1299.69  1300.77  1301.10  1302.49
eigval :     1316.09  1317.95  1321.91  1327.42  1334.40  1357.62
eigval :     1357.96  1358.32  1359.85  1360.49  1360.90  1363.51
eigval :     1366.70  1368.33  1405.21  1409.95  1414.01  1421.61
eigval :     1422.83  1425.15  1425.70  1426.19  1426.37  1429.44
eigval :     1436.19  1467.28  1472.39  1472.70  1473.19  1474.33
eigval :     1479.59  1485.11  1487.68  1487.93  1488.72  1496.49
eigval :     1509.61  1512.78  1544.37  1544.86  1562.42  1573.48
eigval :     1573.57  1574.26  1581.67  1587.61  1587.88  1588.54
eigval :     1593.27  1595.15  1595.62  1597.14  1611.55  1611.80
eigval :     1613.23  3038.74  3067.88  3072.41  3074.39  3076.44
eigval :     3076.75  3076.87  3077.33  3077.61  3078.37  3079.84
eigval :     3080.66  3081.03  3081.78  3081.95  3082.55  3082.60
eigval :     3083.18  3083.71  3084.05  3084.49  3085.67  3087.02
eigval :     3088.89  3089.35  3090.54  3090.72  3091.01  3091.77
eigval :     3092.07  3094.63  3094.91  3095.09  3095.31  3095.44
eigval :     3096.37  3096.72  3097.27  3097.43  3098.01  3098.78

   temp. (K)  partition function   enthalpy   heat capacity  entropy
                                   cal/mol     cal/K/mol   cal/K/mol   J/K/mol
 298.15  VIB  0.234E+25            30001.631    192.067    187.325
         ROT  0.318E+09              888.752      2.981     41.885
         INT  0.743E+33            30890.384    195.048    229.210
         TR   0.231E+29             1481.254      4.968     45.998
         TOT                       32371.6377   200.0158   275.2084  1151.4721

       T/K    H(0)-H(T)+PV         H(T)/Eh          T*S/Eh         G(T)/Eh
   ------------------------------------------------------------------------
    298.15    0.515875E-01    0.869629E+00    0.130760E+00    0.738868E+00
   ------------------------------------------------------------------------

         :::::::::::::::::::::::::::::::::::::::::::::::::::::
         ::                  THERMODYNAMIC                  ::
         :::::::::::::::::::::::::::::::::::::::::::::::::::::
         :: total free energy        -161.726944936998 Eh   ::
         ::.................................................::
         :: total energy             -162.465813034195 Eh   ::
         :: zero point energy           0.818041016695 Eh   ::
         :: G(RRHO) w/o ZPVE           -0.079172919498 Eh   ::
         :: G(RRHO) contrib.            0.738868097197 Eh   ::
         :::::::::::::::::::::::::::::::::::::::::::::::::::::

           -------------------------------------------------
          | TOTAL ENERGY             -162.465813034195 Eh   |
          | TOTAL ENTHALPY           -161.596184529166 Eh   |
          | TOTAL FREE ENERGY        -161.726944936998 Eh   |
          | GRADIENT NORM               0.000058736011 Eh/α |
           -------------------------------------------------

 * finished run on 2025/07/16 at 09:51:21.064
