   * xtb version 6.7.1 (edcfbbe) compiled by 'albert@albert-system' on 2024-07-22

   ID    Z sym.   atoms
    1    6 C      1-20, 22-25, 27-48, 50, 51, 53, 55, 56
    2    7 N      21, 26, 52, 54
    3    8 O      49
    4    1 H      57-110

          program call               : xtb data2507/toluene/25tCzBPym/25tCzBPym.xyz --gfn 2 --gbsa toluene --ohess vtight --parallel 40 --molden --ceasefiles --namespace data2507/toluene/25tCzBPym/25tCzBPym_toluene_S0_preOpt
      * Solvation model:               GBSA
        Solvent                        toluene
        Solvent mass                       9.2140E+01 g/mol
          :  Hamiltonian                  GFN2-xTB          :
 * total energy  :  -152.6646241 Eh     change       -0.3191190E-08 Eh
 * total energy  :  -152.6831753 Eh     change       -0.1855124E-01 Eh
 * total energy  :  -152.6884817 Eh     change       -0.5306367E-02 Eh
 * total energy  :  -152.6899935 Eh     change       -0.1511856E-02 Eh
 * total energy  :  -152.6909821 Eh     change       -0.9885653E-03 Eh
 * total energy  :  -152.6913993 Eh     change       -0.4171920E-03 Eh
 * total energy  :  -152.6916265 Eh     change       -0.2271584E-03 Eh
 * total energy  :  -152.6917727 Eh     change       -0.1462539E-03 Eh
 * total energy  :  -152.6918720 Eh     change       -0.9932055E-04 Eh
 * total energy  :  -152.6919734 Eh     change       -0.1014242E-03 Eh
 * total energy  :  -152.6928518 Eh     change       -0.5016991E-06 Eh
 * total energy  :  -152.6928523 Eh     change       -0.5071618E-06 Eh
 * total energy  :  -152.6928528 Eh     change       -0.4471944E-06 Eh
 * total energy  :  -152.6928532 Eh     change       -0.4070098E-06 Eh
 * total energy  :  -152.6928536 Eh     change       -0.4411864E-06 Eh
 * total energy  :  -152.6928541 Eh     change       -0.5023482E-06 Eh
 * total energy  :  -152.6928546 Eh     change       -0.5100816E-06 Eh
 * total energy  :  -152.6928551 Eh     change       -0.4796976E-06 Eh
 * total energy  :  -152.6928551 Eh     change       -0.9857104E-08 Eh
   *** GEOMETRY OPTIMIZATION CONVERGED AFTER 94 ITERATIONS ***

 final structure:
================
110
 xtb: 6.7.1 (edcfbbe)
C            6.40381489350588        2.86430392353549       -4.86129025363964
C            6.89326107604629        2.08212187894122       -3.63850127708645
C            7.77964703343875        0.92972884497084       -4.13445740806550
C            7.72164523258047        3.03579725959858       -2.76424718810385
C            5.75400794825147        1.50964039675679       -2.80523973500908
C            4.41014007996700        1.70878736207736       -3.13300434564834
C            3.37202975463648        1.18924249842604       -2.37965784210536
C            3.68612269042184        0.43622029761226       -1.26152950518542
C            5.03422703656636        0.24130139101708       -0.89314513397280
C            6.05418284422288        0.77248306380720       -1.66657935188636
C            5.02000518483358       -0.52114084403377        0.32682034935359
C            6.02871616563652       -1.02741356796820        1.13583749496182
C            5.70356154405472       -1.76366860230369        2.26396584734553
C            6.75598358702850       -2.34081661130473        3.20075781661562
C            8.18406184708059       -2.00489882905164        2.75980402225672
C            6.54500546735932       -1.76482467992046        4.60910551836915
C            6.61623394507417       -3.87003483597401        3.23803374410169
C            4.34966930704505       -1.99213026176457        2.54305926422337
C            3.32680312983033       -1.50239673859626        1.75515490277577
C            3.66485381016199       -0.74306425974870        0.64595320394840
N            2.86170722060013       -0.16344549286424       -0.32263536321378
C            1.46764835079320       -0.17380785748378       -0.34491448784780
C            0.77539768137413       -0.51707474980641       -1.50855496672802
C           -0.60262112462199       -0.52004149055054       -1.52162895339586
C           -1.33469756894347       -0.21494160602953       -0.37383407479883
N           -2.72727173292438       -0.22024725238119       -0.42803251109673
C           -3.50831150184457       -1.26804657426643       -0.88852934746929
C           -3.14122835900355       -2.51799975152662       -1.35449185034688
C           -4.14222089131204       -3.39601509695826       -1.73203741946635
C           -5.49916555240978       -3.07219534567699       -1.65241804775834
C           -6.59705747422433       -4.03924889497112       -2.07647783839162
C           -6.04964662915457       -5.36953135462615       -2.60300860922048
C           -7.49533116411743       -4.33944436335097       -0.86707302989840
C           -7.42925368166419       -3.39246052354387       -3.19410748270007
C           -5.85278458403176       -1.82261409037740       -1.15764613359244
C           -4.87128647406530       -0.92350975397271       -0.77286598514541
C           -4.91232612133011        0.40324853796855       -0.21706683970395
C           -5.94619028632899        1.26730757479690        0.10482743361561
C           -5.66962958665313        2.52789726033853        0.62024247516218
C           -6.82601911629483        3.45147158330258        0.98091002214550
C           -6.36075598906799        4.79831994156609        1.54308535840146
C           -7.69701000010314        2.76755265326162        2.04557967089485
C           -7.66285916111719        3.72443810053151       -0.27806581046190
C           -4.33274182996650        2.90156522278805        0.77930365808374
C           -3.28161865333917        2.05932062891762        0.46258431380703
C           -3.57202161688128        0.79453437520587       -0.01567412687197
C           -0.64558718623232        0.12332488670759        0.80406553617002
C           -1.36352438748127        0.33192911561788        2.08338661708683
O           -2.32953216108339       -0.32654865481373        2.41910153734921
C           -0.81111467590635        1.37337825548830        2.99200387039056
C           -1.00443349567713        1.27253449094951        4.37274834381288
N           -0.57317718669721        2.19140209210334        5.21651425456819
C            0.06794831312589        3.22361353468459        4.69504994221875
N            0.30003551322037        3.43259983319378        3.41123849398615
C           -0.14554384582518        2.52290583570336        2.56284667843303
C            0.74674469900539        0.15728912549677        0.79713476044349
H            7.26131469711969        3.24036454573479       -5.41619118277288
H            5.79745428556479        3.71721709678649       -4.56448824779812
H            5.82597042188030        2.22868011935702       -5.52865264786145
H            8.59229160158051        1.31770432024256       -4.74533865937889
H            8.21206896348246        0.37635451098417       -3.30541723508539
H            7.19459170455796        0.23784178215152       -4.73748756349851
H            8.15587883182159        2.51815442437212       -1.91337047360024
H            8.53091692357518        3.47121243016855       -3.34691799556792
H            7.09413113039292        3.84174832271327       -2.38822810860901
H            4.14886436986193        2.29105899753207       -4.00093118075043
H            2.34764263281293        1.38463550402346       -2.65936602253841
H            7.07677451652595        0.60863386611737       -1.36429340478142
H            7.05293869558277       -0.83818808467478        0.86190658827675
H            8.34366016847317       -0.92916633764440        2.73715234386739
H            8.89129183122967       -2.43430723577628        3.46677030292196
H            8.39832197948760       -2.41977532210494        1.77742937103542
H            5.56720279953645       -2.02734193873291        5.00383428171048
H            6.62310044173630       -0.67937646705120        4.58706640775205
H            7.30119915707232       -2.15185242590049        5.28908040413839
H            7.37636716736540       -4.29952450043211        3.88746225610661
H            5.64134111002251       -4.17143596201750        3.61141565809874
H            6.74125599247508       -4.28386197656314        2.23915524191062
H            4.07869918546084       -2.57919324328963        3.40745405864980
H            2.29767566962188       -1.72351865784245        1.99819322178746
H            1.32680736832503       -0.78689394845413       -2.39578193796290
H           -1.13501109061037       -0.76394423776969       -2.42823725343107
H           -2.10483189999281       -2.81531967803742       -1.41420735276498
H           -3.84048646342024       -4.36425496305173       -2.09556548361119
H           -6.87944933252055       -6.01045998897285       -2.89476936303308
H           -5.42100655497914       -5.21622339361953       -3.47733500234043
H           -5.47839887274164       -5.88962890637204       -1.83728298946984
H           -6.90729037475235       -4.77264156964985       -0.06009212603310
H           -7.97141921608476       -3.43738530271327       -0.49271556250474
H           -8.27498845920569       -5.04584144858139       -1.14500079246382
H           -8.21164918130111       -4.07413795172505       -3.52159471211481
H           -7.89890789560894       -2.47261467294155       -2.85684584369924
H           -6.79524461671136       -3.15826387622035       -4.04717869353891
H           -6.88861695716839       -1.53661781850357       -1.06045482521621
H           -6.96351229622980        0.94453536802265       -0.05321767381776
H           -5.76636990116676        5.34421071182630        0.81373477991887
H           -7.22948410474229        5.40577038521127        1.78958349909420
H           -5.77747734842516        4.66359646608305        2.45156036933720
H           -8.11529834573980        1.83513225748072        1.67683440706005
H           -8.51884012679222        3.41989009399656        2.33355932197770
H           -7.10374774165926        2.54683523329991        2.93115609643060
H           -7.04665087034015        4.18886300175049       -1.04552089712749
H           -8.07797545982331        2.80638226277806       -0.68437294828933
H           -8.48593452038538        4.39570619488505       -0.04196052277474
H           -4.08647360215068        3.87956453210548        1.15912683516241
H           -2.26201594743842        2.39545528803910        0.58524330401637
H           -1.51733475815406        0.41710072683718        4.79428825313443
H            0.43332794369183        3.97244937536339        5.38591487489147
H            0.02771165211453        2.72938499909042        1.51372247179453
H            1.28112537925549        0.41658721018758        1.69877314169096

          :  Hamiltonian                  GFN2-xTB          :
         :: gradient norm              0.000056238260 Eh/a0 ::
         :: HOMO-LUMO gap              1.066210569829 eV    ::
         :: SCC energy              -155.258473823453 Eh    ::
         :: -> dispersion             -0.141062129933 Eh    ::
         :: -> Gsolv                  -0.060296690570 Eh    ::
         :: repulsion energy           2.565618705849 Eh    ::

    * Orbital Energies and Occupations

         #    Occupation            Energy/Eh            Energy/eV
      -------------------------------------------------------------
         1        2.0000           -0.7334150             -19.9572
       ...           ...                  ...                  ...
       130        2.0000           -0.4169580             -11.3460
       131        2.0000           -0.4119941             -11.2109
       132        2.0000           -0.4105731             -11.1723
       133        2.0000           -0.4100150             -11.1571
       134        2.0000           -0.4089416             -11.1279
       135        2.0000           -0.4084728             -11.1151
       136        2.0000           -0.3981582             -10.8344
       137        2.0000           -0.3969021             -10.8003
       138        2.0000           -0.3933207             -10.7028
       139        2.0000           -0.3769233             -10.2566
       140        2.0000           -0.3768898             -10.2557
       141        2.0000           -0.3653066              -9.9405
       142        2.0000           -0.3578743              -9.7383 (HOMO)
       143                         -0.3186918              -8.6720 (LUMO)
       144                         -0.2943233              -8.0089
       145                         -0.2706107              -7.3637
       146                         -0.2552970              -6.9470
       147                         -0.2435961              -6.6286
       148                         -0.2419555              -6.5839
       149                         -0.2240344              -6.0963
       150                         -0.2208622              -6.0100
       151                         -0.2203432              -5.9958
       152                         -0.1967994              -5.3552
       153                         -0.1886512              -5.1335
       ...                                ...                  ...
       278                          0.7451450              20.2764
      -------------------------------------------------------------
                  HL-Gap            0.0391825 Eh            1.0662 eV

     #   Z          covCN         q      C6AA      α(0)
     1   6 C        3.761    -0.107    22.594     6.776
     2   6 C        3.902     0.025    20.097     6.372
     3   6 C        3.761    -0.105    22.552     6.770
     4   6 C        3.761    -0.105    22.551     6.770
     5   6 C        2.972    -0.001    28.039     8.686
     6   6 C        2.928    -0.044    29.089     8.845
     7   6 C        2.909    -0.056    29.382     8.888
     8   6 C        3.071     0.041    27.000     8.520
     9   6 C        3.064    -0.018    28.404     8.739
    10   6 C        2.920    -0.040    28.989     8.829
    11   6 C        3.065    -0.019    28.415     8.741
    12   6 C        2.918    -0.044    29.095     8.845
    13   6 C        2.972    -0.001    28.050     8.687
    14   6 C        3.902     0.025    20.098     6.372
    15   6 C        3.761    -0.107    22.594     6.776
    16   6 C        3.761    -0.105    22.548     6.769
    17   6 C        3.761    -0.105    22.549     6.769
    18   6 C        2.931    -0.040    28.994     8.831
    19   6 C        2.908    -0.055    29.374     8.887
    20   6 C        3.073     0.041    27.008     8.521
    21   7 N        2.801    -0.046    22.122     6.986
    22   6 C        2.908     0.067    26.503     8.442
    23   6 C        2.920    -0.036    28.904     8.816
    24   6 C        2.921    -0.041    29.018     8.834
    25   6 C        2.911     0.073    26.369     8.420
    26   7 N        2.800    -0.046    22.125     6.986
    27   6 C        3.075     0.047    26.868     8.499
    28   6 C        2.909    -0.055    29.368     8.886
    29   6 C        2.929    -0.044    29.092     8.846
    30   6 C        2.972    -0.001    28.042     8.686
    31   6 C        3.902     0.025    20.096     6.372
    32   6 C        3.761    -0.107    22.600     6.777
    33   6 C        3.761    -0.105    22.546     6.769
    34   6 C        3.761    -0.105    22.558     6.771
    35   6 C        2.920    -0.040    28.986     8.829
    36   6 C        3.064    -0.018    28.382     8.736
    37   6 C        3.064    -0.017    28.375     8.735
    38   6 C        2.921    -0.040    28.995     8.830
    39   6 C        2.972    -0.001    28.056     8.688
    40   6 C        3.902     0.025    20.098     6.372
    41   6 C        3.761    -0.107    22.584     6.775
    42   6 C        3.761    -0.105    22.547     6.769
    43   6 C        3.761    -0.106    22.563     6.771
    44   6 C        2.928    -0.045    29.123     8.850
    45   6 C        2.909    -0.057    29.421     8.894
    46   6 C        3.074     0.049    26.822     8.491
    47   6 C        2.971    -0.030    28.745     8.794
    48   6 C        2.825     0.235    23.080     7.872
    49   8 O        0.858    -0.388    21.437     6.208
    50   6 C        2.959    -0.028    28.699     8.787
    51   6 C        2.938     0.091    25.970     8.358
    52   7 N        1.833    -0.224    26.742     7.663
    53   6 C        2.924     0.155    24.646     8.141
    54   7 N        1.834    -0.224    26.734     7.662
    55   6 C        2.931     0.084    26.139     8.385
    56   6 C        2.926    -0.044    29.094     8.846
    57   1 H        0.925     0.037     2.488     2.467
    58   1 H        0.925     0.036     2.509     2.477
    59   1 H        0.925     0.036     2.506     2.476
    60   1 H        0.925     0.038     2.477     2.461
    61   1 H        0.925     0.036     2.496     2.471
    62   1 H        0.925     0.032     2.552     2.498
    63   1 H        0.925     0.036     2.498     2.472
    64   1 H        0.925     0.038     2.475     2.460
    65   1 H        0.925     0.032     2.556     2.500
    66   1 H        0.926     0.040     2.444     2.445
    67   1 H        0.926     0.028     2.616     2.529
    68   1 H        0.926     0.034     2.536     2.490
    69   1 H        0.926     0.041     2.434     2.440
    70   1 H        0.925     0.036     2.500     2.472
    71   1 H        0.925     0.037     2.483     2.464
    72   1 H        0.925     0.036     2.497     2.471
    73   1 H        0.925     0.035     2.522     2.483
    74   1 H        0.925     0.032     2.554     2.499
    75   1 H        0.925     0.039     2.466     2.456
    76   1 H        0.925     0.039     2.467     2.456
    77   1 H        0.925     0.035     2.516     2.481
    78   1 H        0.925     0.033     2.546     2.495
    79   1 H        0.926     0.030     2.585     2.514
    80   1 H        0.926     0.019     2.743     2.590
    81   1 H        0.926     0.065     2.137     2.286
    82   1 H        0.926     0.063     2.162     2.299
    83   1 H        0.926     0.027     2.631     2.536
    84   1 H        0.926     0.041     2.432     2.439
    85   1 H        0.925     0.038     2.477     2.461
    86   1 H        0.925     0.036     2.497     2.471
    87   1 H        0.925     0.035     2.511     2.478
    88   1 H        0.925     0.032     2.563     2.504
    89   1 H        0.925     0.036     2.506     2.476
    90   1 H        0.925     0.039     2.466     2.456
    91   1 H        0.925     0.039     2.466     2.456
    92   1 H        0.925     0.036     2.499     2.472
    93   1 H        0.925     0.033     2.543     2.494
    94   1 H        0.926     0.033     2.544     2.494
    95   1 H        0.926     0.035     2.515     2.480
    96   1 H        0.925     0.036     2.507     2.476
    97   1 H        0.925     0.039     2.460     2.453
    98   1 H        0.925     0.033     2.546     2.495
    99   1 H        0.925     0.037     2.490     2.467
   100   1 H        0.925     0.040     2.452     2.449
   101   1 H        0.925     0.030     2.579     2.512
   102   1 H        0.925     0.033     2.541     2.493
   103   1 H        0.925     0.037     2.483     2.464
   104   1 H        0.925     0.040     2.449     2.447
   105   1 H        0.926     0.036     2.507     2.476
   106   1 H        0.926     0.008     2.930     2.677
   107   1 H        0.925     0.065     2.138     2.287
   108   1 H        0.925     0.063     2.164     2.301
   109   1 H        0.925     0.059     2.212     2.326
   110   1 H        0.926     0.046     2.369     2.407

molecular dipole:
                 x           y           z       tot (Debye)
 q only:        0.945       0.097      -1.260
   full:        0.910      -0.079      -1.333       4.106

 projected vibrational frequencies (cm⁻¹)
eigval :       -0.00    -0.00    -0.00     0.00     0.00     0.00
eigval :        5.40     9.46    11.88    14.53    18.53    23.06
eigval :       24.48    28.30    38.21    41.06    43.71    55.42
eigval :       58.09    61.35    69.84    71.99    76.28    80.86
eigval :       85.09   113.17   118.59   121.82   131.97   138.73
eigval :      153.00   156.75   162.05   172.00   180.26   182.55
eigval :      184.70   191.62   199.00   202.40   212.58   216.76
eigval :      218.46   231.77   231.99   241.17   243.81   255.65
eigval :      263.34   265.26   273.39   276.90   291.18   295.90
eigval :      305.64   310.70   317.90   320.03   320.54   321.39
eigval :      325.97   328.33   328.56   342.95   346.22   352.57
eigval :      354.48   356.86   364.68   368.17   374.76   385.80
eigval :      396.12   400.93   409.00   410.15   416.18   423.41
eigval :      440.54   442.38   443.50   445.64   447.55   460.34
eigval :      464.54   467.64   469.18   475.06   481.01   508.56
eigval :      517.18   523.38   557.54   572.92   576.36   580.98
eigval :      582.98   586.87   595.59   608.45   621.20   632.68
eigval :      638.01   639.01   648.99   665.16   683.79   686.65
eigval :      687.63   700.89   703.81   706.12   712.40   716.88
eigval :      719.80   728.87   733.39   790.11   812.73   814.55
eigval :      817.06   820.18   831.46   833.05   836.70   845.93
eigval :      869.93   871.66   873.03   873.73   878.49   879.79
eigval :      894.83   901.91   904.03   904.31   907.52   916.59
eigval :      921.16   922.88   924.94   926.50   927.52   932.02
eigval :      938.23   943.76   958.30   958.47   959.48   959.94
eigval :      961.13   961.28   962.21   962.32   962.70   963.10
eigval :      963.48   964.52  1005.05  1027.34  1032.89  1033.36
eigval :     1034.69  1034.85  1034.89  1035.23  1035.48  1035.85
eigval :     1036.72  1039.80  1100.06  1115.12  1126.30  1128.94
eigval :     1129.05  1133.43  1141.43  1153.05  1173.44  1174.22
eigval :     1178.33  1180.04  1203.34  1213.03  1224.41  1225.15
eigval :     1225.51  1225.65  1225.72  1225.75  1226.66  1229.70
eigval :     1230.51  1232.57  1233.47  1239.67  1241.31  1247.15
eigval :     1248.52  1250.88  1255.04  1262.39  1282.78  1283.57
eigval :     1295.92  1300.18  1301.96  1303.85  1311.55  1339.67
eigval :     1345.36  1350.98  1359.27  1363.18  1388.70  1393.97
eigval :     1396.63  1398.27  1399.48  1401.07  1401.94  1402.19
eigval :     1402.60  1402.68  1404.35  1404.84  1411.31  1415.17
eigval :     1425.41  1426.20  1426.82  1429.27  1434.08  1447.52
eigval :     1469.41  1472.63  1472.73  1473.07  1481.42  1488.03
eigval :     1489.86  1490.66  1491.15  1491.45  1492.28  1492.84
eigval :     1493.57  1499.09  1499.49  1500.00  1500.57  1501.27
eigval :     1503.27  1504.33  1504.59  1511.73  1511.85  1511.93
eigval :     1512.44  1517.40  1517.47  1518.09  1518.49  1532.13
eigval :     1541.96  1543.91  1570.39  1572.46  1582.20  1583.16
eigval :     1586.91  1603.76  1604.55  1615.90  1618.40  1672.70
eigval :     3017.31  3018.43  3018.59  3019.04  3020.06  3020.21
eigval :     3020.75  3020.92  3022.61  3023.02  3023.41  3023.70
eigval :     3024.40  3024.89  3025.28  3025.94  3026.64  3027.20
eigval :     3027.37  3027.46  3029.77  3030.30  3030.62  3030.67
eigval :     3034.89  3035.42  3035.43  3035.69  3043.07  3044.14
eigval :     3044.62  3044.87  3045.19  3046.38  3047.35  3047.92
eigval :     3048.68  3056.38  3062.37  3069.74  3070.32  3077.15
eigval :     3078.89  3088.06  3088.85  3090.52  3090.80  3092.34
eigval :     3096.40  3107.15  3113.02  3118.77  3119.37  3119.58

   temp. (K)  partition function   enthalpy   heat capacity  entropy
                                   cal/mol     cal/K/mol   cal/K/mol   J/K/mol
 298.15  VIB  0.609E+26            32233.814    195.607    201.853
         ROT  0.161E+09              888.752      2.981     40.537
         INT  0.982E+34            33122.567    198.588    242.391
         TR   0.194E+29             1481.254      4.968     45.659
         TOT                       34603.8206   203.5562   288.0498  1205.2002

       T/K    H(0)-H(T)+PV         H(T)/Eh          T*S/Eh         G(T)/Eh
   ------------------------------------------------------------------------
    298.15    0.551447E-01    0.963721E+00    0.136862E+00    0.826859E+00
   ------------------------------------------------------------------------

         :::::::::::::::::::::::::::::::::::::::::::::::::::::
         ::                  THERMODYNAMIC                  ::
         :::::::::::::::::::::::::::::::::::::::::::::::::::::
         :: total free energy        -151.865995677092 Eh   ::
         ::.................................................::
         :: total energy             -152.692855117681 Eh   ::
         :: zero point energy           0.908576478920 Eh   ::
         :: G(RRHO) w/o ZPVE           -0.081717038331 Eh   ::
         :: G(RRHO) contrib.            0.826859440589 Eh   ::
         :::::::::::::::::::::::::::::::::::::::::::::::::::::

           -------------------------------------------------
          | TOTAL ENERGY             -152.692855117681 Eh   |
          | TOTAL ENTHALPY           -151.729133940485 Eh   |
          | TOTAL FREE ENERGY        -151.865995677092 Eh   |
          | GRADIENT NORM               0.000056235863 Eh/α |
          | HOMO-LUMO GAP               1.066210505281 eV   |
           -------------------------------------------------

 * finished run on 2025/09/04 at 04:14:51.564
