   * xtb version 6.7.1 (edcfbbe) compiled by 'albert@albert-system' on 2024-07-22

   ID    Z sym.   atoms
    1    6 C      1-20, 22-25, 27-48, 50, 51, 53, 55, 56
    2    7 N      21, 26, 52, 54
    3    8 O      49
    4    1 H      57-110

          program call               : xtb data2507/toluene/25tCzBPym/25tCzBPym_toluene_S0_finalOpt.xtbopt.xyz --gfn 2 --uhf 2 --gbsa toluene --ohess vtight --parallel 40 --molden --ceasefiles --namespace data2507/toluene/25tCzBPym/25tCzBPym_toluene_T1_preOpt
      * Solvation model:               GBSA
        Solvent                        toluene
        Solvent mass                       9.2140E+01 g/mol
          :  Hamiltonian                  GFN2-xTB          :
 * total energy  :  -152.6274522 Eh     change       -0.7830977E-08 Eh
 * total energy  :  -152.6316413 Eh     change       -0.4189027E-02 Eh
 * total energy  :  -152.6330655 Eh     change       -0.1424238E-02 Eh
 * total energy  :  -152.6335597 Eh     change       -0.4941620E-03 Eh
 * total energy  :  -152.6341308 Eh     change       -0.5710944E-03 Eh
 * total energy  :  -152.6345730 Eh     change       -0.4422218E-03 Eh
 * total energy  :  -152.6349751 Eh     change       -0.4020642E-03 Eh
 * total energy  :  -152.6351536 Eh     change       -0.1785157E-03 Eh
 * total energy  :  -152.6352702 Eh     change       -0.1165815E-03 Eh
 * total energy  :  -152.6353392 Eh     change       -0.6908908E-04 Eh
 * total energy  :  -152.6356796 Eh     change       -0.1782687E-06 Eh
 * total energy  :  -152.6356798 Eh     change       -0.1967566E-06 Eh
 * total energy  :  -152.6356800 Eh     change       -0.1985449E-06 Eh
 * total energy  :  -152.6356802 Eh     change       -0.1819228E-06 Eh
 * total energy  :  -152.6356804 Eh     change       -0.1901288E-06 Eh
 * total energy  :  -152.6356806 Eh     change       -0.2314390E-06 Eh
 * total energy  :  -152.6356809 Eh     change       -0.2840741E-06 Eh
 * total energy  :  -152.6356812 Eh     change       -0.2830367E-06 Eh
 * total energy  :  -152.6356812 Eh     change       -0.2774470E-08 Eh
   *** GEOMETRY OPTIMIZATION CONVERGED AFTER 68 ITERATIONS ***

 final structure:
================
110
 xtb: 6.7.1 (edcfbbe)
C            6.75214225703517       -5.04338905039214       -1.43408019717979
C            6.94793338902647       -3.66220089882034       -2.07812358939054
C            8.39961766804510       -3.23080892640883       -1.84802018453214
C            6.71143134471531       -3.75681814405988       -3.59335739636375
C            5.94575702353104       -2.68693567970388       -1.48113431194591
C            4.57631047663465       -2.95672159798749       -1.60627836250000
C            3.59742569459727       -2.12438663509338       -1.10103804607778
C            3.99908042783615       -0.96479958070260       -0.45181705795865
C            5.37335067542047       -0.68252957156220       -0.29059743011206
C            6.33539949565651       -1.53577263727890       -0.80485663141057
C            5.45189272025280        0.54539219497831        0.46156781036441
C            6.51490599555666        1.32030478081106        0.89514758701585
C            6.26962898815435        2.49812276852999        1.59318042223808
C            7.38764679210136        3.39200831739355        2.10611031639752
C            8.77946215370732        2.83735694585647        1.78762005989659
C            7.26324839749392        4.77672448638568        1.45190917732608
C            7.26384355240670        3.52425297584269        3.63186779014201
C            4.93937141035877        2.87670825035080        1.81893608460755
C            3.86223830216413        2.12333135924638        1.39660808242899
C            4.12126038368332        0.93378253289116        0.72919018312020
N            3.25215244566373        0.01338648669882        0.17556650230646
C            1.85951380053780        0.06414556393072        0.24579252288378
C            1.22858791979289        0.31264278323566        1.47241690319385
C           -0.14916571013200        0.37614912996067        1.52578982663906
C           -0.92675800910430        0.17616409629306        0.38948287759064
N           -2.31211087224608        0.33522601977332        0.48764464962541
C           -3.10030936678401        1.10950156131802       -0.33968043649156
C           -2.73924441265367        1.98695780144601       -1.35226848019668
C           -3.74898597862962        2.64704630775326       -2.02347996841366
C           -5.10539748988196        2.47773769088294       -1.71648119448051
C           -6.14518634406696        3.22583458841875       -2.53537155195503
C           -5.90686725534063        4.73742416447435       -2.39729550844693
C           -6.00872151437257        2.80823722768567       -4.00781079615807
C           -7.57836530701803        2.92526226821621       -2.08605443769068
C           -5.44849529218527        1.63039875735346       -0.66767391841151
C           -4.45571307599925        0.95424621715088        0.02057769956465
C           -4.47916195810480        0.03201688659431        1.12949857324435
C           -5.50455064221566       -0.52601386983547        1.87289164774512
C           -5.20838821780118       -1.43864795289403        2.88100976668090
C           -6.28521173053520       -2.09906726616445        3.72646266297841
C           -7.69570311791187       -1.63041600322909        3.35680635533471
C           -6.04288955562881       -1.76509132494885        5.20647323523058
C           -6.21587791784649       -3.61976155333487        3.51666110372333
C           -3.86700390007690       -1.77219086030545        3.10870672449679
C           -2.82621741537511       -1.23329797822645        2.37986456991670
C           -3.13547274301472       -0.31537334434893        1.38528561703223
C           -0.30338400367405       -0.13340564202216       -0.84482595730972
C           -1.03765141347968       -0.38074766910363       -2.09640489661407
O           -0.56232591400420        0.04335148412233       -3.18961218213844
C           -2.26283532950176       -1.12364007406887       -2.04101885482808
C           -3.17855646767711       -1.10317830386561       -3.12463141460263
N           -4.31213240924084       -1.74705638295588       -3.10568943069373
C           -4.60237538206055       -2.49098089567121       -2.03876740971370
N           -3.77132609027947       -2.68097890418984       -1.01965391012533
C           -2.63534792931446       -2.03142706119624       -1.01712478943311
C            1.09225945770502       -0.14246970812399       -0.89005513943456
H            7.48194842115016       -5.74554343955077       -1.83129479527434
H            5.75958017417028       -5.43838933921140       -1.63162816022925
H            6.88575931582040       -4.97862335617518       -0.35598608665998
H            9.06802671204826       -3.96144321512458       -2.29881701386711
H            8.59934171746292       -2.26599690185024       -2.30848250849913
H            8.62907675260689       -3.17768200350889       -0.78628206841368
H            6.83029937292520       -2.77863229235778       -4.05552750873536
H            7.43059705334538       -4.43958746219224       -4.04076279469497
H            5.71254129155841       -4.11979354241081       -3.81925350245331
H            4.25720724672075       -3.85305340073611       -2.11493712447725
H            2.55381335815215       -2.37863862477989       -1.20739689455595
H            7.37440410004333       -1.29138339919793       -0.66489972154100
H            7.51737151033991        0.99584880972953        0.67452119963383
H            8.93456851624886        2.76049452592148        0.71388066697693
H            9.53610655269855        3.50963845734359        2.18705828559739
H            8.92568378745380        1.86053434903920        2.24290144218790
H            6.32085082570842        5.25441767052329        1.70475303469856
H            7.32067705826840        4.68815606398876        0.36870116907425
H            8.07217139782101        5.42146334450649        1.78868934519560
H            8.06524645176866        4.15098285527484        4.01709763523790
H            6.31613889401346        3.97165312544169        3.91792317569750
H            7.33532454106146        2.54519166697551        4.10162888395694
H            4.73309840060001        3.79867665800076        2.33963102437820
H            2.85264573111183        2.46262926944345        1.56997126747030
H            1.81641554684136        0.44599218089336        2.36613619516762
H           -0.63998914187989        0.61864943520976        2.45663532470534
H           -1.70608155321780        2.14591048612730       -1.62096900872531
H           -3.46438237603400        3.31623561275261       -2.82035458163444
H           -6.65665285406846        5.28419125860281       -2.96474423842571
H           -5.97682891302970        5.03524111909428       -1.35301856448020
H           -4.92592480661562        5.02089162555625       -2.76821403046043
H           -5.03098226618409        3.06491932613063       -4.40627706693499
H           -6.14285408187309        1.73265534937100       -4.10814514584167
H           -6.76415863997074        3.30949329163537       -4.60898479493837
H           -8.27509948724451        3.47686235201455       -2.71371082371901
H           -7.80405683220408        1.86599156091564       -2.18528518078434
H           -7.73895841369837        3.23333536845780       -1.05554661304703
H           -6.47467531789900        1.48356436131947       -0.37714235765424
H           -6.51969357681074       -0.24937792334292        1.64521714336253
H           -7.80373551892731       -0.55800585200185        3.50233735544385
H           -7.93227513889416       -1.87871633354923        2.32471415139281
H           -8.42063346988762       -2.13038197849614        3.99584204825829
H           -6.81515900173665       -2.22242063855213        5.82104207943535
H           -6.07283149071847       -0.68805150859600        5.35885851681673
H           -5.07799625769576       -2.13138845155302        5.54494428047308
H           -6.33505081351888       -3.85882757963320        2.46168746614774
H           -5.26523578197022       -4.02544368130490        3.85077809614084
H           -7.01062960964439       -4.10906508026576        4.07558252254546
H           -3.62311108652077       -2.48729009314962        3.87838374146406
H           -1.80718097255828       -1.53342942094284        2.57121679598572
H           -2.93748059590802       -0.52326794247354       -4.00708425974375
H           -5.55400082061152       -2.99728996984570       -2.01911808898109
H           -1.95829378708374       -2.26367285038243       -0.20316010382187
H            1.55948424318091       -0.31282565446939       -1.84870376955975

          :  Hamiltonian                  GFN2-xTB          :
         :: gradient norm              0.000036914753 Eh/a0 ::
         :: HOMO-LUMO gap              0.850408715893 eV    ::
         :: SCC energy              -155.189575875184 Eh    ::
         :: -> dispersion             -0.147436300634 Eh    ::
         :: -> Gsolv                  -0.071796026363 Eh    ::
         :: repulsion energy           2.553894675927 Eh    ::

    * Orbital Energies and Occupations

         #    Occupation            Energy/Eh            Energy/eV
      -------------------------------------------------------------
         1        2.0000           -0.6900785             -18.7780
       ...           ...                  ...                  ...
       131        2.0000           -0.4164055             -11.3310
       132        2.0000           -0.4153087             -11.3011
       133        2.0000           -0.4146739             -11.2839
       134        2.0000           -0.4124384             -11.2230
       135        2.0000           -0.4081945             -11.1075
       136        2.0000           -0.4075584             -11.0902
       137        2.0000           -0.3864699             -10.5164
       138        2.0000           -0.3861779             -10.5084
       139        2.0000           -0.3769802             -10.2582
       140        1.9911           -0.3718683             -10.1191
       141        1.7278           -0.3683282             -10.0227
       142        1.2811           -0.3665018              -9.9730
       143        1.0000           -0.2903857              -7.9018 (HOMO)
       144                         -0.2591327              -7.0514 (LUMO)
       145                         -0.2573743              -7.0035
       146                         -0.2527028              -6.8764
       147                         -0.2485521              -6.7634
       148                         -0.2438849              -6.6364
       149                         -0.2314927              -6.2992
       150                         -0.2310768              -6.2879
       151                         -0.2079624              -5.6589
       152                         -0.2004007              -5.4532
       153                         -0.1961087              -5.3364
       154                         -0.1960685              -5.3353
       ...                                ...                  ...
       278                          0.7301924              19.8695
      -------------------------------------------------------------
                  HL-Gap            0.0312530 Eh            0.8504 eV

     #   Z          covCN         q      C6AA      α(0)
     1   6 C        3.761    -0.107    22.588     6.775
     2   6 C        3.903     0.027    20.066     6.367
     3   6 C        3.761    -0.110    22.657     6.786
     4   6 C        3.761    -0.106    22.575     6.773
     5   6 C        2.973     0.011    27.769     8.644
     6   6 C        2.929    -0.036    28.897     8.816
     7   6 C        2.908    -0.044    29.089     8.844
     8   6 C        3.074     0.044    26.937     8.510
     9   6 C        3.064    -0.013    28.268     8.718
    10   6 C        2.917    -0.039    28.972     8.826
    11   6 C        3.063    -0.013    28.263     8.718
    12   6 C        2.917    -0.039    28.960     8.825
    13   6 C        2.973     0.011    27.766     8.643
    14   6 C        3.903     0.027    20.066     6.367
    15   6 C        3.761    -0.110    22.651     6.785
    16   6 C        3.761    -0.107    22.586     6.775
    17   6 C        3.761    -0.107    22.596     6.776
    18   6 C        2.929    -0.036    28.905     8.817
    19   6 C        2.908    -0.045    29.125     8.849
    20   6 C        3.075     0.044    26.944     8.511
    21   7 N        2.802    -0.014    21.514     6.889
    22   6 C        2.909     0.061    26.641     8.464
    23   6 C        2.919    -0.053    29.312     8.878
    24   6 C        2.920    -0.042    29.040     8.837
    25   6 C        2.911     0.048    26.920     8.508
    26   7 N        2.802    -0.027    21.760     6.928
    27   6 C        3.077     0.047    26.865     8.498
    28   6 C        2.908    -0.042    29.044     8.837
    29   6 C        2.930    -0.037    28.911     8.818
    30   6 C        2.973     0.011    27.772     8.644
    31   6 C        3.903     0.027    20.065     6.367
    32   6 C        3.761    -0.107    22.597     6.777
    33   6 C        3.761    -0.105    22.561     6.771
    34   6 C        3.761    -0.111    22.663     6.786
    35   6 C        2.917    -0.041    29.015     8.833
    36   6 C        3.065    -0.016    28.345     8.730
    37   6 C        3.064    -0.013    28.275     8.720
    38   6 C        2.917    -0.038    28.940     8.822
    39   6 C        2.973     0.013    27.712     8.635
    40   6 C        3.903     0.027    20.061     6.367
    41   6 C        3.761    -0.110    22.659     6.786
    42   6 C        3.761    -0.108    22.614     6.779
    43   6 C        3.761    -0.108    22.603     6.777
    44   6 C        2.930    -0.035    28.874     8.812
    45   6 C        2.908    -0.045    29.124     8.849
    46   6 C        3.077     0.047    26.866     8.498
    47   6 C        2.968    -0.023    28.576     8.768
    48   6 C        2.829     0.168    24.382     8.091
    49   8 O        0.857    -0.550    24.914     6.692
    50   6 C        2.958    -0.040    29.000     8.833
    51   6 C        2.924     0.079    26.243     8.401
    52   7 N        1.833    -0.233    26.951     7.693
    53   6 C        2.904     0.121    25.341     8.254
    54   7 N        1.832    -0.242    27.161     7.723
    55   6 C        2.923     0.068    26.472     8.437
    56   6 C        2.927    -0.039    28.971     8.827
    57   1 H        0.925     0.043     2.413     2.429
    58   1 H        0.925     0.037     2.484     2.465
    59   1 H        0.925     0.036     2.502     2.473
    60   1 H        0.925     0.041     2.437     2.441
    61   1 H        0.925     0.039     2.459     2.452
    62   1 H        0.925     0.040     2.447     2.446
    63   1 H        0.925     0.034     2.524     2.484
    64   1 H        0.925     0.043     2.415     2.430
    65   1 H        0.925     0.036     2.496     2.471
    66   1 H        0.926     0.040     2.446     2.446
    67   1 H        0.926     0.031     2.569     2.506
    68   1 H        0.926     0.055     2.256     2.349
    69   1 H        0.926     0.054     2.271     2.357
    70   1 H        0.925     0.038     2.469     2.457
    71   1 H        0.925     0.040     2.444     2.445
    72   1 H        0.925     0.039     2.459     2.452
    73   1 H        0.925     0.038     2.471     2.458
    74   1 H        0.925     0.034     2.524     2.484
    75   1 H        0.925     0.042     2.418     2.432
    76   1 H        0.925     0.042     2.420     2.433
    77   1 H        0.925     0.039     2.463     2.454
    78   1 H        0.925     0.036     2.505     2.475
    79   1 H        0.926     0.044     2.398     2.422
    80   1 H        0.926     0.039     2.461     2.453
    81   1 H        0.926     0.057     2.234     2.337
    82   1 H        0.926     0.056     2.247     2.344
    83   1 H        0.926     0.029     2.598     2.520
    84   1 H        0.926     0.040     2.442     2.444
    85   1 H        0.925     0.045     2.382     2.413
    86   1 H        0.925     0.037     2.484     2.465
    87   1 H        0.925     0.038     2.479     2.462
    88   1 H        0.925     0.035     2.511     2.478
    89   1 H        0.925     0.033     2.542     2.493
    90   1 H        0.925     0.045     2.383     2.414
    91   1 H        0.925     0.043     2.406     2.425
    92   1 H        0.925     0.038     2.469     2.457
    93   1 H        0.925     0.041     2.434     2.440
    94   1 H        0.926     0.055     2.253     2.347
    95   1 H        0.926     0.054     2.271     2.357
    96   1 H        0.925     0.039     2.459     2.452
    97   1 H        0.925     0.038     2.476     2.461
    98   1 H        0.925     0.042     2.421     2.433
    99   1 H        0.925     0.044     2.395     2.420
   100   1 H        0.925     0.036     2.496     2.471
   101   1 H        0.925     0.040     2.446     2.446
   102   1 H        0.925     0.035     2.512     2.479
   103   1 H        0.925     0.040     2.453     2.449
   104   1 H        0.925     0.044     2.395     2.420
   105   1 H        0.926     0.048     2.344     2.394
   106   1 H        0.926     0.039     2.465     2.455
   107   1 H        0.925     0.039     2.458     2.452
   108   1 H        0.926     0.036     2.498     2.471
   109   1 H        0.925     0.027     2.632     2.537
   110   1 H        0.926     0.050     2.324     2.384

molecular dipole:
                 x           y           z       tot (Debye)
 q only:        1.893       0.769       3.783
   full:        2.118       0.824       3.615      10.853

 projected vibrational frequencies (cm⁻¹)
eigval :       -0.00    -0.00    -0.00     0.00     0.00     0.00
eigval :       11.39    12.80    15.54    23.79    29.91    31.75
eigval :       34.40    34.93    38.11    42.05    44.46    53.56
eigval :       60.65    66.28    74.18    80.28    89.42    93.63
eigval :       99.97   112.32   117.00   131.51   135.03   141.35
eigval :      161.92   163.17   166.59   173.38   181.68   186.73
eigval :      191.53   199.46   202.43   204.08   210.25   219.92
eigval :      221.50   224.52   227.48   228.98   231.13   246.46
eigval :      257.60   259.07   267.97   272.08   280.31   292.86
eigval :      300.04   320.16   320.80   322.80   325.21   326.06
eigval :      328.99   333.71   338.46   340.71   345.16   355.66
eigval :      356.19   357.15   370.15   378.45   386.57   395.84
eigval :      399.99   404.28   405.46   408.50   415.76   427.72
eigval :      436.09   440.61   442.32   442.81   444.62   460.65
eigval :      464.87   465.43   472.97   479.31   486.41   498.34
eigval :      516.12   522.03   558.87   574.08   578.46   579.74
eigval :      586.55   588.67   591.85   602.83   609.54   614.90
eigval :      625.84   642.95   643.72   643.83   654.72   671.28
eigval :      683.74   690.53   693.02   706.38   706.77   710.12
eigval :      717.04   718.47   720.99   762.57   777.74   812.45
eigval :      822.89   823.74   824.43   829.24   831.09   831.82
eigval :      838.74   864.65   865.95   867.25   869.00   871.09
eigval :      872.14   885.10   887.78   891.20   901.32   914.37
eigval :      917.95   918.10   918.53   920.21   924.29   925.55
eigval :      931.62   940.35   959.40   959.61   959.94   960.03
eigval :      962.10   962.28   962.78   963.14   963.53   964.55
eigval :      964.71   965.68   966.21  1010.67  1029.87  1030.31
eigval :     1033.30  1034.09  1034.30  1034.45  1036.12  1036.60
eigval :     1040.28  1040.71  1089.07  1107.03  1111.01  1122.53
eigval :     1126.32  1127.49  1135.44  1146.66  1153.68  1157.14
eigval :     1158.23  1168.73  1196.18  1209.36  1219.32  1222.62
eigval :     1222.67  1222.93  1222.96  1225.57  1226.77  1226.93
eigval :     1227.57  1228.08  1228.40  1229.27  1231.17  1236.18
eigval :     1237.93  1250.45  1252.47  1268.01  1273.70  1276.00
eigval :     1286.67  1287.00  1289.45  1295.29  1299.85  1326.80
eigval :     1331.30  1334.21  1338.72  1348.18  1350.81  1356.76
eigval :     1374.45  1383.75  1399.16  1399.93  1400.98  1402.07
eigval :     1402.28  1402.97  1403.58  1403.63  1407.56  1409.56
eigval :     1426.22  1426.55  1426.92  1427.56  1428.69  1432.49
eigval :     1442.23  1447.06  1456.24  1457.80  1458.61  1472.80
eigval :     1473.34  1484.29  1486.76  1486.82  1487.33  1488.22
eigval :     1490.13  1490.32  1490.69  1491.16  1496.63  1497.08
eigval :     1497.59  1497.67  1499.95  1500.02  1500.98  1501.80
eigval :     1510.37  1510.64  1511.01  1511.95  1515.07  1515.65
eigval :     1515.86  1516.75  1517.28  1554.88  1557.78  1563.14
eigval :     1569.72  1572.01  1573.29  1573.69  1592.37  1602.59
eigval :     3021.55  3022.19  3022.94  3023.13  3023.34  3023.67
eigval :     3023.78  3024.15  3024.95  3026.20  3026.49  3026.65
eigval :     3027.40  3027.41  3027.93  3028.22  3029.04  3030.02
eigval :     3030.40  3030.47  3031.16  3033.24  3033.41  3033.72
eigval :     3033.98  3037.95  3038.52  3038.64  3038.65  3040.56
eigval :     3045.07  3045.37  3046.69  3047.66  3048.52  3048.99
eigval :     3049.82  3050.72  3082.96  3083.94  3087.56  3087.90
eigval :     3088.97  3092.07  3094.32  3098.22  3099.80  3100.41
eigval :     3101.18  3109.69  3124.48  3124.49  3127.10  3127.24

   temp. (K)  partition function   enthalpy   heat capacity  entropy
                                   cal/mol     cal/K/mol   cal/K/mol   J/K/mol
 298.15  VIB  0.145E+25            32150.281    197.555    198.485
         ROT  0.155E+09              888.752      2.981     40.461
         INT  0.225E+33            33039.033    200.536    238.946
         TR   0.194E+29             1481.254      4.968     45.659
         TOT                       34520.2871   205.5040   284.6054  1190.7889

       T/K    H(0)-H(T)+PV         H(T)/Eh          T*S/Eh         G(T)/Eh
   ------------------------------------------------------------------------
    298.15    0.550116E-01    0.960643E+00    0.135225E+00    0.825418E+00
   ------------------------------------------------------------------------

         :::::::::::::::::::::::::::::::::::::::::::::::::::::
         ::                  THERMODYNAMIC                  ::
         :::::::::::::::::::::::::::::::::::::::::::::::::::::
         :: total free energy        -151.810263182114 Eh   ::
         ::.................................................::
         :: total energy             -152.635681193728 Eh   ::
         :: zero point energy           0.905631626961 Eh   ::
         :: G(RRHO) w/o ZPVE           -0.080213615347 Eh   ::
         :: G(RRHO) contrib.            0.825418011614 Eh   ::
         :::::::::::::::::::::::::::::::::::::::::::::::::::::

           -------------------------------------------------
          | TOTAL ENERGY             -152.635681193728 Eh   |
          | TOTAL ENTHALPY           -151.675037987675 Eh   |
          | TOTAL FREE ENERGY        -151.810263182114 Eh   |
          | GRADIENT NORM               0.000037420922 Eh/α |
          | HOMO-LUMO GAP               0.850436435084 eV   |
           -------------------------------------------------

 * finished run on 2025/09/04 at 04:30:01.559
