   * xtb version 6.7.1 (edcfbbe) compiled by 'albert@albert-system' on 2024-07-22

   ID    Z sym.   atoms
    1    6 C      1-20, 22-25, 27-48, 50, 51, 53, 55, 56
    2    7 N      21, 26, 52, 54
    3    8 O      49
    4    1 H      57-110

          program call               : xtb data2507/toluene/25tCzBPym/25tCzBPym_toluene_T1_crest.xyz --gfn 2 --uhf 2 --gbsa toluene --ohess vtight --parallel 40 --molden --ceasefiles --namespace data2507/toluene/25tCzBPym/25tCzBPym_toluene_T1_finalOpt
      * Solvation model:               GBSA
        Solvent                        toluene
        Solvent mass                       9.2140E+01 g/mol
          :  Hamiltonian                  GFN2-xTB          :
 * total energy  :  -152.6363657 Eh     change       -0.2900606E-08 Eh
 * total energy  :  -152.6366259 Eh     change       -0.2602050E-03 Eh
 * total energy  :  -152.6367418 Eh     change       -0.1158905E-03 Eh
 * total energy  :  -152.6367711 Eh     change       -0.2937783E-04 Eh
 * total energy  :  -152.6368170 Eh     change       -0.4582168E-04 Eh
 * total energy  :  -152.6368656 Eh     change       -0.4861406E-04 Eh
 * total energy  :  -152.6369308 Eh     change       -0.6527429E-04 Eh
 * total energy  :  -152.6370166 Eh     change       -0.8579388E-04 Eh
 * total energy  :  -152.6370997 Eh     change       -0.8306499E-04 Eh
 * total energy  :  -152.6371684 Eh     change       -0.6873252E-04 Eh
 * total energy  :  -152.6376805 Eh     change       -0.6444390E-06 Eh
 * total energy  :  -152.6376811 Eh     change       -0.5806592E-06 Eh
 * total energy  :  -152.6376815 Eh     change       -0.4736970E-06 Eh
 * total energy  :  -152.6376820 Eh     change       -0.4412551E-06 Eh
 * total energy  :  -152.6376825 Eh     change       -0.4830381E-06 Eh
 * total energy  :  -152.6376830 Eh     change       -0.5230099E-06 Eh
 * total energy  :  -152.6376838 Eh     change       -0.7740404E-06 Eh
 * total energy  :  -152.6376845 Eh     change       -0.7819315E-06 Eh
 * total energy  :  -152.6376846 Eh     change       -0.7384955E-08 Eh
   *** GEOMETRY OPTIMIZATION CONVERGED AFTER 44 ITERATIONS ***

 final structure:
================
110
 xtb: 6.7.1 (edcfbbe)
C            7.16950471439129       -4.90527059761709       -1.28776884057697
C            7.34135295622630       -4.05821171230674       -0.01750116752052
C            7.24785291699969       -4.95804204099520        1.22447896942445
C            8.73887650795324       -3.43201261089993       -0.04831836009439
C            6.23451496548425       -3.01725611704048        0.04392348598650
C            4.90068003667198       -3.44437981199412        0.06936059164776
C            3.83320811397776       -2.57051423311986        0.13580132671111
C            4.10671792459976       -1.21109375499817        0.19419865696707
C            5.44068974434876       -0.75369088036446        0.13618878296171
C            6.49350945319305       -1.65094126333074        0.06670321205018
C            5.37842491496870        0.68741720206070        0.14629673772622
C            6.35149670701834        1.67250285884334        0.12027661337956
C            5.97755215939115        3.01154115985736        0.15768844989185
C            6.99110758962626        4.14428547698459        0.11511716708665
C            6.86326124118621        4.98344348511479        1.39565250870161
C            8.43471893149133        3.64141701906137        0.01641745300831
C            6.70569037885667        5.02223349253160       -1.11313206158702
C            4.61423477704732        3.32204949887584        0.24586911971443
C            3.62439730709896        2.35949816074381        0.27673961152724
C            4.00973713243135        1.02803468911059        0.20274188154467
N            3.24941019376694       -0.12654842883542        0.23909611527600
C            1.86108793995365       -0.18567451834628        0.28626388943073
C            1.21745061883353       -1.07721955053356        1.15719445630853
C           -0.16063009487511       -1.10696529831820        1.20308527460199
C           -0.93295756608291       -0.27972183301562        0.39225618885292
N           -2.31775068166828       -0.28461887244661        0.54949055210351
C           -3.12066519544506        0.82787153258170        0.71089484093532
C           -2.77433916976079        2.15984113425462        0.88250277640655
C           -3.79565220585965        3.07741126208772        1.02865363562415
C           -5.14913307794454        2.71660168674621        1.02710464483580
C           -6.20190302417115        3.80476149639342        1.16669888095865
C           -6.05168081062775        4.78979093468928       -0.00281879874374
C           -7.62982483536239        3.25103247948950        1.14270252804025
C           -5.99576044888190        4.54048969252776        2.49963168401532
C           -5.47816102363531        1.37083875014689        0.90163473935901
C           -4.47342010668619        0.43066733751057        0.74882218038404
C           -4.48110458167266       -1.00449723729244        0.60092485436648
C           -5.49727443088995       -1.94044313955926        0.51929657759858
C           -5.18505881559544       -3.28307366878836        0.32843774354892
C           -6.25099239203692       -4.36010119836206        0.20797839948399
C           -7.67095139415246       -3.80251290074990        0.34428831373337
C           -6.04080211491238       -5.40868299957190        1.31107166311529
C           -6.12745189281170       -5.02277464289037       -1.17297731399589
C           -3.83712202410606       -3.64804914414324        0.22160492775981
C           -2.80502782397954       -2.73430981898446        0.29434591129186
C           -3.13105323900777       -1.39984128907826        0.49178510422249
C           -0.29360399920537        0.57989680084953       -0.53860757151811
C           -1.02773590934329        1.45592092993769       -1.46927621654343
O           -0.57423589506458        2.61294865973702       -1.70624251616980
C           -2.22516481323656        0.96274697085161       -2.08075020670187
C           -3.15084701364158        1.84519386021217       -2.69485216769327
N           -4.26108984164841        1.43592009382328       -3.24420799718033
C           -4.51122186033115        0.12764009890588       -3.26489541745579
N           -3.66549091016441       -0.80065529456506       -2.83014763175939
C           -2.55424098870600       -0.40383620301944       -2.26348162148903
C            1.09837608183750        0.62947165204036       -0.53943958892426
H            6.22279029871351       -5.43802385307949       -1.28785519079138
H            7.97090154516919       -5.63772051551959       -1.35724986217543
H            7.20434437264064       -4.27135207464692       -2.17178594885289
H            7.34667899081694       -4.36160482476268        2.12935665695435
H            6.29829320313958       -5.48428085216138        1.26455618153310
H            8.04599962590800       -5.69706332820098        1.20954061687793
H            8.92325287676973       -2.83983421471766        0.84509049898009
H            9.48692470298947       -4.22127126996429       -0.08678919413810
H            8.86860760244275       -2.80570772503845       -0.92799917368807
H            4.68252180004599       -4.50005555244044        0.02942712611409
H            2.82038603225540       -2.94193511171754        0.12519903885255
H            7.49895606642467       -1.26853157909078        0.02524810310452
H            7.38636598054370        1.37963275035627        0.07414679551487
H            7.03700452755709        4.36214226389465        2.27203950835981
H            7.59785559288173        5.78579928165928        1.38957985112083
H            5.87604602979681        5.42838486411932        1.48332616251583
H            8.58510102385003        3.05772396613822       -0.88889809352499
H            8.70022201405899        3.03873187431809        0.88188369753445
H            9.11100052790887        4.49308863522137       -0.01832299668190
H            7.43228051622649        5.82980292838385       -1.17137521113558
H            6.77346523896563        4.43003959772671       -2.02379386734872
H            5.71301203125853        5.46156697165879       -1.06751158347700
H            4.30754390674995        4.35526639230462        0.29470531630728
H            2.58678147184048        2.64510127306777        0.35836436935115
H            1.79836017572908       -1.68265898232650        1.83383645125489
H           -0.66020531430715       -1.73313551344575        1.92724530671513
H           -1.74341528617140        2.47897783315998        0.89189790235047
H           -3.52242302044076        4.11452914972682        1.14498153960696
H           -6.81397067060275        5.56329022158733        0.06047431366266
H           -5.07721654481811        5.27048828420418        0.00358151772893
H           -6.16473459637711        4.26756005145843       -0.95124700672508
H           -7.83377294390259        2.73885130574579        0.20519183254092
H           -7.79909171881933        2.56742169822625        1.97140892918540
H           -8.33606148926080        4.07334268833280        1.23599885748351
H           -6.75716751087396        5.30758657792352        2.62192261095415
H           -6.07110065410046        3.84132992601525        3.33002424268747
H           -5.02130505202573        5.01862169552460        2.54328216404664
H           -6.50227236849442        1.03925329798542        0.91659353438272
H           -6.51769728712007       -1.60510621860447        0.59139289767837
H           -7.81615504513154       -3.33133386563720        1.31372804909980
H           -7.88477788110044       -3.08156287731719       -0.44144335901003
H           -8.38800201831963       -4.61612212015491        0.25608508232890
H           -6.80502507274217       -6.17950877195132        1.24029602474704
H           -6.11039928121673       -4.94226245096511        2.29174446920719
H           -5.06856185083091       -5.88576439893835        1.22762931507889
H           -6.21907115557413       -4.27434622380174       -1.95775322765470
H           -5.16983636693204       -5.52162236501342       -1.29126543307462
H           -6.91530389544901       -5.76147348767118       -1.30344760097544
H           -3.58052277049437       -4.68359197238640        0.06343565333622
H           -1.77987751247377       -3.05258501533763        0.18189835529515
H           -2.93953297924754        2.90736737327767       -2.70812059576631
H           -5.44445090952028       -0.20005026818104       -3.69471407932610
H           -1.86043762912762       -1.18692832609869       -1.97845774459319
H            1.57697831042914        1.27996136389658       -1.25622635187721

          :  Hamiltonian                  GFN2-xTB          :
         :: gradient norm              0.000064436268 Eh/a0 ::
         :: HOMO-LUMO gap              0.879657728822 eV    ::
         :: SCC energy              -155.192571036033 Eh    ::
         :: -> dispersion             -0.147800598425 Eh    ::
         :: -> Gsolv                  -0.071620939435 Eh    ::
         :: repulsion energy           2.554886478647 Eh    ::

    * Orbital Energies and Occupations

         #    Occupation            Energy/Eh            Energy/eV
      -------------------------------------------------------------
         1        2.0000           -0.6903510             -18.7854
       ...           ...                  ...                  ...
       131        2.0000           -0.4163273             -11.3288
       132        2.0000           -0.4151689             -11.2973
       133        2.0000           -0.4144941             -11.2790
       134        2.0000           -0.4122694             -11.2184
       135        2.0000           -0.4081170             -11.1054
       136        2.0000           -0.4074255             -11.0866
       137        2.0000           -0.3864624             -10.5162
       138        2.0000           -0.3860585             -10.5052
       139        2.0000           -0.3762648             -10.2387
       140        1.9998           -0.3745343             -10.1916
       141        1.9298           -0.3687776             -10.0350
       142        1.0704           -0.3638714              -9.9014
       143        1.0000           -0.2905796              -7.9071 (HOMO)
       144                         -0.2582527              -7.0274 (LUMO)
       145                         -0.2581282              -7.0240
       146                         -0.2524611              -6.8698
       147                         -0.2485632              -6.7637
       148                         -0.2446093              -6.6562
       149                         -0.2313681              -6.2958
       150                         -0.2307800              -6.2798
       151                         -0.2082136              -5.6658
       152                         -0.2005222              -5.4565
       153                         -0.1960434              -5.3346
       154                         -0.1959578              -5.3323
       ...                                ...                  ...
       278                          0.7305061              19.8781
      -------------------------------------------------------------
                  HL-Gap            0.0323269 Eh            0.8797 eV

     #   Z          covCN         q      C6AA      α(0)
     1   6 C        3.761    -0.107    22.589     6.775
     2   6 C        3.903     0.027    20.067     6.368
     3   6 C        3.761    -0.107    22.594     6.776
     4   6 C        3.761    -0.110    22.649     6.784
     5   6 C        2.973     0.011    27.770     8.644
     6   6 C        2.929    -0.037    28.908     8.818
     7   6 C        2.908    -0.046    29.136     8.851
     8   6 C        3.073     0.043    26.973     8.515
     9   6 C        3.063    -0.012    28.253     8.716
    10   6 C        2.917    -0.039    28.963     8.825
    11   6 C        3.063    -0.013    28.268     8.719
    12   6 C        2.917    -0.039    28.978     8.827
    13   6 C        2.973     0.011    27.770     8.644
    14   6 C        3.903     0.027    20.067     6.368
    15   6 C        3.761    -0.107    22.585     6.775
    16   6 C        3.761    -0.110    22.655     6.785
    17   6 C        3.761    -0.106    22.574     6.773
    18   6 C        2.930    -0.036    28.887     8.814
    19   6 C        2.908    -0.043    29.066     8.840
    20   6 C        3.072     0.043    26.951     8.512
    21   7 N        2.802    -0.012    21.485     6.884
    22   6 C        2.909     0.061    26.625     8.461
    23   6 C        2.918    -0.053    29.321     8.880
    24   6 C        2.920    -0.041    29.024     8.835
    25   6 C        2.911     0.049    26.904     8.505
    26   7 N        2.802    -0.026    21.743     6.926
    27   6 C        3.077     0.046    26.879     8.500
    28   6 C        2.908    -0.042    29.043     8.837
    29   6 C        2.930    -0.037    28.911     8.818
    30   6 C        2.973     0.010    27.783     8.646
    31   6 C        3.903     0.027    20.067     6.368
    32   6 C        3.761    -0.105    22.559     6.771
    33   6 C        3.761    -0.111    22.660     6.786
    34   6 C        3.761    -0.107    22.597     6.776
    35   6 C        2.917    -0.041    29.021     8.834
    36   6 C        3.065    -0.016    28.343     8.730
    37   6 C        3.064    -0.013    28.270     8.719
    38   6 C        2.917    -0.038    28.945     8.822
    39   6 C        2.973     0.013    27.715     8.635
    40   6 C        3.903     0.027    20.062     6.367
    41   6 C        3.761    -0.110    22.656     6.785
    42   6 C        3.761    -0.108    22.615     6.779
    43   6 C        3.762    -0.108    22.602     6.777
    44   6 C        2.930    -0.035    28.874     8.812
    45   6 C        2.908    -0.045    29.122     8.849
    46   6 C        3.077     0.047    26.875     8.499
    47   6 C        2.968    -0.022    28.543     8.763
    48   6 C        2.829     0.168    24.379     8.091
    49   8 O        0.857    -0.546    24.833     6.681
    50   6 C        2.958    -0.041    29.012     8.835
    51   6 C        2.925     0.079    26.237     8.400
    52   7 N        1.832    -0.238    27.068     7.710
    53   6 C        2.906     0.123    25.301     8.248
    54   7 N        1.832    -0.246    27.274     7.739
    55   6 C        2.924     0.069    26.451     8.434
    56   6 C        2.927    -0.039    28.973     8.827
    57   1 H        0.925     0.039     2.468     2.457
    58   1 H        0.925     0.042     2.421     2.433
    59   1 H        0.925     0.034     2.525     2.485
    60   1 H        0.925     0.036     2.508     2.477
    61   1 H        0.925     0.039     2.462     2.454
    62   1 H        0.925     0.042     2.421     2.433
    63   1 H        0.925     0.039     2.461     2.453
    64   1 H        0.925     0.040     2.446     2.446
    65   1 H        0.925     0.038     2.471     2.458
    66   1 H        0.926     0.044     2.394     2.420
    67   1 H        0.926     0.040     2.449     2.447
    68   1 H        0.926     0.054     2.274     2.358
    69   1 H        0.926     0.055     2.259     2.350
    70   1 H        0.925     0.036     2.503     2.474
    71   1 H        0.925     0.043     2.415     2.430
    72   1 H        0.925     0.037     2.485     2.465
    73   1 H        0.925     0.039     2.460     2.453
    74   1 H        0.925     0.040     2.448     2.447
    75   1 H        0.925     0.041     2.438     2.442
    76   1 H        0.925     0.042     2.418     2.431
    77   1 H        0.925     0.034     2.527     2.486
    78   1 H        0.925     0.037     2.495     2.470
    79   1 H        0.926     0.040     2.446     2.446
    80   1 H        0.926     0.035     2.517     2.481
    81   1 H        0.926     0.060     2.202     2.320
    82   1 H        0.926     0.058     2.223     2.331
    83   1 H        0.926     0.029     2.605     2.524
    84   1 H        0.926     0.040     2.444     2.445
    85   1 H        0.925     0.045     2.386     2.415
    86   1 H        0.925     0.035     2.513     2.479
    87   1 H        0.925     0.033     2.544     2.494
    88   1 H        0.925     0.038     2.471     2.458
    89   1 H        0.925     0.041     2.436     2.441
    90   1 H        0.925     0.043     2.408     2.426
    91   1 H        0.925     0.045     2.384     2.415
    92   1 H        0.925     0.037     2.487     2.466
    93   1 H        0.925     0.038     2.480     2.463
    94   1 H        0.926     0.055     2.259     2.351
    95   1 H        0.926     0.054     2.276     2.359
    96   1 H        0.925     0.039     2.460     2.453
    97   1 H        0.925     0.038     2.480     2.462
    98   1 H        0.925     0.042     2.422     2.434
    99   1 H        0.925     0.044     2.396     2.421
   100   1 H        0.925     0.036     2.496     2.471
   101   1 H        0.925     0.040     2.446     2.446
   102   1 H        0.925     0.035     2.515     2.480
   103   1 H        0.925     0.040     2.451     2.448
   104   1 H        0.925     0.044     2.396     2.421
   105   1 H        0.926     0.048     2.342     2.393
   106   1 H        0.926     0.039     2.464     2.455
   107   1 H        0.925     0.037     2.487     2.466
   108   1 H        0.926     0.035     2.518     2.481
   109   1 H        0.925     0.025     2.654     2.548
   110   1 H        0.926     0.051     2.310     2.377

molecular dipole:
                 x           y           z       tot (Debye)
 q only:        2.007      -2.680       2.776
   full:        2.233      -2.485       2.747      10.994

 projected vibrational frequencies (cm⁻¹)
eigval :       -0.00    -0.00    -0.00     0.00     0.00     0.00
eigval :        9.50    10.71    13.76    23.93    27.95    28.41
eigval :       31.03    33.16    33.33    41.82    46.16    53.97
eigval :       60.41    63.26    75.77    79.20    81.70    92.95
eigval :       96.66   110.90   114.17   133.83   136.56   143.76
eigval :      159.53   159.90   162.80   172.66   176.69   187.66
eigval :      192.01   199.73   201.98   204.43   208.95   219.46
eigval :      220.50   224.09   224.96   227.98   230.43   243.92
eigval :      255.92   259.29   268.23   273.65   280.35   290.29
eigval :      308.48   317.42   318.97   322.48   324.20   325.10
eigval :      327.06   330.12   337.97   342.22   345.78   356.24
eigval :      357.12   357.96   370.27   380.84   386.30   397.26
eigval :      400.94   404.19   405.05   405.37   422.11   427.49
eigval :      436.18   440.42   442.15   442.96   445.22   460.20
eigval :      464.60   465.32   467.06   479.64   496.61   503.66
eigval :      515.86   522.50   550.59   573.75   577.66   583.88
eigval :      588.51   589.75   594.78   600.66   607.75   623.12
eigval :      627.55   637.90   642.99   643.72   653.46   672.55
eigval :      683.11   690.42   693.04   706.50   708.26   710.65
eigval :      715.83   720.27   721.73   768.39   778.27   812.17
eigval :      821.16   822.87   825.67   829.07   831.12   832.34
eigval :      839.82   865.64   865.80   866.77   870.34   871.14
eigval :      872.08   884.06   887.62   891.42   900.45   913.28
eigval :      915.47   918.20   919.90   922.88   924.50   925.23
eigval :      931.94   940.90   958.45   959.08   959.68   959.86
eigval :      961.53   961.55   962.56   962.95   964.02   964.09
eigval :      964.19   965.30   966.42  1011.50  1029.62  1030.11
eigval :     1033.79  1034.00  1034.14  1034.16  1035.24  1036.00
eigval :     1039.97  1040.65  1089.32  1107.87  1111.87  1121.39
eigval :     1126.70  1127.03  1137.11  1146.37  1156.13  1159.01
eigval :     1160.14  1168.67  1196.81  1209.52  1219.23  1222.36
eigval :     1222.72  1223.31  1223.43  1225.94  1226.86  1227.36
eigval :     1227.94  1228.39  1228.50  1231.59  1232.39  1236.88
eigval :     1238.05  1250.62  1253.24  1274.42  1275.82  1277.40
eigval :     1287.70  1288.07  1291.46  1295.66  1300.60  1324.33
eigval :     1333.14  1335.35  1338.94  1348.35  1350.89  1357.47
eigval :     1377.29  1389.22  1398.77  1400.01  1400.93  1401.53
eigval :     1401.87  1403.17  1403.42  1403.79  1407.40  1409.61
eigval :     1425.68  1426.74  1427.03  1427.26  1427.89  1432.30
eigval :     1446.18  1448.72  1459.33  1460.11  1465.25  1473.04
eigval :     1473.09  1481.75  1486.34  1486.63  1487.51  1487.87
eigval :     1489.53  1489.66  1490.66  1491.38  1496.48  1496.68
eigval :     1497.01  1497.92  1499.63  1500.32  1500.99  1501.43
eigval :     1509.81  1509.94  1510.59  1510.97  1512.89  1515.32
eigval :     1515.66  1516.27  1516.53  1553.78  1560.10  1562.66
eigval :     1571.18  1573.80  1576.00  1576.09  1593.63  1602.82
eigval :     3016.26  3022.02  3022.52  3022.72  3023.14  3023.28
eigval :     3023.80  3024.23  3024.53  3026.17  3026.30  3026.64
eigval :     3026.69  3026.99  3027.32  3028.59  3029.17  3030.11
eigval :     3030.24  3030.70  3030.97  3032.73  3033.18  3033.45
eigval :     3033.57  3037.71  3038.15  3038.24  3038.32  3041.00
eigval :     3045.06  3045.14  3046.76  3048.19  3048.62  3049.93
eigval :     3049.98  3051.89  3085.55  3086.79  3087.32  3088.01
eigval :     3088.39  3089.80  3094.66  3099.33  3100.07  3100.94
eigval :     3101.93  3109.47  3123.63  3125.19  3126.63  3128.31

   temp. (K)  partition function   enthalpy   heat capacity  entropy
                                   cal/mol     cal/K/mol   cal/K/mol   J/K/mol
 298.15  VIB  0.421E+25            32205.534    197.234    199.482
         ROT  0.154E+09              888.752      2.981     40.444
         INT  0.648E+33            33094.287    200.215    239.926
         TR   0.194E+29             1481.254      4.968     45.659
         TOT                       34575.5407   205.1828   285.5854  1194.8892

       T/K    H(0)-H(T)+PV         H(T)/Eh          T*S/Eh         G(T)/Eh
   ------------------------------------------------------------------------
    298.15    0.550996E-01    0.960770E+00    0.135691E+00    0.825080E+00
   ------------------------------------------------------------------------

         :::::::::::::::::::::::::::::::::::::::::::::::::::::
         ::                  THERMODYNAMIC                  ::
         :::::::::::::::::::::::::::::::::::::::::::::::::::::
         :: total free energy        -151.812604937373 Eh   ::
         ::.................................................::
         :: total energy             -152.637684560498 Eh   ::
         :: zero point energy           0.905670822130 Eh   ::
         :: G(RRHO) w/o ZPVE           -0.080591199005 Eh   ::
         :: G(RRHO) contrib.            0.825079623126 Eh   ::
         :::::::::::::::::::::::::::::::::::::::::::::::::::::

           -------------------------------------------------
          | TOTAL ENERGY             -152.637684560498 Eh   |
          | TOTAL ENTHALPY           -151.676914107083 Eh   |
          | TOTAL FREE ENERGY        -151.812604937373 Eh   |
          | GRADIENT NORM               0.000064078313 Eh/α |
          | HOMO-LUMO GAP               0.879661072759 eV   |
           -------------------------------------------------

 * finished run on 2025/09/04 at 04:51:44.967
