   * xtb version 6.7.1 (edcfbbe) compiled by 'albert@albert-system' on 2024-07-22

   ID    Z sym.   atoms
    1    6 C      1-20, 22-25, 27-48, 50, 51, 53, 55, 56
    2    7 N      21, 26, 52, 54
    3    8 O      49
    4    1 H      57-110

          program call               : xtb data2507/toluene/25tCzBPym/25tCzBPym_toluene_S0_crest.xyz --gfn 2 --gbsa toluene --ohess vtight --parallel 40 --molden --ceasefiles --namespace data2507/toluene/25tCzBPym/25tCzBPym_toluene_S0_finalOpt
      * Solvation model:               GBSA
        Solvent                        toluene
        Solvent mass                       9.2140E+01 g/mol
          :  Hamiltonian                  GFN2-xTB          :
 * total energy  :  -152.7003952 Eh     change       -0.1654684E-08 Eh
 * total energy  :  -152.7004851 Eh     change       -0.8991236E-04 Eh
 * total energy  :  -152.7005468 Eh     change       -0.6175552E-04 Eh
 * total energy  :  -152.7005689 Eh     change       -0.2209468E-04 Eh
 * total energy  :  -152.7006031 Eh     change       -0.3413917E-04 Eh
 * total energy  :  -152.7006348 Eh     change       -0.3175388E-04 Eh
 * total energy  :  -152.7006806 Eh     change       -0.4576011E-04 Eh
 * total energy  :  -152.7007119 Eh     change       -0.3133219E-04 Eh
 * total energy  :  -152.7007543 Eh     change       -0.4241059E-04 Eh
 * total energy  :  -152.7007840 Eh     change       -0.2971742E-04 Eh
 * total energy  :  -152.7010737 Eh     change       -0.2506847E-06 Eh
 * total energy  :  -152.7010739 Eh     change       -0.2149465E-06 Eh
 * total energy  :  -152.7010741 Eh     change       -0.2080599E-06 Eh
 * total energy  :  -152.7010743 Eh     change       -0.1609686E-06 Eh
 * total energy  :  -152.7010744 Eh     change       -0.1320875E-06 Eh
 * total energy  :  -152.7010745 Eh     change       -0.1158360E-06 Eh
 * total energy  :  -152.7010747 Eh     change       -0.1229724E-06 Eh
 * total energy  :  -152.7010748 Eh     change       -0.1065294E-06 Eh
 * total energy  :  -152.7010748 Eh     change       -0.5090101E-08 Eh
   *** GEOMETRY OPTIMIZATION CONVERGED AFTER 68 ITERATIONS ***

 final structure:
================
110
 xtb: 6.7.1 (edcfbbe)
C            6.72433398234603       -5.04463545826668       -1.40533881243775
C            6.92336763415709       -3.67274010310588       -2.06705902405815
C            8.37946143964780       -3.24851612021586       -1.85144158966707
C            6.67884003350698       -3.78427418507946       -3.57944604401234
C            5.93182082205632       -2.68139147726295       -1.47346724665101
C            4.56001675075264       -2.94172357553722       -1.59060267226494
C            3.58922859068765       -2.09783309508430       -1.08856502113234
C            3.99985050838888       -0.93811139539103       -0.45026789065947
C            5.37434497871278       -0.66427475356129       -0.29717725328802
C            6.32984378056862       -1.53122745185752       -0.81122470773692
C            5.46818834576743        0.56570349223305        0.44250829549211
C            6.54553045948420        1.33300674603553        0.86669940606827
C            6.32081360971063        2.51462734737299        1.55463882504367
C            7.45207125805292        3.40193962246044        2.05610840864884
C            8.83588107664683        2.83073140317886        1.73147610533798
C            7.34033367254129        4.78412643754148        1.39530474580864
C            7.34212594057732        3.54411064244772        3.58164329416271
C            4.99647681670781        2.91002893442155        1.78617224664600
C            3.90750980081646        2.16657022559984        1.37661394679029
C            4.14646973697641        0.97224105247127        0.71511205164198
N            3.26048599587959        0.05526917819813        0.17176396690566
C            1.87075306000859        0.11761794576118        0.24976290122974
C            1.24012713396267        0.38199278136234        1.46904962935658
C           -0.13419220556785        0.47224998751146        1.54126631564237
C           -0.92333048695885        0.25492832239212        0.41401290816556
N           -2.31058040839621        0.39399368971292        0.49353125043918
C           -3.10134074360793        1.16536245478200       -0.34237236218423
C           -2.74079477485561        2.06082475892991       -1.33667317356507
C           -3.75074105979002        2.71846773213589       -2.00993487864324
C           -5.10940691187460        2.52519313068296       -1.72414578751860
C           -6.14733571993977        3.28787137892882       -2.53575661746279
C           -5.91475027794283        4.79671692801409       -2.36562280110748
C           -6.00777152967377        2.90200074880254       -4.01594832751722
C           -7.58149853955662        2.97534412182212       -2.09783525527368
C           -5.45285661502094        1.64751138491016       -0.70873442059732
C           -4.45805074189669        0.97077125246845       -0.01497372632232
C           -4.48648413633151        0.02408357275950        1.06771147195787
C           -5.52063188129696       -0.57568610794763        1.77456363004674
C           -5.23152711358520       -1.50123842674393        2.76437046175989
C           -6.31357251121141       -2.20602278644933        3.57030287354370
C           -7.72553431913614       -1.76560158251708        3.17182231138734
C           -6.11941319822825       -1.89172993371562        5.06123397544619
C           -6.20252790544066       -3.72025080905722        3.33740120020607
C           -3.88873028866470       -1.80899736625746        3.02148279882137
C           -2.84135133736483       -1.22902877899506        2.33538196703250
C           -3.14554020501498       -0.29881194521757        1.35491823380961
C           -0.30018905807041       -0.06278386124149       -0.80352917581739
C           -1.06502612907673       -0.40678677005721       -2.02318538714770
O           -0.67110916233243       -0.14373184446807       -3.14525265291702
C           -2.31884635211106       -1.17676714816684       -1.82060649117624
C           -3.44303572614368       -0.94814926240054       -2.61791442244481
N           -4.55481992482278       -1.64548230516206       -2.48540588728205
C           -4.56320005199338       -2.58084116385500       -1.55089826087779
N           -3.55675753328087       -2.90681630160874       -0.76168874691355
C           -2.43867773350576       -2.21709696707012       -0.89833103316831
C            1.08941000281039       -0.08677473838663       -0.88160971904263
H            7.44510780459417       -5.75827099055872       -1.79933595805797
H            5.72664617417683       -5.43387816670436       -1.58899311073968
H            6.86734417519477       -4.96723678402949       -0.32912411811395
H            9.04144084176042       -3.98783913999879       -2.29815097661980
H            8.58141635669061       -2.28920368985084       -2.32264831487503
H            8.61550555415294       -3.18387637698674       -0.79164949745266
H            6.80104237598195       -2.81190403980255       -4.05311608147995
H            7.39076860405040       -4.47679975320278       -4.02407380263057
H            5.67604098379074       -4.14321740674454       -3.79477497652102
H            4.23224938240755       -3.84063315634426       -2.09027475827460
H            2.54386812899688       -2.35019920203640       -1.18857373355410
H            7.37055292378678       -1.28907191461792       -0.67686259805633
H            7.54171391952216        0.99075482962013        0.64229035335818
H            8.98125706981747        2.74390281175097        0.65700812062157
H            9.60332098117318        3.49713338478562        2.12068010770557
H            8.97413006178651        1.85479198409151        2.19141846737138
H            6.40372935653172        5.27252640557594        1.64998392511700
H            7.39076196353239        4.68838262700038        0.31223292388812
H            8.15737314342953        5.42338263625209        1.72376492247726
H            8.15188272170795        4.16534351103705        3.95903729881012
H            6.40014276666133        4.00146253130725        3.87163009966001
H            7.40701996228713        2.56661339502086        4.05594737655449
H            4.80411139503247        3.83782844663064        2.30298184167225
H            2.90411730336152        2.52166078905327        1.55803962182038
H            1.83785814658871        0.52101788703374        2.35646538072782
H           -0.61423377051660        0.71732628582451        2.47636540614580
H           -1.70510119375377        2.24334706141979       -1.58554385013961
H           -3.46509719814988        3.40908317539472       -2.78852464766018
H           -6.66874780072743        5.35479276752081       -2.91675570453535
H           -5.98083159514784        5.07119133418307       -1.31451214765725
H           -4.93657894842136        5.09331429882402       -2.73414836872502
H           -5.02079016039809        3.14597741357829       -4.39991747196632
H           -6.16914116257923        1.83303725216468       -4.14184168582094
H           -6.74558854791909        3.43490411123498       -4.61205891715600
H           -8.27801261598422        3.54094966870963       -2.71352060466681
H           -7.80587122073997        1.91836370866074       -2.22162191580950
H           -7.74428260747379        3.25804177335114       -1.06025257749319
H           -6.47995621289181        1.47249749793030       -0.43742480268119
H           -6.53455275072982       -0.31106239892061        1.52629112026337
H           -7.86423242893130       -0.69919543548575        3.33511027872382
H           -7.92795576725760       -1.99735439851785        2.12856210376308
H           -8.45488002601278       -2.29599620407436        3.78090280301499
H           -6.89610701408786       -2.37612577072047        5.64932186825756
H           -6.17757433175858       -0.81807852408556        5.22997078556484
H           -5.15500675142965       -2.24112381806291        5.41899680969947
H           -6.29479777568501       -3.94467767753942        2.27650584224439
H           -5.24813404851514       -4.10692425459009        3.68330651795251
H           -6.99472798475459       -4.23992204358065        3.87241816328249
H           -3.64876531630690       -2.53513696668003        3.78238406780038
H           -1.82032802115362       -1.50453173613076        2.55301754750181
H           -3.43622518836743       -0.16974559083324       -3.36947745115426
H           -5.48047476097579       -3.14158585916157       -1.42889401970451
H           -1.61068853926179       -2.51878378944369       -0.26859777836494
H            1.54872920994208       -0.28014192645989       -1.83947721682050

          :  Hamiltonian                  GFN2-xTB          :
         :: gradient norm              0.000035997903 Eh/a0 ::
         :: HOMO-LUMO gap              1.249751763348 eV    ::
         :: SCC energy              -155.268519312308 Eh    ::
         :: -> dispersion             -0.149496718202 Eh    ::
         :: -> Gsolv                  -0.058606758737 Eh    ::
         :: repulsion energy           2.567444534937 Eh    ::

    * Orbital Energies and Occupations

         #    Occupation            Energy/Eh            Energy/eV
      -------------------------------------------------------------
         1        2.0000           -0.7337517             -19.9664
       ...           ...                  ...                  ...
       130        2.0000           -0.4170759             -11.3492
       131        2.0000           -0.4141197             -11.2688
       132        2.0000           -0.4121231             -11.2144
       133        2.0000           -0.4109682             -11.1830
       134        2.0000           -0.4104185             -11.1681
       135        2.0000           -0.4081054             -11.1051
       136        2.0000           -0.4024686             -10.9517
       137        2.0000           -0.3984729             -10.8430
       138        2.0000           -0.3915533             -10.6547
       139        2.0000           -0.3801495             -10.3444
       140        2.0000           -0.3757332             -10.2242
       141        2.0000           -0.3688634             -10.0373
       142        2.0000           -0.3604210              -9.8076 (HOMO)
       143                         -0.3144935              -8.5578 (LUMO)
       144                         -0.2904465              -7.9035
       145                         -0.2728581              -7.4248
       146                         -0.2565581              -6.9813
       147                         -0.2468169              -6.7162
       148                         -0.2418604              -6.5814
       149                         -0.2250818              -6.1248
       150                         -0.2222650              -6.0481
       151                         -0.2198724              -5.9830
       152                         -0.1996091              -5.4316
       153                         -0.1903240              -5.1790
       ...                                ...                  ...
       278                          0.7388999              20.1065
      -------------------------------------------------------------
                  HL-Gap            0.0459275 Eh            1.2498 eV

     #   Z          covCN         q      C6AA      α(0)
     1   6 C        3.761    -0.105    22.552     6.770
     2   6 C        3.902     0.025    20.098     6.372
     3   6 C        3.761    -0.107    22.597     6.776
     4   6 C        3.761    -0.105    22.545     6.769
     5   6 C        2.972    -0.001    28.043     8.686
     6   6 C        2.931    -0.040    28.985     8.829
     7   6 C        2.908    -0.054    29.347     8.883
     8   6 C        3.072     0.041    27.001     8.520
     9   6 C        3.066    -0.019    28.410     8.740
    10   6 C        2.918    -0.044    29.102     8.846
    11   6 C        3.065    -0.019    28.410     8.740
    12   6 C        2.918    -0.044    29.098     8.846
    13   6 C        2.972    -0.001    28.040     8.686
    14   6 C        3.902     0.025    20.098     6.372
    15   6 C        3.761    -0.107    22.593     6.776
    16   6 C        3.761    -0.105    22.550     6.769
    17   6 C        3.761    -0.105    22.556     6.770
    18   6 C        2.931    -0.040    28.984     8.829
    19   6 C        2.908    -0.055    29.363     8.885
    20   6 C        3.073     0.041    26.997     8.519
    21   7 N        2.801    -0.044    22.091     6.981
    22   6 C        2.908     0.068    26.483     8.438
    23   6 C        2.921    -0.037    28.912     8.818
    24   6 C        2.920    -0.040    28.984     8.828
    25   6 C        2.911     0.062    26.608     8.458
    26   7 N        2.801    -0.062    22.446     7.037
    27   6 C        3.075     0.038    27.064     8.530
    28   6 C        2.908    -0.057    29.421     8.894
    29   6 C        2.931    -0.040    28.994     8.831
    30   6 C        2.972     0.001    28.011     8.681
    31   6 C        3.902     0.026    20.089     6.371
    32   6 C        3.761    -0.106    22.564     6.772
    33   6 C        3.761    -0.106    22.565     6.772
    34   6 C        3.761    -0.109    22.625     6.781
    35   6 C        2.918    -0.045    29.122     8.849
    36   6 C        3.066    -0.023    28.516     8.757
    37   6 C        3.066    -0.022    28.493     8.753
    38   6 C        2.918    -0.045    29.122     8.849
    39   6 C        2.973     0.002    27.973     8.676
    40   6 C        3.903     0.025    20.092     6.371
    41   6 C        3.761    -0.108    22.612     6.779
    42   6 C        3.761    -0.106    22.578     6.774
    43   6 C        3.761    -0.107    22.587     6.775
    44   6 C        2.932    -0.037    28.930     8.821
    45   6 C        2.908    -0.055    29.368     8.886
    46   6 C        3.075     0.041    27.011     8.521
    47   6 C        2.973    -0.030    28.753     8.796
    48   6 C        2.827     0.233    23.124     7.880
    49   8 O        0.858    -0.398    21.647     6.238
    50   6 C        2.960    -0.022    28.542     8.763
    51   6 C        2.938     0.093    25.933     8.352
    52   7 N        1.833    -0.228    26.835     7.677
    53   6 C        2.926     0.157    24.609     8.135
    54   7 N        1.834    -0.227    26.815     7.674
    55   6 C        2.934     0.085    26.114     8.381
    56   6 C        2.928    -0.034    28.839     8.807
    57   1 H        0.925     0.039     2.469     2.457
    58   1 H        0.925     0.035     2.514     2.479
    59   1 H        0.925     0.033     2.544     2.494
    60   1 H        0.925     0.037     2.485     2.465
    61   1 H        0.925     0.036     2.500     2.472
    62   1 H        0.925     0.037     2.493     2.469
    63   1 H        0.925     0.032     2.555     2.500
    64   1 H        0.925     0.038     2.470     2.458
    65   1 H        0.925     0.035     2.521     2.483
    66   1 H        0.926     0.031     2.579     2.511
    67   1 H        0.926     0.020     2.731     2.584
    68   1 H        0.926     0.042     2.423     2.434
    69   1 H        0.926     0.041     2.434     2.440
    70   1 H        0.925     0.036     2.507     2.476
    71   1 H        0.925     0.037     2.490     2.468
    72   1 H        0.925     0.036     2.499     2.472
    73   1 H        0.925     0.036     2.507     2.476
    74   1 H        0.925     0.032     2.558     2.501
    75   1 H        0.925     0.038     2.473     2.459
    76   1 H        0.925     0.038     2.474     2.460
    77   1 H        0.925     0.036     2.500     2.473
    78   1 H        0.925     0.033     2.545     2.495
    79   1 H        0.926     0.033     2.547     2.496
    80   1 H        0.926     0.027     2.624     2.533
    81   1 H        0.926     0.066     2.124     2.279
    82   1 H        0.926     0.064     2.151     2.294
    83   1 H        0.926     0.016     2.792     2.613
    84   1 H        0.926     0.034     2.534     2.489
    85   1 H        0.925     0.041     2.438     2.442
    86   1 H        0.925     0.034     2.534     2.489
    87   1 H        0.925     0.036     2.508     2.477
    88   1 H        0.925     0.034     2.531     2.488
    89   1 H        0.925     0.034     2.530     2.487
    90   1 H        0.925     0.041     2.433     2.439
    91   1 H        0.925     0.040     2.450     2.448
    92   1 H        0.925     0.038     2.478     2.462
    93   1 H        0.925     0.037     2.483     2.464
    94   1 H        0.926     0.045     2.378     2.411
    95   1 H        0.926     0.043     2.409     2.427
    96   1 H        0.925     0.037     2.495     2.470
    97   1 H        0.925     0.036     2.506     2.476
    98   1 H        0.925     0.039     2.459     2.452
    99   1 H        0.925     0.040     2.445     2.445
   100   1 H        0.925     0.033     2.537     2.491
   101   1 H        0.925     0.038     2.481     2.463
   102   1 H        0.925     0.033     2.540     2.492
   103   1 H        0.925     0.038     2.475     2.460
   104   1 H        0.925     0.041     2.439     2.442
   105   1 H        0.926     0.039     2.455     2.450
   106   1 H        0.926     0.029     2.595     2.519
   107   1 H        0.925     0.058     2.220     2.330
   108   1 H        0.925     0.061     2.192     2.315
   109   1 H        0.925     0.051     2.308     2.376
   110   1 H        0.926     0.061     2.190     2.314

molecular dipole:
                 x           y           z       tot (Debye)
 q only:        0.186       0.059       1.786
   full:        0.453       0.215       1.704       4.513

 projected vibrational frequencies (cm⁻¹)
eigval :       -0.00    -0.00    -0.00     0.00     0.00     0.00
eigval :        9.12    12.21    12.78    19.97    25.78    31.73
eigval :       33.72    34.97    38.05    39.68    41.83    54.99
eigval :       61.05    66.64    73.45    75.13    80.39    89.98
eigval :       91.49   108.20   117.43   129.71   131.73   138.40
eigval :      159.97   161.64   164.30   171.58   177.94   185.04
eigval :      187.78   197.27   203.09   203.78   208.06   218.48
eigval :      220.92   224.23   226.28   228.46   231.38   237.66
eigval :      259.66   260.57   266.06   271.17   280.50   289.35
eigval :      300.75   318.91   319.10   319.76   324.43   324.60
eigval :      326.50   334.50   338.76   340.28   345.73   357.28
eigval :      359.55   360.05   360.60   370.72   382.44   389.50
eigval :      397.58   402.03   410.23   412.65   417.84   436.00
eigval :      437.96   442.03   443.55   444.38   445.28   461.02
eigval :      464.81   465.53   469.43   480.07   482.75   500.93
eigval :      517.20   524.88   562.01   574.93   578.92   584.15
eigval :      587.51   591.11   607.70   609.94   623.50   630.44
eigval :      635.14   641.36   642.57   667.32   676.47   685.71
eigval :      688.66   702.97   704.98   708.80   711.81   717.66
eigval :      719.68   730.39   732.18   784.08   818.77   819.86
eigval :      821.49   823.40   829.60   831.90   832.69   841.89
eigval :      870.12   870.36   871.30   872.83   873.37   874.95
eigval :      894.62   900.92   911.04   914.32   916.81   917.30
eigval :      918.20   922.25   923.52   925.61   926.20   931.10
eigval :      936.03   948.21   958.24   959.07   959.68   959.72
eigval :      961.76   961.98   962.72   962.80   963.11   964.06
eigval :      964.27   965.75  1006.47  1029.51  1030.62  1032.58
eigval :     1034.35  1034.82  1035.27  1035.68  1035.98  1036.66
eigval :     1040.00  1041.32  1094.75  1112.43  1125.09  1128.79
eigval :     1129.01  1136.32  1138.17  1150.83  1172.84  1174.96
eigval :     1176.88  1178.98  1200.72  1214.27  1225.66  1225.75
eigval :     1225.94  1226.01  1226.44  1227.36  1229.64  1229.79
eigval :     1230.40  1231.37  1234.30  1234.75  1241.08  1242.44
eigval :     1248.50  1251.08  1255.83  1261.00  1282.10  1282.78
eigval :     1298.56  1304.11  1305.04  1306.15  1315.45  1343.94
eigval :     1344.42  1344.91  1356.40  1357.30  1390.73  1394.15
eigval :     1396.10  1398.81  1399.90  1401.80  1401.86  1403.26
eigval :     1403.34  1403.39  1404.04  1404.35  1411.19  1414.32
eigval :     1426.76  1427.15  1427.25  1427.95  1433.89  1446.94
eigval :     1472.42  1479.75  1480.41  1482.30  1482.48  1488.02
eigval :     1488.67  1488.79  1489.88  1491.16  1492.10  1492.19
eigval :     1492.59  1498.35  1498.75  1499.03  1499.63  1501.84
eigval :     1502.38  1502.41  1503.47  1510.77  1511.28  1511.45
eigval :     1512.33  1516.96  1517.51  1517.84  1518.76  1535.89
eigval :     1540.13  1542.08  1569.42  1570.16  1580.41  1580.95
eigval :     1582.21  1603.32  1603.84  1614.26  1614.83  1664.51
eigval :     3018.27  3019.21  3019.57  3020.07  3020.54  3021.33
eigval :     3021.66  3022.12  3023.26  3023.50  3024.38  3024.45
eigval :     3024.81  3025.06  3026.27  3026.87  3026.90  3027.26
eigval :     3028.35  3028.64  3030.87  3031.02  3031.16  3032.01
eigval :     3035.42  3035.89  3035.93  3036.90  3042.80  3042.82
eigval :     3043.88  3046.18  3046.51  3046.95  3047.14  3047.28
eigval :     3050.52  3064.05  3065.50  3069.98  3071.21  3076.64
eigval :     3078.68  3089.79  3091.63  3092.22  3095.59  3097.00
eigval :     3097.72  3106.76  3117.54  3119.78  3120.58  3123.76

   temp. (K)  partition function   enthalpy   heat capacity  entropy
                                   cal/mol     cal/K/mol   cal/K/mol   J/K/mol
 298.15  VIB  0.488E+25            32133.708    196.060    199.582
         ROT  0.154E+09              888.752      2.981     40.447
         INT  0.751E+33            33022.460    199.041    240.028
         TR   0.194E+29             1481.254      4.968     45.659
         TOT                       34503.7142   204.0091   285.6876  1195.3171

       T/K    H(0)-H(T)+PV         H(T)/Eh          T*S/Eh         G(T)/Eh
   ------------------------------------------------------------------------
    298.15    0.549852E-01    0.963923E+00    0.135739E+00    0.828184E+00
   ------------------------------------------------------------------------

         :::::::::::::::::::::::::::::::::::::::::::::::::::::
         ::                  THERMODYNAMIC                  ::
         :::::::::::::::::::::::::::::::::::::::::::::::::::::
         :: total free energy        -151.872891045963 Eh   ::
         ::.................................................::
         :: total energy             -152.701074773839 Eh   ::
         :: zero point energy           0.908937979708 Eh   ::
         :: G(RRHO) w/o ZPVE           -0.080754251832 Eh   ::
         :: G(RRHO) contrib.            0.828183727876 Eh   ::
         :::::::::::::::::::::::::::::::::::::::::::::::::::::

           -------------------------------------------------
          | TOTAL ENERGY             -152.701074773839 Eh   |
          | TOTAL ENTHALPY           -151.737151625595 Eh   |
          | TOTAL FREE ENERGY        -151.872891045963 Eh   |
          | GRADIENT NORM               0.000035976817 Eh/α |
          | HOMO-LUMO GAP               1.249751342878 eV   |
           -------------------------------------------------

 * finished run on 2025/09/04 at 04:29:43.334
