   * xtb version 6.7.1 (edcfbbe) compiled by 'albert@albert-system' on 2024-07-22

   ID    Z sym.   atoms
    1    6 C      1-9, 11-19, 21-34, 36-40, 42-53
    2    7 N      10, 20, 35, 41
    3    1 H      54-87

          program call               : xtb data2507/toluene/DPCN/DPCN_toluene_S0_finalOpt.xtbopt.xyz --gfn 2 --uhf 2 --gbsa toluene --ohess vtight --parallel 40 --molden --ceasefiles --namespace data2507/toluene/DPCN/DPCN_toluene_T1_preOpt
      * Solvation model:               GBSA
        Solvent                        toluene
        Solvent mass                       9.2140E+01 g/mol
          :  Hamiltonian                  GFN2-xTB          :
 * total energy  :  -133.9737656 Eh     change       -0.4982979E-08 Eh
 * total energy  :  -133.9777183 Eh     change       -0.3952784E-02 Eh
 * total energy  :  -133.9794767 Eh     change       -0.1758328E-02 Eh
 * total energy  :  -133.9800384 Eh     change       -0.5616937E-03 Eh
 * total energy  :  -133.9801914 Eh     change       -0.1530614E-03 Eh
 * total energy  :  -133.9809229 Eh     change       -0.7315299E-03 Eh
 * total energy  :  -133.9811605 Eh     change       -0.2375443E-03 Eh
 * total energy  :  -133.9814046 Eh     change       -0.2440660E-03 Eh
 * total energy  :  -133.9815228 Eh     change       -0.1182259E-03 Eh
 * total energy  :  -133.9816200 Eh     change       -0.9717716E-04 Eh
 * total energy  :  -133.9821388 Eh     change       -0.1109287E-05 Eh
 * total energy  :  -133.9821398 Eh     change       -0.1058647E-05 Eh
 * total energy  :  -133.9821413 Eh     change       -0.1447091E-05 Eh
 * total energy  :  -133.9821429 Eh     change       -0.1683395E-05 Eh
 * total energy  :  -133.9821444 Eh     change       -0.1405203E-05 Eh
 * total energy  :  -133.9821455 Eh     change       -0.1190680E-05 Eh
 * total energy  :  -133.9821467 Eh     change       -0.1112541E-05 Eh
 * total energy  :  -133.9821478 Eh     change       -0.1170170E-05 Eh
 * total energy  :  -133.9821478 Eh     change       -0.4073172E-08 Eh
   *** GEOMETRY OPTIMIZATION CONVERGED AFTER 68 ITERATIONS ***

 final structure:
================
87
 xtb: 6.7.1 (edcfbbe)
C           10.18979204865192       -1.37606340022234        0.53097674000636
C            9.27480030163881       -0.24769889139579        0.01515330517024
C           10.12333512407448        0.92361833577017       -0.51798443613904
C            8.42920205709334       -0.78471860117118       -1.11969916684330
C            9.04811845707714       -1.27042384364360       -2.26414511604432
C            8.32567227280020       -1.73822541997511       -3.34625178591055
C            6.94026392539978       -1.70351182444673       -3.30628608099981
C            6.29882516088258       -1.22883850648267       -2.18430036398861
C            7.02680880265638       -0.78880070998093       -1.06905269092002
N            6.35415748887864       -0.33051475154298        0.04927627814803
C            4.93698992738261       -0.37826661363789        0.06726792910990
C            4.18814608148457        0.79795657001050        0.00313852473446
C            2.81461169472098        0.74695464093988        0.00646768604924
C            2.12287161614775       -0.47740219359357        0.09103381681766
C            0.68020460676104       -0.52445232885275        0.09285529372430
C           -0.02925871616925       -1.67140223690468       -0.33464942993476
C           -1.39197054342223       -1.69960506439687       -0.36297762725850
C           -2.16636532105272       -0.57120433534258        0.01759662466946
C           -3.57269075471526       -0.68087251347778       -0.05423754551343
N           -4.18851830439939       -1.87163854252937       -0.06500558577410
C           -5.49453156144281       -1.62440142766198        0.01347054125151
C           -6.55111210482633       -2.57495080538983        0.12128035725305
C           -6.27940519361892       -3.94390435929815        0.20233952461492
C           -7.30401284338104       -4.85013825748090        0.35631370271738
C           -8.61268934864259       -4.38760381709991        0.44026020606208
C           -8.89201842654922       -3.03874121001885        0.35452334714262
C           -7.87735072103818       -2.08859209791859        0.17993068759763
C           -8.14103854311122       -0.66508606992037        0.03064917705153
C           -9.44532402147060       -0.17106303501347       -0.04742847561274
C           -9.71597379260639        1.16601467083266       -0.25178992170744
C           -8.66828180179183        2.06936851024868       -0.41551160150813
C           -7.37188590535487        1.63099899858929       -0.33327112995447
C           -7.06719858739014        0.27611512270806       -0.08147604232543
C           -5.75208960240392       -0.22647134715189        0.01024620556405
N           -4.50896631744372        0.36735499207136       -0.02641550921879
C           -4.19159217724590        1.72268409834064       -0.10218818411462
C           -3.36251105274551        2.18782688567038       -1.13550234339982
C           -3.02451673996997        3.51526915944508       -1.20927721165663
C           -3.49515756779153        4.42119965197206       -0.24133606310990
C           -3.14411006781244        5.77424056372656       -0.30902413751715
N           -2.85393851597479        6.88974264466803       -0.36424895969881
C           -4.32027390877920        3.95277261038423        0.79819338938995
C           -4.66475098914766        2.62592288825068        0.86289004950274
C           -1.45884201731751        0.55616500249656        0.50508081186293
C           -0.09340896702901        0.57088639539771        0.53694805062627
C            2.89991354676632       -1.64977322551137        0.16719043352631
C            4.27340717766473       -1.60373370697830        0.14679040356141
C            7.02519176081277        0.17198679058126        1.14923878755049
C            6.29947502286478        0.57642700163682        2.27928001550301
C            6.93870582567258        1.09260711557745        3.38407078667337
C            8.32068869772864        1.20377227817977        3.39215613717373
C            9.04318515001034        0.77184065551746        2.29530313524778
C            8.42642748773492        0.24751779999268        1.16690033097057
H           10.82907264211933       -1.01894042419206        1.33285378623108
H            9.58726974538548       -2.19881426543658        0.91174107567145
H           10.82250619860721       -1.75368293233876       -0.26675427645124
H            9.47390623596325        1.71665534701050       -0.88437788290033
H           10.75411130135165        1.33094506083429        0.26649893823960
H           10.76224334991316        0.59856804648382       -1.33362247442409
H           10.12536674578858       -1.28371018804611       -2.31926515930789
H            8.83859718327476       -2.11246508420369       -4.21900393437315
H            6.35930787229167       -2.04004874363634       -4.15160497902032
H            5.22153401245560       -1.18670187038389       -2.16740463842031
H            4.69922113130919        1.74686634660029       -0.07272788968113
H            2.25955016392538        1.66640614592334       -0.09454874051052
H            0.51694088590642       -2.53345302468502       -0.68602959325821
H           -1.92302392538142       -2.57411526484122       -0.70532378411963
H           -5.24805598143564       -4.25729794171331        0.14940089617741
H           -7.09557232113165       -5.90773658238935        0.41876716144091
H           -9.42284502227839       -5.08984104505228        0.57411149910744
H           -9.92193164275870       -2.72886179713175        0.43027788291669
H          -10.28005203763498       -0.84775617576478        0.03810779623249
H          -10.73888297966715        1.50749062168210       -0.30460711860236
H           -8.87393383937045        3.11114776696239       -0.61346356697650
H           -6.56801446570798        2.33139316668900       -0.48863428772256
H           -3.00253249250610        1.48842842890323       -1.87564075712221
H           -2.39932903245845        3.87682918545094       -2.01243586531734
H           -4.67097851778709        4.64630198541525        1.54856466630275
H           -5.28908166936784        2.26145778266365        1.66589260157196
H           -2.00110312232788        1.39526475706394        0.91163040067397
H            0.40185307212826        1.43413689921540        0.95628822725638
H            2.41294374801374       -2.60556393576215        0.27804811300260
H            4.85158918465485       -2.51399158708493        0.21291454914741
H            5.22608848606010        0.47456098441626        2.28697215030978
H            6.35929883347352        1.40114549230159        4.24109300169862
H            8.83180012486728        1.61013854851032        4.25151460418826
H           10.11900026005796        0.84470760977972        2.32593778027226

          :  Hamiltonian                  GFN2-xTB          :
         :: gradient norm              0.000065067973 Eh/a0 ::
         :: HOMO-LUMO gap              0.398338144877 eV    ::
         :: SCC energy              -136.477381641045 Eh    ::
         :: -> dispersion             -0.124550806474 Eh    ::
         :: -> Gsolv                  -0.062600945778 Eh    ::
         :: repulsion energy           2.495233806497 Eh    ::

    * Orbital Energies and Occupations

         #    Occupation            Energy/Eh            Energy/eV
      -------------------------------------------------------------
         1        2.0000           -0.6867274             -18.6868
       ...           ...                  ...                  ...
       114        2.0000           -0.4147160             -11.2850
       115        2.0000           -0.4128651             -11.2346
       116        2.0000           -0.4110900             -11.1863
       117        2.0000           -0.4093748             -11.1397
       118        2.0000           -0.4065902             -11.0639
       119        2.0000           -0.4057671             -11.0415
       120        2.0000           -0.3971785             -10.8078
       121        2.0000           -0.3902814             -10.6201
       122        2.0000           -0.3855842             -10.4923
       123        2.0000           -0.3806072             -10.3568
       124        1.9204           -0.3635105              -9.8916
       125        1.0796           -0.3588592              -9.7651
       126        0.9995           -0.2814362              -7.6583 (HOMO)
       127        0.0005           -0.2667975              -7.2599 (LUMO)
       128                         -0.2531098              -6.8875
       129                         -0.2519517              -6.8560
       130                         -0.2403176              -6.5394
       131                         -0.2364667              -6.4346
       132                         -0.2335981              -6.3565
       133                         -0.2330830              -6.3425
       134                         -0.2309975              -6.2858
       135                         -0.2296934              -6.2503
       136                         -0.2177604              -5.9256
       137                         -0.2093086              -5.6956
       ...                                ...                  ...
       246                          1.1612475              31.5992
      -------------------------------------------------------------
                  HL-Gap            0.0146387 Eh            0.3983 eV

     #   Z          covCN         q      C6AA      α(0)
     1   6 C        3.761    -0.107    22.586     6.775
     2   6 C        3.909     0.024    20.116     6.375
     3   6 C        3.761    -0.107    22.586     6.775
     4   6 C        2.979    -0.003    28.095     8.694
     5   6 C        2.926    -0.033    28.830     8.805
     6   6 C        2.917    -0.034    28.835     8.806
     7   6 C        2.918    -0.029    28.721     8.788
     8   6 C        2.923    -0.050    29.232     8.866
     9   6 C        2.929     0.060    26.665     8.468
    10   7 N        2.753    -0.024    21.707     6.920
    11   6 C        2.928     0.051    26.863     8.500
    12   6 C        2.916    -0.039    28.958     8.824
    13   6 C        2.923    -0.036    28.895     8.815
    14   6 C        2.970     0.010    27.788     8.647
    15   6 C        2.971     0.002    27.983     8.677
    16   6 C        2.917    -0.037    28.917     8.818
    17   6 C        2.923    -0.034    28.854     8.809
    18   6 C        2.969    -0.011    28.280     8.723
    19   6 C        3.152     0.128    24.930     8.166
    20   7 N        1.882    -0.319    29.128     8.001
    21   6 C        3.176     0.078    25.868     8.305
    22   6 C        2.984    -0.005    28.141     8.702
    23   6 C        2.922    -0.029    28.716     8.788
    24   6 C        2.916    -0.031    28.783     8.798
    25   6 C        2.917    -0.029    28.730     8.790
    26   6 C        2.922    -0.035    28.874     8.812
    27   6 C        2.978    -0.001    28.042     8.686
    28   6 C        2.977    -0.003    28.086     8.693
    29   6 C        2.921    -0.034    28.838     8.806
    30   6 C        2.916    -0.034    28.839     8.806
    31   6 C        2.914    -0.032    28.790     8.799
    32   6 C        2.918    -0.040    28.987     8.829
    33   6 C        2.974    -0.009    28.237     8.716
    34   6 C        3.042     0.031    27.277     8.566
    35   7 N        2.817    -0.059    22.386     7.027
    36   6 C        2.908     0.056    26.735     8.478
    37   6 C        2.917    -0.041    29.024     8.834
    38   6 C        2.923    -0.025    28.638     8.776
    39   6 C        2.970    -0.006    28.158     8.704
    40   6 C        1.911     0.108    28.440     8.613
    41   7 N        0.911    -0.316    28.135     7.672
    42   6 C        2.923    -0.027    28.682     8.783
    43   6 C        2.916    -0.042    29.047     8.838
    44   6 C        2.913    -0.041    29.019     8.833
    45   6 C        2.918    -0.036    28.901     8.816
    46   6 C        2.923    -0.036    28.896     8.815
    47   6 C        2.916    -0.039    28.959     8.824
    48   6 C        2.928     0.060    26.664     8.468
    49   6 C        2.923    -0.050    29.233     8.867
    50   6 C        2.918    -0.029    28.722     8.788
    51   6 C        2.917    -0.034    28.835     8.806
    52   6 C        2.926    -0.033    28.830     8.805
    53   6 C        2.979    -0.003    28.096     8.695
    54   1 H        0.925     0.049     2.327     2.386
    55   1 H        0.925     0.036     2.502     2.474
    56   1 H        0.925     0.050     2.323     2.383
    57   1 H        0.925     0.036     2.508     2.476
    58   1 H        0.925     0.050     2.325     2.385
    59   1 H        0.925     0.049     2.326     2.385
    60   1 H        0.926     0.047     2.362     2.403
    61   1 H        0.926     0.040     2.445     2.445
    62   1 H        0.926     0.040     2.452     2.449
    63   1 H        0.926     0.042     2.428     2.437
    64   1 H        0.926     0.042     2.427     2.436
    65   1 H        0.926     0.041     2.438     2.442
    66   1 H        0.926     0.039     2.465     2.455
    67   1 H        0.926     0.045     2.384     2.414
    68   1 H        0.926     0.048     2.344     2.394
    69   1 H        0.926     0.038     2.475     2.460
    70   1 H        0.926     0.038     2.472     2.459
    71   1 H        0.926     0.039     2.459     2.452
    72   1 H        0.926     0.040     2.449     2.447
    73   1 H        0.926     0.035     2.520     2.482
    74   1 H        0.926     0.031     2.569     2.507
    75   1 H        0.926     0.030     2.592     2.517
    76   1 H        0.926     0.034     2.527     2.486
    77   1 H        0.926     0.035     2.517     2.481
    78   1 H        0.926     0.034     2.526     2.486
    79   1 H        0.926     0.037     2.487     2.466
    80   1 H        0.926     0.020     2.726     2.582
    81   1 H        0.926     0.032     2.553     2.499
    82   1 H        0.926     0.045     2.387     2.416
    83   1 H        0.926     0.043     2.406     2.426
    84   1 H        0.926     0.041     2.432     2.439
    85   1 H        0.926     0.039     2.459     2.452
    86   1 H        0.926     0.040     2.447     2.446
    87   1 H        0.926     0.047     2.361     2.403

molecular dipole:
                 x           y           z       tot (Debye)
 q only:        5.589      -2.752       0.172
   full:        5.164      -2.725       0.205      14.850

 projected vibrational frequencies (cm⁻¹)
eigval :       -0.00    -0.00     0.00     0.00     0.00     0.00
eigval :       10.71    11.80    13.98    21.11    22.88    29.58
eigval :       37.47    46.34    54.82    58.67    62.93    70.86
eigval :       86.62    90.80    93.90   101.87   106.30   113.21
eigval :      121.63   127.74   139.91   140.75   174.46   180.70
eigval :      201.08   202.85   205.50   210.37   219.92   221.43
eigval :      237.14   260.03   262.86   266.58   276.64   302.98
eigval :      319.61   327.69   332.06   341.34   344.97   369.22
eigval :      374.89   379.26   380.61   381.52   388.88   393.15
eigval :      402.31   409.09   415.12   417.48   426.02   437.97
eigval :      441.96   450.89   463.52   472.37   500.06   504.89
eigval :      507.69   510.87   519.72   523.93   530.03   534.37
eigval :      542.82   556.35   574.40   579.50   582.79   590.40
eigval :      594.31   604.28   610.67   619.38   625.20   637.83
eigval :      655.98   659.78   665.03   668.39   673.41   675.18
eigval :      687.54   691.41   701.09   701.49   725.85   730.42
eigval :      754.69   759.04   770.45   773.78   776.26   776.52
eigval :      793.52   798.08   809.31   815.47   825.35   826.69
eigval :      846.61   847.42   853.51   865.50   871.29   872.61
eigval :      896.03   903.06   904.58   905.76   907.69   910.95
eigval :      911.66   912.27   913.67   914.72   917.32   919.02
eigval :      919.53   921.18   922.48   925.04   925.25   936.74
eigval :      940.99   959.61   965.95   994.22   998.76  1007.17
eigval :     1013.92  1048.13  1057.00  1074.37  1082.78  1084.16
eigval :     1099.42  1104.36  1107.81  1113.33  1127.72  1131.23
eigval :     1136.90  1137.54  1148.50  1150.03  1157.19  1166.05
eigval :     1170.32  1178.98  1180.87  1182.81  1183.33  1184.05
eigval :     1195.23  1200.18  1209.99  1232.72  1238.60  1243.36
eigval :     1245.39  1248.67  1252.80  1256.82  1258.40  1262.46
eigval :     1273.86  1282.79  1284.47  1292.52  1303.04  1305.72
eigval :     1312.96  1315.88  1323.95  1326.76  1329.07  1332.60
eigval :     1333.46  1334.82  1364.19  1381.22  1392.51  1399.06
eigval :     1407.47  1413.25  1417.31  1419.10  1419.39  1422.05
eigval :     1428.08  1432.92  1439.31  1447.77  1455.01  1456.73
eigval :     1459.98  1465.11  1470.87  1475.42  1481.75  1483.55
eigval :     1484.15  1494.59  1497.62  1501.92  1515.73  1530.49
eigval :     1539.75  1547.36  1554.15  1564.55  1567.21  1578.05
eigval :     1578.09  1580.92  1586.91  1591.06  2290.73  3026.41
eigval :     3028.40  3047.04  3048.98  3054.54  3058.27  3073.79
eigval :     3075.53  3076.72  3077.90  3079.16  3080.02  3080.44
eigval :     3083.68  3084.00  3084.84  3084.94  3086.19  3089.34
eigval :     3090.94  3091.03  3091.85  3098.61  3098.90  3100.51
eigval :     3100.71  3101.32  3101.63  3102.48  3104.15  3109.46
eigval :     3110.74  3111.28  3122.02

   temp. (K)  partition function   enthalpy   heat capacity  entropy
                                   cal/mol     cal/K/mol   cal/K/mol   J/K/mol
 298.15  VIB  0.355E+20            25357.554    160.591    157.291
         ROT  0.156E+09              888.752      2.981     40.465
         INT  0.553E+28            26246.307    163.572    197.756
         TR   0.171E+29             1481.254      4.968     45.406
         TOT                       27727.5606   168.5397   243.1622  1017.3907

       T/K    H(0)-H(T)+PV         H(T)/Eh          T*S/Eh         G(T)/Eh
   ------------------------------------------------------------------------
    298.15    0.441867E-01    0.712874E+00    0.115534E+00    0.597339E+00
   ------------------------------------------------------------------------

         :::::::::::::::::::::::::::::::::::::::::::::::::::::
         ::                  THERMODYNAMIC                  ::
         :::::::::::::::::::::::::::::::::::::::::::::::::::::
         :: total free energy        -133.384808424203 Eh   ::
         ::.................................................::
         :: total energy             -133.982147838846 Eh   ::
         :: zero point energy           0.668686953036 Eh   ::
         :: G(RRHO) w/o ZPVE           -0.071347538393 Eh   ::
         :: G(RRHO) contrib.            0.597339414643 Eh   ::
         :::::::::::::::::::::::::::::::::::::::::::::::::::::

           -------------------------------------------------
          | TOTAL ENERGY             -133.982147838846 Eh   |
          | TOTAL ENTHALPY           -133.269274205452 Eh   |
          | TOTAL FREE ENERGY        -133.384808424203 Eh   |
          | GRADIENT NORM               0.000065459954 Eh/α |
          | HOMO-LUMO GAP               0.398338367595 eV   |
           -------------------------------------------------

 * finished run on 2025/08/22 at 09:23:42.331
