   * xtb version 6.7.1 (edcfbbe) compiled by 'albert@albert-system' on 2024-07-22

   ID    Z sym.   atoms
    1    6 C      1-9, 11-19, 21-34, 36-40, 42-53
    2    7 N      10, 20, 35, 41
    3    1 H      54-87

          program call               : xtb data2507/toluene/DPCN/DPCN_toluene_S0_crest.xyz --gfn 2 --gbsa toluene --ohess vtight --parallel 40 --molden --ceasefiles --namespace data2507/toluene/DPCN/DPCN_toluene_S0_finalOpt
      * Solvation model:               GBSA
        Solvent                        toluene
        Solvent mass                       9.2140E+01 g/mol
          :  Hamiltonian                  GFN2-xTB          :
 * total energy  :  -134.0605740 Eh     change       -0.1783519E-08 Eh
 * total energy  :  -134.0606102 Eh     change       -0.3621344E-04 Eh
 * total energy  :  -134.0606229 Eh     change       -0.1274218E-04 Eh
 * total energy  :  -134.0606290 Eh     change       -0.6117893E-05 Eh
 * total energy  :  -134.0606332 Eh     change       -0.4153173E-05 Eh
 * total energy  :  -134.0606363 Eh     change       -0.3123901E-05 Eh
 * total energy  :  -134.0606380 Eh     change       -0.1730720E-05 Eh
 * total energy  :  -134.0606397 Eh     change       -0.1688524E-05 Eh
 * total energy  :  -134.0606407 Eh     change       -0.9933574E-06 Eh
 * total energy  :  -134.0606418 Eh     change       -0.1043679E-05 Eh
 * total energy  :  -134.0606703 Eh     change       -0.2862962E-06 Eh
 * total energy  :  -134.0606706 Eh     change       -0.2884531E-06 Eh
 * total energy  :  -134.0606709 Eh     change       -0.3001586E-06 Eh
 * total energy  :  -134.0606713 Eh     change       -0.3447615E-06 Eh
 * total energy  :  -134.0606717 Eh     change       -0.3842020E-06 Eh
 * total energy  :  -134.0606721 Eh     change       -0.4629954E-06 Eh
 * total energy  :  -134.0606727 Eh     change       -0.5484696E-06 Eh
 * total energy  :  -134.0606734 Eh     change       -0.6890348E-06 Eh
 * total energy  :  -134.0606734 Eh     change       -0.1569703E-08 Eh
   *** GEOMETRY OPTIMIZATION CONVERGED AFTER 68 ITERATIONS ***

 final structure:
================
87
 xtb: 6.7.1 (edcfbbe)
C           10.18171289219612       -1.34307054936522        0.40478429620823
C            9.24603906280236       -0.18635815996258        0.00534677986953
C           10.07159327764505        1.04494917399287       -0.41320143826554
C            8.40094630442794       -0.62949691098014       -1.17493822491182
C            9.02163540557135       -1.00428178641112       -2.35881759538506
C            8.30425961465021       -1.41080076552433       -3.46935735030629
C            6.92275416604215       -1.44469278059829       -3.40614185322214
C            6.27983683676760       -1.07780741513066       -2.24246601830035
C            7.00335840964768       -0.67208083107321       -1.11660468965833
N            6.32753186974758       -0.30914389886920        0.03667615543126
C            4.90504877653946       -0.37264507437216        0.05351445034708
C            4.15212003099694        0.76386655568004       -0.21680131345456
C            2.77212780786162        0.70070298923938       -0.19404677737685
C            2.11865699038091       -0.49782668864092        0.08766717863938
C            0.65011298849852       -0.56456344004589        0.10510352956767
C           -0.02203865502145       -1.64548531155595       -0.46489176877411
C           -1.39955246195650       -1.70145951706583       -0.45847271377566
C           -2.15013733299167       -0.67640145983663        0.11979927768215
C           -3.59964983372289       -0.79407753092819        0.10754701057020
N           -4.22486685069166       -1.93385843591184        0.25460312990611
C           -5.55341455229087       -1.64505702572132        0.21256563035260
C           -6.64513016265685       -2.54495138794146        0.36778382657572
C           -6.43493727627895       -3.90944831865812        0.59604671464735
C           -7.50103591184857       -4.75425042696441        0.78077038862630
C           -8.79593768091819       -4.23984073519286        0.74262255206856
C           -9.01445344551740       -2.90153499068866        0.51157064551779
C           -7.95142715994894       -2.00720927287460        0.30888808528781
C           -8.14979434297406       -0.59593859329612        0.02470745086589
C           -9.43362161610431       -0.04861481479551       -0.11625878428233
C           -9.63334724083101        1.27378635029773       -0.43560187779770
C           -8.54353283842776        2.11150727213298       -0.65175612037854
C           -7.26973463377110        1.61763731542550       -0.51261734094628
C           -7.04358482816308        0.28139791680414       -0.15104151351683
C           -5.74543221156185       -0.27912226032784        0.01893028503273
N           -4.47729739802130        0.26280961488940       -0.03843894200013
C           -4.09782183252676        1.60735190336975       -0.19130118339970
C           -3.31795544819568        1.98343571819703       -1.28283423976117
C           -2.91005840535896        3.29459735219635       -1.42001189365955
C           -3.28120576276932        4.24112070371657       -0.46277260230193
C           -2.86537046767500        5.58482021943439       -0.60008319006519
N           -2.52836823258486        6.67614140307442       -0.71017865074432
C           -4.06316738831078        3.86414228758941        0.63234548998807
C           -4.46611567080264        2.55203536551338        0.76720855188797
C           -1.48065337235456        0.39001590417256        0.71836492269849
C           -0.10144496001625        0.44619379449895        0.70138371361934
C            2.88355851188017       -1.63257411006655        0.35270359163193
C            4.26363645518207       -1.57161510171001        0.34149755539963
C            6.99504804274788        0.10910133386384        1.17595282057158
C            6.26455616723878        0.45213475926076        2.31804591265752
C            6.89938767406820        0.87213246288271        3.46814001927613
C            8.27984331902719        0.95635678805517        3.50095030372619
C            9.00461546081151        0.61163957997858        2.37444950265384
C            8.39216993329141        0.18510559420335        1.20389703844637
H           10.81028468574688       -1.06124083901353        1.24501320338330
H            9.59402719391248       -2.21360095516328        0.69227339875462
H           10.82658674636005       -1.62326096172883       -0.42359532883916
H            9.40580294105642        1.86115355083699       -0.68926036558771
H           10.70670036391608        1.38113252762425        0.40176804049142
H           10.70477454872437        0.81592644016223       -1.26590178014392
H           10.09909483893376       -0.97990467938582       -2.42352872505437
H            8.82047156462647       -1.69591424968346       -4.37399171171339
H            6.34185223319125       -1.75534055327064       -4.26243020175243
H            5.20164606021198       -1.10306421327415       -2.20062479541915
H            4.65615759570009        1.69221300272855       -0.44294711515623
H            2.19380349523851        1.58473854436491       -0.41830400946843
H            0.54228187936779       -2.43682962532364       -0.93534037669513
H           -1.92041615000808       -2.53520013167577       -0.90371350321905
H           -5.41650366881393       -4.26551188808093        0.62844773305808
H           -7.34216787242687       -5.80751426126554        0.95950901226067
H           -9.63811171317498       -4.89935026020124        0.89546653590924
H          -10.03348235308813       -2.54959992618813        0.49245891087021
H          -10.30014148476117       -0.67538760098756        0.01757660802821
H          -10.63770189414744        1.65854610776128       -0.53446870564638
H           -8.69668298127841        3.14323692336759       -0.93197422515176
H           -6.42945170161437        2.26595525025503       -0.70244777606825
H           -3.03552754349255        1.24376297345779       -2.01641225092981
H           -2.30739864501430        3.59277599507523       -2.26438824793905
H           -4.34421683914711        4.60032487352057        1.37021504817224
H           -5.06828787948471        2.24819134099932        1.61069505788872
H           -2.03403371040763        1.16755694485646        1.22315763267191
H            0.40157947745758        1.27225578728588        1.18211311051102
H            2.39183504055956       -2.56359836418539        0.59207713714876
H            4.85415512098690       -2.45051927645579        0.55532310466482
H            5.18746993034376        0.38513615355805        2.30022375336547
H            6.31307826113264        1.13205313387071        4.33758687961768
H            8.78956024240378        1.28403617609639        4.39478564866213
H           10.08140886947453        0.67892154642145        2.41549351327572

          :  Hamiltonian                  GFN2-xTB          :
         :: gradient norm              0.000034435607 Eh/a0 ::
         :: HOMO-LUMO gap              1.432712835096 eV    ::
         :: SCC energy              -136.576622463489 Eh    ::
         :: -> dispersion             -0.124536673017 Eh    ::
         :: -> Gsolv                  -0.057878869006 Eh    ::
         :: repulsion energy           2.515949101353 Eh    ::

    * Orbital Energies and Occupations

         #    Occupation            Energy/Eh            Energy/eV
      -------------------------------------------------------------
         1        2.0000           -0.6971181             -18.9695
       ...           ...                  ...                  ...
       113        2.0000           -0.4165865             -11.3359
       114        2.0000           -0.4139929             -11.2653
       115        2.0000           -0.4087639             -11.1230
       116        2.0000           -0.4053274             -11.0295
       117        2.0000           -0.4047134             -11.0128
       118        2.0000           -0.4009854             -10.9114
       119        2.0000           -0.3959580             -10.7746
       120        2.0000           -0.3957676             -10.7694
       121        2.0000           -0.3904733             -10.6253
       122        2.0000           -0.3880962             -10.5606
       123        2.0000           -0.3865033             -10.5173
       124        2.0000           -0.3707027             -10.0873
       125        2.0000           -0.3436687              -9.3517 (HOMO)
       126                         -0.2910175              -7.9190 (LUMO)
       127                         -0.2697897              -7.3414
       128                         -0.2598052              -7.0697
       129                         -0.2544070              -6.9228
       130                         -0.2523342              -6.8664
       131                         -0.2343732              -6.3776
       132                         -0.2335032              -6.3539
       133                         -0.2308409              -6.2815
       134                         -0.2219939              -6.0408
       135                         -0.2219543              -6.0397
       136                         -0.2169946              -5.9047
       ...                                ...                  ...
       246                          1.1515157              31.3343
      -------------------------------------------------------------
                  HL-Gap            0.0526512 Eh            1.4327 eV

     #   Z          covCN         q      C6AA      α(0)
     1   6 C        3.761    -0.103    22.507     6.763
     2   6 C        3.908     0.021    20.168     6.383
     3   6 C        3.761    -0.103    22.506     6.763
     4   6 C        2.979    -0.015    28.386     8.739
     5   6 C        2.928    -0.038    28.949     8.824
     6   6 C        2.917    -0.047    29.178     8.858
     7   6 C        2.919    -0.035    28.882     8.813
     8   6 C        2.924    -0.061    29.506     8.908
     9   6 C        2.928     0.059    26.674     8.470
    10   7 N        2.754    -0.076    22.718     7.079
    11   6 C        2.927     0.068    26.471     8.437
    12   6 C        2.919    -0.038    28.947     8.823
    13   6 C        2.924    -0.033    28.816     8.803
    14   6 C        2.976     0.011    27.766     8.643
    15   6 C        2.977     0.014    27.689     8.631
    16   6 C        2.923    -0.032    28.786     8.798
    17   6 C        2.926    -0.028    28.699     8.785
    18   6 C        2.974    -0.003    28.106     8.696
    19   6 C        3.184     0.133    24.678     8.107
    20   7 N        1.894    -0.307    28.812     7.958
    21   6 C        3.203     0.060    26.092     8.322
    22   6 C        2.985    -0.002    28.069     8.691
    23   6 C        2.921    -0.033    28.815     8.803
    24   6 C        2.917    -0.031    28.767     8.795
    25   6 C        2.917    -0.033    28.821     8.804
    26   6 C        2.921    -0.036    28.891     8.814
    27   6 C        2.979    -0.003    28.105     8.696
    28   6 C        2.979     0.000    28.018     8.683
    29   6 C        2.922    -0.034    28.849     8.808
    30   6 C        2.916    -0.033    28.816     8.803
    31   6 C        2.917    -0.032    28.790     8.799
    32   6 C        2.919    -0.041    29.025     8.835
    33   6 C        2.978    -0.005    28.131     8.700
    34   6 C        3.068     0.020    27.495     8.598
    35   7 N        2.840    -0.051    22.220     7.001
    36   6 C        2.911     0.077    26.281     8.406
    37   6 C        2.920    -0.034    28.837     8.806
    38   6 C        2.926    -0.014    28.371     8.735
    39   6 C        2.973     0.020    27.567     8.612
    40   6 C        1.912     0.120    28.151     8.569
    41   7 N        0.911    -0.257    26.670     7.469
    42   6 C        2.925    -0.016    28.404     8.740
    43   6 C        2.920    -0.032    28.804     8.801
    44   6 C        2.920    -0.036    28.889     8.814
    45   6 C        2.923    -0.034    28.835     8.806
    46   6 C        2.924    -0.032    28.810     8.802
    47   6 C        2.920    -0.038    28.942     8.822
    48   6 C        2.928     0.059    26.673     8.470
    49   6 C        2.924    -0.061    29.506     8.908
    50   6 C        2.919    -0.035    28.883     8.813
    51   6 C        2.917    -0.047    29.178     8.858
    52   6 C        2.928    -0.038    28.949     8.824
    53   6 C        2.979    -0.015    28.386     8.739
    54   1 H        0.925     0.040     2.443     2.444
    55   1 H        0.925     0.029     2.598     2.521
    56   1 H        0.925     0.041     2.442     2.444
    57   1 H        0.925     0.029     2.599     2.521
    58   1 H        0.925     0.040     2.443     2.444
    59   1 H        0.925     0.040     2.443     2.444
    60   1 H        0.926     0.030     2.583     2.513
    61   1 H        0.926     0.024     2.678     2.559
    62   1 H        0.926     0.025     2.655     2.548
    63   1 H        0.926     0.024     2.673     2.557
    64   1 H        0.926     0.043     2.415     2.430
    65   1 H        0.926     0.044     2.396     2.421
    66   1 H        0.926     0.046     2.367     2.406
    67   1 H        0.926     0.048     2.339     2.392
    68   1 H        0.926     0.045     2.379     2.412
    69   1 H        0.926     0.034     2.525     2.485
    70   1 H        0.926     0.034     2.534     2.489
    71   1 H        0.926     0.036     2.496     2.471
    72   1 H        0.926     0.039     2.457     2.451
    73   1 H        0.926     0.035     2.522     2.483
    74   1 H        0.926     0.033     2.546     2.495
    75   1 H        0.926     0.027     2.628     2.535
    76   1 H        0.926     0.054     2.270     2.356
    77   1 H        0.926     0.058     2.218     2.329
    78   1 H        0.926     0.058     2.220     2.330
    79   1 H        0.926     0.057     2.230     2.335
    80   1 H        0.926     0.029     2.607     2.525
    81   1 H        0.926     0.042     2.424     2.435
    82   1 H        0.926     0.046     2.370     2.408
    83   1 H        0.926     0.043     2.410     2.427
    84   1 H        0.926     0.024     2.678     2.559
    85   1 H        0.926     0.025     2.659     2.550
    86   1 H        0.926     0.024     2.678     2.559
    87   1 H        0.926     0.030     2.583     2.513

molecular dipole:
                 x           y           z       tot (Debye)
 q only:       -0.394      -0.478      -0.016
   full:       -0.699      -0.511      -0.013       2.200

 projected vibrational frequencies (cm⁻¹)
eigval :       -0.00    -0.00     0.00     0.00     0.00     0.00
eigval :       -4.72     9.19    11.69    15.64    24.00    27.65
eigval :       33.64    39.60    45.42    52.06    67.23    69.99
eigval :       82.97    83.45    90.60    99.64   103.37   108.94
eigval :      119.63   121.45   128.79   131.92   174.18   179.35
eigval :      190.00   201.17   207.25   210.15   213.59   221.10
eigval :      235.82   254.65   260.21   266.49   275.72   304.88
eigval :      318.87   330.70   339.95   343.49   347.45   369.24
eigval :      372.76   378.70   380.57   381.92   394.13   399.98
eigval :      402.76   418.28   423.85   425.87   428.96   438.95
eigval :      452.63   464.84   471.47   490.70   501.32   513.44
eigval :      516.23   520.63   532.39   534.11   539.46   545.09
eigval :      547.83   557.68   578.48   582.67   585.36   594.43
eigval :      603.10   610.86   612.86   629.12   641.25   651.62
eigval :      662.75   670.35   673.69   679.94   683.10   689.06
eigval :      692.84   694.00   706.94   714.25   730.29   733.23
eigval :      762.55   765.50   774.39   779.76   780.01   783.72
eigval :      806.50   809.52   823.85   824.86   834.69   858.16
eigval :      865.55   865.97   868.54   871.34   873.65   877.22
eigval :      904.83   910.96   911.89   912.99   913.46   913.61
eigval :      915.06   917.78   919.06   921.92   921.95   923.94
eigval :      924.81   925.76   927.23   934.22   937.03   938.47
eigval :      956.53   959.64   991.80  1008.66  1014.19  1015.89
eigval :     1028.97  1066.25  1076.58  1078.58  1084.80  1085.74
eigval :     1107.38  1111.87  1118.50  1124.06  1129.81  1130.84
eigval :     1139.07  1141.09  1150.32  1157.61  1170.24  1170.48
eigval :     1176.57  1180.50  1184.13  1185.07  1185.99  1186.64
eigval :     1199.26  1203.59  1207.13  1227.75  1242.80  1248.60
eigval :     1252.47  1253.81  1256.70  1262.80  1266.44  1269.77
eigval :     1281.01  1282.60  1293.48  1303.85  1304.57  1308.66
eigval :     1316.89  1322.90  1324.56  1330.16  1335.06  1336.45
eigval :     1339.62  1344.94  1370.65  1389.71  1397.26  1399.77
eigval :     1405.74  1407.98  1416.52  1418.49  1427.40  1432.96
eigval :     1435.89  1440.92  1460.57  1477.36  1478.02  1487.03
eigval :     1487.69  1490.59  1496.79  1498.73  1503.10  1510.86
eigval :     1514.31  1540.42  1548.42  1554.54  1560.72  1564.86
eigval :     1568.69  1573.32  1580.31  1587.26  1589.90  1590.39
eigval :     1592.73  1598.41  1601.56  1603.16  2365.25  3018.94
eigval :     3021.53  3037.26  3039.25  3045.98  3050.03  3070.17
eigval :     3070.35  3071.38  3075.57  3077.27  3077.35  3078.79
eigval :     3080.80  3081.18  3081.97  3085.48  3085.69  3088.03
eigval :     3088.53  3089.87  3090.08  3092.61  3093.14  3093.58
eigval :     3097.00  3097.12  3098.06  3099.48  3100.04  3100.78
eigval :     3103.45  3111.24  3114.33

   temp. (K)  partition function   enthalpy   heat capacity  entropy
                                   cal/mol     cal/K/mol   cal/K/mol   J/K/mol
 298.15  VIB  0.334E+21            25283.144    158.439    158.819
         ROT  0.152E+09              888.752      2.981     40.424
         INT  0.509E+29            26171.897    161.420    199.244
         TR   0.171E+29             1481.254      4.968     45.406
         TOT                       27653.1505   166.3877   244.6499  1023.6154

       T/K    H(0)-H(T)+PV         H(T)/Eh          T*S/Eh         G(T)/Eh
   ------------------------------------------------------------------------
    298.15    0.440681E-01    0.716309E+00    0.116241E+00    0.600068E+00
   ------------------------------------------------------------------------

         :::::::::::::::::::::::::::::::::::::::::::::::::::::
         ::                  THERMODYNAMIC                  ::
         :::::::::::::::::::::::::::::::::::::::::::::::::::::
         :: total free energy        -133.460605548420 Eh   ::
         ::.................................................::
         :: total energy             -134.060673362450 Eh   ::
         :: zero point energy           0.672240796465 Eh   ::
         :: G(RRHO) w/o ZPVE           -0.072172982435 Eh   ::
         :: G(RRHO) contrib.            0.600067814030 Eh   ::
         :::::::::::::::::::::::::::::::::::::::::::::::::::::

           -------------------------------------------------
          | TOTAL ENERGY             -134.060673362450 Eh   |
          | TOTAL ENTHALPY           -133.344364465580 Eh   |
          | TOTAL FREE ENERGY        -133.460605548420 Eh   |
          | GRADIENT NORM               0.000034428526 Eh/α |
          | HOMO-LUMO GAP               1.432712911342 eV   |
           -------------------------------------------------

 * finished run on 2025/08/22 at 09:23:30.470
