   * xtb version 6.7.1 (edcfbbe) compiled by 'albert@albert-system' on 2024-07-22

   ID    Z sym.   atoms
    1    6 C      1-9, 11-19, 21-34, 36-40, 42-53
    2    7 N      10, 20, 35, 41
    3    1 H      54-87

          program call               : xtb data2507/toluene/DPCN/DPCN_toluene_T1_crest.xyz --gfn 2 --uhf 2 --gbsa toluene --ohess vtight --parallel 40 --molden --ceasefiles --namespace data2507/toluene/DPCN/DPCN_toluene_T1_finalOpt
      * Solvation model:               GBSA
        Solvent                        toluene
        Solvent mass                       9.2140E+01 g/mol
          :  Hamiltonian                  GFN2-xTB          :
 * total energy  :  -133.9820851 Eh     change       -0.7919925E-07 Eh
 * total energy  :  -133.9821809 Eh     change       -0.9580995E-04 Eh
 * total energy  :  -133.9821747 Eh     change        0.6202558E-05 Eh
 * total energy  :  -133.9822220 Eh     change       -0.4726906E-04 Eh
 * total energy  :  -133.9822312 Eh     change       -0.9227569E-05 Eh
 * total energy  :  -133.9822367 Eh     change       -0.5507978E-05 Eh
 * total energy  :  -133.9822430 Eh     change       -0.6304392E-05 Eh
 * total energy  :  -133.9822453 Eh     change       -0.2279648E-05 Eh
 * total energy  :  -133.9822476 Eh     change       -0.2292192E-05 Eh
 * total energy  :  -133.9822489 Eh     change       -0.1301680E-05 Eh
 * total energy  :  -133.9822625 Eh     change       -0.2105394E-06 Eh
 * total energy  :  -133.9822628 Eh     change       -0.2245645E-06 Eh
 * total energy  :  -133.9822630 Eh     change       -0.2601937E-06 Eh
 * total energy  :  -133.9822633 Eh     change       -0.2730347E-06 Eh
 * total energy  :  -133.9822635 Eh     change       -0.1779881E-06 Eh
 * total energy  :  -133.9822636 Eh     change       -0.1545632E-06 Eh
 * total energy  :  -133.9822638 Eh     change       -0.1493349E-06 Eh
 * total energy  :  -133.9822639 Eh     change       -0.1309756E-06 Eh
 * total energy  :  -133.9822640 Eh     change       -0.8397006E-07 Eh
   *** GEOMETRY OPTIMIZATION CONVERGED AFTER 40 ITERATIONS ***

 final structure:
================
87
 xtb: 6.7.1 (edcfbbe)
C           10.19091747612003       -1.19283957291385        0.83992135964012
C            9.29643351347121       -0.19644277972751        0.07604107607431
C           10.16594748094579        0.83615565030220       -0.66824392015431
C            8.47584458645074       -0.95687263084279       -0.94344032265265
C            9.12053639954028       -1.66988549225731       -1.94585734125536
C            8.42322529906323       -2.34580165503562       -2.92987606850953
C            7.03786723774159       -2.29470385736591       -2.93910034751898
C            6.37139641817390       -1.59892587701373       -1.95554732752748
C            7.07271222140460       -0.94661341434169       -0.93081966941976
N            6.37427635496556       -0.27046520272848        0.05393616996578
C            4.95807987123261       -0.32133422909192        0.05106534675399
C            4.20793188189898        0.82281487993485       -0.22780848948606
C            2.83457728619412        0.76802123762030       -0.23369428015464
C            2.14518408010415       -0.42721397104389        0.04819011600628
C            0.70275069453776       -0.47894670653605        0.04776854430193
C            0.00113212152505       -1.67616934093041       -0.22551866108698
C           -1.36120423387905       -1.71589463856616       -0.24476315160433
C           -2.14311249419720       -0.55456095299745        0.00024311579247
C           -3.54818758833730       -0.69259187080903       -0.03036898802301
N           -4.13597797610291       -1.89218814105190        0.09122640901027
C           -5.44509069523676       -1.66846076976183        0.17667525748286
C           -6.47468623037646       -2.62779526685278        0.40306718248851
C           -6.16725209002299       -3.97566319872609        0.61024644868160
C           -7.16503885021045       -4.88475714072840        0.88015540636642
C           -8.48211311397363       -4.44511498242880        0.95493337566382
C           -8.79680109001594       -3.11810593464229        0.74372947242287
C           -7.81065445996299       -2.16776975399052        0.44857234744948
C           -8.11306194860991       -0.77253442919575        0.16646188748923
C           -9.43096795676676       -0.31916848973024        0.07195335690654
C           -9.74020339601252        0.98538601714099       -0.25243859660394
C           -8.71957894222451        1.89288672845302       -0.52692003826811
C           -7.41091866911825        1.49451027611143       -0.43577551522425
C           -7.06601707403622        0.17767005150475       -0.06287910439421
C           -5.73694068701616       -0.28364683888435        0.04440921029946
N           -4.50996521359967        0.33179752372776       -0.08189528464089
C           -4.23906569762393        1.68569092961274       -0.27678986376717
C           -3.46337436720170        2.09581172971019       -1.37291086117917
C           -3.18276235096138        3.42492674552929       -1.56528215043107
C           -3.65953173539773        4.38876447911953       -0.65805836422316
C           -3.36852282024483        5.74419057840082       -0.84899415155824
N           -3.12720037572816        6.86173115358506       -1.00554738551798
C           -4.43000637694217        3.97590870239152        0.44506381572171
C           -4.71730112887992        2.64663218576738        0.62841309279816
C           -1.44108881853011        0.63295814743439        0.32677665907866
C           -0.07533287504791        0.66213631764969        0.34158757336330
C            2.92162020428210       -1.56764760664527        0.33017514500239
C            4.29499248077016       -1.51878896172788        0.32744249949458
C            7.02189319511661        0.44774538966251        1.04366786718185
C            6.27342134769814        1.07132833249294        2.05274959321659
C            6.88917812329994        1.80638147961357        3.04084597626926
C            8.27038918778008        1.92465017325662        3.05340340822071
C            9.01546408730351        1.27761889951586        2.08515929944377
C            8.42256657144910        0.52872464959907        1.07696321557524
H           10.81013948176511       -0.67667895851054        1.56748562994472
H            9.57406398286984       -1.91895298917751        1.36635139592453
H           10.84308475391675       -1.72760928890550        0.15581217832647
H            9.53131531137740        1.53644346232390       -1.20831846794591
H           10.78068246704942        1.39709357060976        0.02933506190347
H           10.82201065563787        0.34668452631331       -1.38176172695412
H           10.19869649926592       -1.69906359385472       -1.96607646083609
H            8.95591758345267       -2.89360553445328       -3.69206056172308
H            6.47667278385723       -2.79197765916835       -3.71570416768252
H            5.29476695850669       -1.54733741107940       -1.98024956410611
H            4.71852924257152        1.74623350871577       -0.46030892254474
H            2.27734709214302        1.65358472195548       -0.49691315609718
H            0.55413313686846       -2.57184874694633       -0.46485312524354
H           -1.88760598476094       -2.63005798168736       -0.47056326835419
H           -5.13013496969657       -4.26995880414375        0.56023794229308
H           -6.92905312555328       -5.92611893410535        1.04066067010549
H           -9.27104255700625       -5.14801195922864        1.18055431754672
H           -9.83167695882359       -2.82476580476312        0.81790402521236
H          -10.24611852522423       -1.00396910751312        0.24110216119835
H          -10.77239461227959        1.29625956966748       -0.31297281528191
H           -8.95588448885778        2.90603475966263       -0.81763839301328
H           -6.62903888216576        2.19496913764058       -0.67811301432095
H           -3.09834922332190        1.35301285806696       -2.06663137648239
H           -2.59956327960455        3.74377137697451       -2.41675237027722
H           -4.78527527490438        4.71489207977404        1.14837614055923
H           -5.30208651306798        2.32526039079718        1.47829673779770
H           -1.98588804523843        1.51547017543170        0.62219748463305
H            0.41779788252283        1.57760877302036        0.63377622705035
H            2.43231686061045       -2.49238143143400        0.59237983088346
H            4.87353472017396       -2.40113586228326        0.55985019092691
H            5.20032847547072        0.96756001223659        2.06163239392156
H            6.29182756496910        2.28129379255515        3.80442549259721
H            8.76328934572385        2.50253868646090        3.82011719441169
H           10.09050374154467        1.35866503797578        2.12292769777199

          :  Hamiltonian                  GFN2-xTB          :
         :: gradient norm              0.000060159127 Eh/a0 ::
         :: HOMO-LUMO gap              0.397964578013 eV    ::
         :: SCC energy              -136.477440518982 Eh    ::
         :: -> dispersion             -0.124499039079 Eh    ::
         :: -> Gsolv                  -0.062675403160 Eh    ::
         :: repulsion energy           2.495176517702 Eh    ::

    * Orbital Energies and Occupations

         #    Occupation            Energy/Eh            Energy/eV
      -------------------------------------------------------------
         1        2.0000           -0.6864883             -18.6803
       ...           ...                  ...                  ...
       114        2.0000           -0.4146752             -11.2839
       115        2.0000           -0.4128788             -11.2350
       116        2.0000           -0.4109208             -11.1817
       117        2.0000           -0.4092706             -11.1368
       118        2.0000           -0.4066278             -11.0649
       119        2.0000           -0.4056733             -11.0389
       120        2.0000           -0.3971722             -10.8076
       121        2.0000           -0.3906761             -10.6308
       122        2.0000           -0.3854972             -10.4899
       123        2.0000           -0.3803447             -10.3497
       124        1.9323           -0.3635959              -9.8939
       125        1.0677           -0.3586135              -9.7584
       126        0.9995           -0.2813234              -7.6552 (HOMO)
       127        0.0005           -0.2666988              -7.2572 (LUMO)
       128                         -0.2530063              -6.8847
       129                         -0.2518499              -6.8532
       130                         -0.2403116              -6.5392
       131                         -0.2363317              -6.4309
       132                         -0.2337334              -6.3602
       133                         -0.2332620              -6.3474
       134                         -0.2311204              -6.2891
       135                         -0.2296855              -6.2501
       136                         -0.2178514              -5.9280
       137                         -0.2094890              -5.7005
       ...                                ...                  ...
       246                          1.1612917              31.6004
      -------------------------------------------------------------
                  HL-Gap            0.0146246 Eh            0.3980 eV

     #   Z          covCN         q      C6AA      α(0)
     1   6 C        3.761    -0.107    22.585     6.775
     2   6 C        3.909     0.024    20.116     6.375
     3   6 C        3.761    -0.107    22.587     6.775
     4   6 C        2.979    -0.003    28.095     8.694
     5   6 C        2.926    -0.033    28.831     8.806
     6   6 C        2.917    -0.034    28.835     8.806
     7   6 C        2.918    -0.029    28.723     8.789
     8   6 C        2.923    -0.050    29.232     8.866
     9   6 C        2.928     0.059    26.669     8.469
    10   7 N        2.753    -0.024    21.702     6.919
    11   6 C        2.928     0.051    26.857     8.499
    12   6 C        2.916    -0.038    28.957     8.824
    13   6 C        2.923    -0.036    28.891     8.815
    14   6 C        2.971     0.010    27.780     8.646
    15   6 C        2.972     0.002    27.982     8.677
    16   6 C        2.916    -0.037    28.913     8.818
    17   6 C        2.923    -0.034    28.855     8.809
    18   6 C        2.969    -0.011    28.275     8.722
    19   6 C        3.150     0.128    24.951     8.171
    20   7 N        1.883    -0.319    29.122     8.000
    21   6 C        3.174     0.078    25.878     8.309
    22   6 C        2.984    -0.005    28.143     8.702
    23   6 C        2.922    -0.029    28.717     8.788
    24   6 C        2.916    -0.031    28.784     8.798
    25   6 C        2.917    -0.029    28.731     8.790
    26   6 C        2.922    -0.035    28.876     8.812
    27   6 C        2.978    -0.001    28.043     8.687
    28   6 C        2.977    -0.003    28.087     8.693
    29   6 C        2.921    -0.034    28.839     8.806
    30   6 C        2.916    -0.034    28.840     8.806
    31   6 C        2.915    -0.032    28.791     8.799
    32   6 C        2.918    -0.040    28.985     8.829
    33   6 C        2.974    -0.009    28.239     8.717
    34   6 C        3.041     0.031    27.274     8.566
    35   7 N        2.816    -0.060    22.392     7.028
    36   6 C        2.908     0.056    26.738     8.479
    37   6 C        2.917    -0.041    29.025     8.835
    38   6 C        2.923    -0.026    28.643     8.777
    39   6 C        2.970    -0.006    28.161     8.705
    40   6 C        1.911     0.107    28.442     8.613
    41   7 N        0.911    -0.317    28.141     7.672
    42   6 C        2.922    -0.027    28.681     8.782
    43   6 C        2.916    -0.042    29.042     8.837
    44   6 C        2.913    -0.042    29.032     8.835
    45   6 C        2.918    -0.036    28.896     8.815
    46   6 C        2.922    -0.036    28.891     8.814
    47   6 C        2.916    -0.038    28.956     8.824
    48   6 C        2.928     0.059    26.668     8.469
    49   6 C        2.923    -0.050    29.236     8.867
    50   6 C        2.918    -0.029    28.724     8.789
    51   6 C        2.917    -0.034    28.836     8.806
    52   6 C        2.926    -0.033    28.831     8.806
    53   6 C        2.979    -0.003    28.095     8.695
    54   1 H        0.925     0.049     2.329     2.386
    55   1 H        0.925     0.036     2.503     2.474
    56   1 H        0.925     0.050     2.323     2.384
    57   1 H        0.925     0.036     2.507     2.476
    58   1 H        0.925     0.050     2.326     2.385
    59   1 H        0.925     0.049     2.327     2.385
    60   1 H        0.926     0.047     2.363     2.404
    61   1 H        0.926     0.040     2.445     2.445
    62   1 H        0.926     0.040     2.452     2.448
    63   1 H        0.926     0.042     2.424     2.435
    64   1 H        0.926     0.042     2.420     2.432
    65   1 H        0.926     0.041     2.436     2.440
    66   1 H        0.926     0.039     2.467     2.456
    67   1 H        0.926     0.046     2.373     2.409
    68   1 H        0.926     0.048     2.345     2.395
    69   1 H        0.926     0.038     2.476     2.460
    70   1 H        0.926     0.038     2.473     2.459
    71   1 H        0.926     0.039     2.460     2.453
    72   1 H        0.926     0.040     2.449     2.447
    73   1 H        0.926     0.035     2.521     2.483
    74   1 H        0.926     0.031     2.571     2.508
    75   1 H        0.926     0.029     2.597     2.520
    76   1 H        0.926     0.035     2.522     2.483
    77   1 H        0.926     0.035     2.517     2.481
    78   1 H        0.926     0.034     2.528     2.486
    79   1 H        0.926     0.037     2.493     2.469
    80   1 H        0.926     0.021     2.719     2.578
    81   1 H        0.926     0.032     2.553     2.499
    82   1 H        0.926     0.045     2.386     2.416
    83   1 H        0.926     0.044     2.402     2.424
    84   1 H        0.926     0.041     2.429     2.437
    85   1 H        0.926     0.039     2.460     2.453
    86   1 H        0.926     0.040     2.449     2.447
    87   1 H        0.926     0.047     2.362     2.403

molecular dipole:
                 x           y           z       tot (Debye)
 q only:        5.734      -2.730       0.447
   full:        5.316      -2.706       0.480      15.210

 projected vibrational frequencies (cm⁻¹)
eigval :       -0.00    -0.00    -0.00    -0.00     0.00     0.00
eigval :        3.46    10.15    12.95    17.10    20.31    30.81
eigval :       37.22    49.81    52.30    55.92    66.27    71.60
eigval :       85.47    89.27    92.39   100.10   107.99   113.84
eigval :      119.05   124.35   126.62   138.48   174.08   181.28
eigval :      189.28   201.03   203.59   209.11   218.71   221.06
eigval :      237.28   258.60   262.29   264.50   275.81   303.63
eigval :      319.04   327.13   332.69   340.95   345.86   370.21
eigval :      374.40   379.09   381.94   382.43   389.65   392.91
eigval :      402.01   409.42   415.24   416.75   425.98   437.77
eigval :      442.19   450.42   466.22   472.54   500.60   503.91
eigval :      507.79   511.38   520.62   523.88   528.31   533.71
eigval :      542.13   556.14   574.73   579.21   582.53   590.35
eigval :      594.89   604.00   610.43   619.44   624.87   637.90
eigval :      656.53   660.78   665.72   668.88   672.89   674.91
eigval :      687.02   692.00   700.85   701.36   725.57   730.18
eigval :      755.44   759.08   773.14   774.04   774.59   776.48
eigval :      795.18   798.49   809.05   818.56   826.37   833.56
eigval :      845.95   847.36   852.55   865.65   869.48   870.59
eigval :      896.56   903.85   904.92   906.33   910.57   912.59
eigval :      913.10   914.68   914.88   915.71   916.45   919.98
eigval :      920.82   921.37   922.62   923.01   924.88   936.84
eigval :      940.81   958.65   965.92   994.63   998.70  1007.21
eigval :     1012.71  1049.27  1057.11  1073.96  1083.40  1083.64
eigval :     1098.64  1104.14  1107.71  1112.97  1128.91  1132.47
eigval :     1136.31  1137.67  1148.56  1149.64  1157.45  1166.22
eigval :     1171.62  1178.42  1180.28  1182.20  1183.00  1183.40
eigval :     1194.99  1201.05  1209.48  1232.64  1238.12  1242.01
eigval :     1245.19  1248.93  1252.41  1257.41  1258.03  1263.02
eigval :     1272.78  1283.83  1286.20  1292.59  1302.36  1304.85
eigval :     1313.09  1315.69  1323.87  1326.81  1329.19  1332.63
eigval :     1333.73  1334.82  1364.31  1380.73  1392.38  1398.32
eigval :     1407.98  1413.76  1416.72  1419.35  1419.47  1421.72
eigval :     1428.14  1432.76  1439.67  1448.08  1454.62  1456.84
eigval :     1460.00  1464.72  1471.37  1475.30  1481.60  1482.17
eigval :     1483.07  1493.44  1496.43  1501.83  1515.61  1530.20
eigval :     1539.74  1547.40  1554.40  1564.83  1567.38  1577.93
eigval :     1578.24  1580.88  1587.11  1591.14  2290.44  3026.53
eigval :     3028.55  3047.01  3048.92  3054.67  3058.57  3073.31
eigval :     3075.25  3076.34  3076.61  3078.99  3079.23  3080.32
eigval :     3083.11  3083.56  3083.85  3084.79  3086.30  3088.16
eigval :     3090.18  3090.82  3091.07  3097.71  3098.89  3100.13
eigval :     3100.39  3101.37  3101.71  3103.88  3106.43  3109.52
eigval :     3110.38  3110.85  3122.78

   temp. (K)  partition function   enthalpy   heat capacity  entropy
                                   cal/mol     cal/K/mol   cal/K/mol   J/K/mol
 298.15  VIB  0.214E+21            25421.554    160.582    159.397
         ROT  0.157E+09              888.752      2.981     40.481
         INT  0.335E+29            26310.306    163.563    199.878
         TR   0.171E+29             1481.254      4.968     45.406
         TOT                       27791.5599   168.5309   245.2842  1026.2689

       T/K    H(0)-H(T)+PV         H(T)/Eh          T*S/Eh         G(T)/Eh
   ------------------------------------------------------------------------
    298.15    0.442887E-01    0.712863E+00    0.116542E+00    0.596321E+00
   ------------------------------------------------------------------------

         :::::::::::::::::::::::::::::::::::::::::::::::::::::
         ::                  THERMODYNAMIC                  ::
         :::::::::::::::::::::::::::::::::::::::::::::::::::::
         :: total free energy        -133.385943008591 Eh   ::
         ::.................................................::
         :: total energy             -133.982263996918 Eh   ::
         :: zero point energy           0.668574736922 Eh   ::
         :: G(RRHO) w/o ZPVE           -0.072253748595 Eh   ::
         :: G(RRHO) contrib.            0.596320988327 Eh   ::
         :::::::::::::::::::::::::::::::::::::::::::::::::::::

           -------------------------------------------------
          | TOTAL ENERGY             -133.982263996918 Eh   |
          | TOTAL ENTHALPY           -133.269400590167 Eh   |
          | TOTAL FREE ENERGY        -133.385943008591 Eh   |
          | GRADIENT NORM               0.000059322030 Eh/α |
          | HOMO-LUMO GAP               0.397956600514 eV   |
           -------------------------------------------------

 * finished run on 2025/08/22 at 09:30:07.363
