   * xtb version 6.7.1 (edcfbbe) compiled by 'albert@albert-system' on 2024-07-22

   ID    Z sym.   atoms
    1    6 C      1-9, 11-19, 21-34, 36-40, 42-53
    2    7 N      10, 20, 35, 41
    3    1 H      54-87

          program call               : xtb data2507/toluene/DPCN/DPCN.xyz --gfn 2 --gbsa toluene --ohess vtight --parallel 40 --molden --ceasefiles --namespace data2507/toluene/DPCN/DPCN_toluene_S0_preOpt
      * Solvation model:               GBSA
        Solvent                        toluene
        Solvent mass                       9.2140E+01 g/mol
          :  Hamiltonian                  GFN2-xTB          :
 * total energy  :  -134.0341157 Eh     change       -0.2754234E-08 Eh
 * total energy  :  -134.0505804 Eh     change       -0.1646475E-01 Eh
 * total energy  :  -134.0554142 Eh     change       -0.4833832E-02 Eh
 * total energy  :  -134.0565638 Eh     change       -0.1149607E-02 Eh
 * total energy  :  -134.0574283 Eh     change       -0.8644182E-03 Eh
 * total energy  :  -134.0578632 Eh     change       -0.4349048E-03 Eh
 * total energy  :  -134.0581176 Eh     change       -0.2544469E-03 Eh
 * total energy  :  -134.0583013 Eh     change       -0.1836557E-03 Eh
 * total energy  :  -134.0584153 Eh     change       -0.1140761E-03 Eh
 * total energy  :  -134.0585580 Eh     change       -0.1426675E-03 Eh
 * total energy  :  -134.0605589 Eh     change       -0.1512462E-05 Eh
 * total energy  :  -134.0605602 Eh     change       -0.1325534E-05 Eh
 * total energy  :  -134.0605613 Eh     change       -0.1015921E-05 Eh
 * total energy  :  -134.0605622 Eh     change       -0.9737546E-06 Eh
 * total energy  :  -134.0605632 Eh     change       -0.1015896E-05 Eh
 * total energy  :  -134.0605644 Eh     change       -0.1181723E-05 Eh
 * total energy  :  -134.0605659 Eh     change       -0.1459853E-05 Eh
 * total energy  :  -134.0605674 Eh     change       -0.1486532E-05 Eh
 * total energy  :  -134.0605674 Eh     change       -0.4633705E-08 Eh
   *** GEOMETRY OPTIMIZATION CONVERGED AFTER 185 ITERATIONS ***

 final structure:
================
87
 xtb: 6.7.1 (edcfbbe)
C            9.54817652295034        0.06994445718017        1.27333356019665
C            8.69237642444950       -0.04324392786627       -0.00248220105675
C            9.59696812908200       -0.05268428880537       -1.24942458887486
C            7.91671867935782       -1.34702479583134        0.04443703729250
C            8.60475650302297       -2.55108433418541        0.10805012682435
C            7.95260194790263       -3.77038818228615        0.14260849997423
C            6.56994002531819       -3.79869336327878        0.10679397990653
C            5.86090504613230       -2.61731613293039        0.04549182308017
C            6.51797068230125       -1.38315995410021        0.02038291848670
N            5.77636063613530       -0.21475427604143       -0.03694457539475
C            4.35470148926857       -0.29712405357164       -0.03146893131724
C            3.64830802325959       -0.27622285328458       -1.22825634461309
C            2.26857593728097       -0.34740173537583       -1.21864979936060
C            1.56917718750668       -0.44986986942246       -0.01733883015041
C            0.10091695634060       -0.52518576454684       -0.00774178079105
C           -0.56196156558639       -1.42137676687064        0.83028860708423
C           -1.93927484334643       -1.48802166030616        0.84225333644598
C           -2.69746386751433       -0.64578918079660        0.02808023782347
C           -4.14740756200278       -0.75565854065998        0.07606695204732
N           -4.77864234588640       -1.89644488020207        0.17853014370686
C           -6.10577321051597       -1.59626610826698        0.16459164121265
C           -7.20338161610577       -2.50111880743361        0.20856905915078
C           -7.00242180318710       -3.88472281593427        0.26663151418664
C           -8.07461668642125       -4.74188084702650        0.26816699071387
C           -9.36633879069311       -4.22177381342412        0.20626854810825
C           -9.57580619588453       -2.86318560798124        0.15626482674544
C           -8.50632469330962       -1.95376636373705        0.16508342023965
C           -8.69479091844268       -0.51289487005328        0.15565801400823
C           -9.97389006939193        0.06058340059694        0.20589376193969
C          -10.16324183590302        1.42176346068229        0.24953864866817
C           -9.06692410070048        2.27853485611401        0.26399495463733
C           -7.79756573148775        1.75778074648493        0.20628319819461
C           -7.58259874544465        0.37390082579225        0.12850898153114
C           -6.28928785761158       -0.21900665970683        0.06546960157789
N           -5.01787554252914        0.31388631353001       -0.00204761015595
C           -4.62476148161359        1.65642884215869       -0.13606999952306
C           -4.99167895607576        2.38499274740731       -1.26789928936861
C           -4.57331009822871        3.69130534876364       -1.41222108872100
C           -3.77729723272345        4.27811313583488       -0.42488545595459
C           -3.34609094237557        5.61581618445090       -0.57209575198864
N           -2.99762663335747        6.70242379752806       -0.69262134772097
C           -3.40719376806683        3.54726527760221        0.70590234928954
C           -3.83030014280599        2.24146609559530        0.84747250444635
C           -2.03810604574444        0.23657327347543       -0.82612241300784
C           -0.65886352826542        0.29265792180525       -0.84186737266223
C            2.28789115465959       -0.47788944942407        1.17656760233935
C            3.66707510428377       -0.39689576143982        1.17229611989047
C            6.37699116010676        1.03227588054996       -0.08949427428607
C            5.58111275134490        2.18070843610658       -0.14716823710658
C            6.14847715998930        3.43661361940556       -0.20159749657960
C            7.52530142791397        3.57063933793397       -0.19673054037583
C            8.31433437084339        2.43634939960110       -0.13339946729112
C            7.77054253937972        1.16027278807262       -0.07813646677168
H           10.23541802533325       -0.76776917879904        1.35447848070689
H           10.12931675582939        0.98801601303635        1.27004989806657
H            8.90587398138430        0.07357565921252        2.15260388524076
H            8.98859538242106       -0.13419311461605       -2.14886413070819
H           10.18050166524811        0.86167929317872       -1.31203525199649
H           10.28444972488482       -0.89363022634671       -1.22358315850263
H            9.68420069041475       -2.54479594103618        0.13124600959618
H            8.52014639572562       -4.68770293749077        0.19281921958601
H            6.03971226854813       -4.73984401790521        0.12595945128805
H            4.78240773771258       -2.64568023065208        0.01415693779617
H            4.18786169292224       -0.20359490838782       -2.16130502468587
H            1.72746525567537       -0.34576850826876       -2.15312985522451
H            0.01069596766219       -2.08456686434885        1.46143624488762
H           -2.45282577395026       -2.18959493749249        1.48173521027473
H           -5.98621273420514       -4.24691434156345        0.30096079727619
H           -7.92284311141519       -5.81037836493861        0.31075086874783
H          -10.21314500531625       -4.89288516690549        0.19720827012430
H          -10.59253235335166       -2.50770279119542        0.10548181233710
H          -10.84465263261901       -0.57432653011782        0.22314668826737
H          -11.16422628608324        1.82558170532778        0.28813713475129
H           -9.21157195066126        3.34702548260383        0.32575783077440
H           -6.95168923685560        2.42551768845069        0.24000071142437
H           -5.60418697664536        1.91870913156376       -2.02552033646706
H           -4.85272959943294        4.26120428100397       -2.28549193125077
H           -2.79387530904580        4.00815945986935        1.46521470919884
H           -3.55029391716127        1.66706476470927        1.71737740155032
H           -2.60092339997746        0.86620564358512       -1.49894651191525
H           -0.16358203157156        0.99142850589048       -1.49979156027697
H            1.75962991104879       -0.54040631909010        2.11625361749046
H            4.22088411562905       -0.41048768639407        2.09964815201146
H            4.50619001567726        2.08331429352252       -0.14796843918583
H            5.51247041190275        4.30882129352712       -0.24677710592165
H            7.98283551695025        4.54779915636599       -0.23943282079740
H            9.38727075572036        2.55668821181618       -0.12639130105615

          :  Hamiltonian                  GFN2-xTB          :
         :: gradient norm              0.000057823111 Eh/a0 ::
         :: HOMO-LUMO gap              1.437801246202 eV    ::
         :: SCC energy              -136.576702668346 Eh    ::
         :: -> dispersion             -0.124439412334 Eh    ::
         :: -> Gsolv                  -0.057983140729 Eh    ::
         :: repulsion energy           2.516135288382 Eh    ::

    * Orbital Energies and Occupations

         #    Occupation            Energy/Eh            Energy/eV
      -------------------------------------------------------------
         1        2.0000           -0.6971726             -18.9710
       ...           ...                  ...                  ...
       113        2.0000           -0.4166846             -11.3386
       114        2.0000           -0.4139738             -11.2648
       115        2.0000           -0.4087503             -11.1227
       116        2.0000           -0.4054928             -11.0340
       117        2.0000           -0.4046847             -11.0120
       118        2.0000           -0.4009395             -10.9101
       119        2.0000           -0.3960170             -10.7762
       120        2.0000           -0.3957192             -10.7681
       121        2.0000           -0.3904288             -10.6241
       122        2.0000           -0.3880484             -10.5593
       123        2.0000           -0.3864806             -10.5167
       124        2.0000           -0.3707521             -10.0887
       125        2.0000           -0.3436406              -9.3509 (HOMO)
       126                         -0.2908024              -7.9131 (LUMO)
       127                         -0.2692911              -7.3278
       128                         -0.2596607              -7.0657
       129                         -0.2543410              -6.9210
       130                         -0.2522738              -6.8647
       131                         -0.2344383              -6.3794
       132                         -0.2338195              -6.3626
       133                         -0.2305506              -6.2736
       134                         -0.2219038              -6.0383
       135                         -0.2218162              -6.0359
       136                         -0.2169541              -5.9036
       ...                                ...                  ...
       246                          1.1517787              31.3415
      -------------------------------------------------------------
                  HL-Gap            0.0528382 Eh            1.4378 eV

     #   Z          covCN         q      C6AA      α(0)
     1   6 C        3.761    -0.103    22.505     6.763
     2   6 C        3.908     0.021    20.168     6.383
     3   6 C        3.761    -0.103    22.508     6.763
     4   6 C        2.979    -0.015    28.386     8.739
     5   6 C        2.928    -0.038    28.949     8.824
     6   6 C        2.917    -0.047    29.178     8.858
     7   6 C        2.919    -0.035    28.881     8.813
     8   6 C        2.924    -0.060    29.504     8.908
     9   6 C        2.928     0.059    26.674     8.470
    10   7 N        2.754    -0.076    22.718     7.079
    11   6 C        2.927     0.068    26.471     8.437
    12   6 C        2.919    -0.038    28.944     8.822
    13   6 C        2.924    -0.033    28.813     8.803
    14   6 C        2.976     0.011    27.766     8.643
    15   6 C        2.977     0.014    27.687     8.631
    16   6 C        2.923    -0.031    28.784     8.798
    17   6 C        2.925    -0.028    28.698     8.785
    18   6 C        2.974    -0.003    28.104     8.696
    19   6 C        3.186     0.134    24.664     8.104
    20   7 N        1.894    -0.307    28.817     7.958
    21   6 C        3.204     0.060    26.085     8.319
    22   6 C        2.985    -0.002    28.068     8.690
    23   6 C        2.921    -0.033    28.816     8.803
    24   6 C        2.917    -0.031    28.768     8.795
    25   6 C        2.917    -0.033    28.822     8.804
    26   6 C        2.921    -0.036    28.891     8.814
    27   6 C        2.979    -0.003    28.106     8.696
    28   6 C        2.979     0.000    28.019     8.683
    29   6 C        2.922    -0.034    28.849     8.808
    30   6 C        2.916    -0.033    28.817     8.803
    31   6 C        2.917    -0.032    28.790     8.799
    32   6 C        2.919    -0.041    29.024     8.835
    33   6 C        2.978    -0.004    28.130     8.700
    34   6 C        3.068     0.020    27.498     8.598
    35   7 N        2.840    -0.051    22.219     7.001
    36   6 C        2.911     0.077    26.284     8.407
    37   6 C        2.920    -0.032    28.805     8.801
    38   6 C        2.925    -0.016    28.404     8.740
    39   6 C        2.973     0.020    27.566     8.612
    40   6 C        1.912     0.120    28.150     8.569
    41   7 N        0.911    -0.257    26.671     7.469
    42   6 C        2.926    -0.014    28.369     8.735
    43   6 C        2.920    -0.034    28.839     8.806
    44   6 C        2.920    -0.035    28.881     8.813
    45   6 C        2.923    -0.033    28.834     8.806
    46   6 C        2.924    -0.033    28.815     8.803
    47   6 C        2.920    -0.038    28.945     8.823
    48   6 C        2.928     0.059    26.674     8.470
    49   6 C        2.924    -0.061    29.508     8.908
    50   6 C        2.919    -0.035    28.882     8.813
    51   6 C        2.917    -0.047    29.178     8.858
    52   6 C        2.928    -0.038    28.949     8.824
    53   6 C        2.979    -0.015    28.386     8.739
    54   1 H        0.925     0.041     2.442     2.444
    55   1 H        0.925     0.040     2.443     2.444
    56   1 H        0.925     0.029     2.598     2.521
    57   1 H        0.925     0.029     2.600     2.521
    58   1 H        0.925     0.040     2.442     2.444
    59   1 H        0.925     0.040     2.443     2.444
    60   1 H        0.926     0.030     2.583     2.513
    61   1 H        0.926     0.024     2.677     2.559
    62   1 H        0.926     0.025     2.654     2.547
    63   1 H        0.926     0.024     2.673     2.557
    64   1 H        0.926     0.043     2.413     2.429
    65   1 H        0.926     0.044     2.391     2.418
    66   1 H        0.926     0.046     2.367     2.406
    67   1 H        0.926     0.048     2.348     2.396
    68   1 H        0.926     0.045     2.379     2.412
    69   1 H        0.926     0.034     2.526     2.485
    70   1 H        0.926     0.034     2.534     2.489
    71   1 H        0.926     0.036     2.496     2.471
    72   1 H        0.926     0.039     2.457     2.451
    73   1 H        0.926     0.035     2.522     2.484
    74   1 H        0.926     0.033     2.546     2.495
    75   1 H        0.926     0.027     2.628     2.535
    76   1 H        0.926     0.058     2.228     2.334
    77   1 H        0.926     0.058     2.218     2.329
    78   1 H        0.926     0.058     2.219     2.330
    79   1 H        0.926     0.054     2.272     2.357
    80   1 H        0.926     0.029     2.606     2.525
    81   1 H        0.926     0.042     2.419     2.432
    82   1 H        0.926     0.046     2.375     2.410
    83   1 H        0.926     0.043     2.411     2.428
    84   1 H        0.926     0.024     2.678     2.559
    85   1 H        0.926     0.025     2.658     2.550
    86   1 H        0.926     0.024     2.678     2.559
    87   1 H        0.926     0.030     2.583     2.513

molecular dipole:
                 x           y           z       tot (Debye)
 q only:       -0.390      -0.448       0.120
   full:       -0.693      -0.480       0.125       2.165

 projected vibrational frequencies (cm⁻¹)
eigval :       -0.00    -0.00    -0.00    -0.00    -0.00     0.00
eigval :        8.43     9.07    13.70    18.49    23.00    25.95
eigval :       37.23    40.17    46.80    55.81    69.33    72.63
eigval :       81.86    86.17    89.15    94.46    99.40   104.46
eigval :      120.95   124.07   137.99   139.36   166.14   177.02
eigval :      199.32   200.81   202.95   210.13   222.15   232.39
eigval :      238.13   243.70   260.95   266.27   276.65   304.88
eigval :      317.60   331.10   340.83   345.22   350.52   372.09
eigval :      373.49   378.87   379.95   382.60   395.91   398.80
eigval :      405.03   420.10   422.42   426.02   431.93   438.09
eigval :      452.31   465.76   469.77   490.54   505.51   514.22
eigval :      514.47   518.78   533.44   534.17   538.94   546.76
eigval :      546.87   557.84   578.41   582.93   585.72   595.51
eigval :      602.86   609.81   614.16   629.41   641.88   652.99
eigval :      662.84   670.26   673.22   681.19   682.38   690.06
eigval :      693.33   695.23   705.98   714.86   730.32   733.81
eigval :      763.28   765.57   776.08   777.42   781.16   784.10
eigval :      804.52   810.67   823.75   826.70   833.45   860.44
eigval :      864.03   865.10   868.39   869.26   874.19   875.76
eigval :      906.39   912.36   912.50   913.43   913.45   914.93
eigval :      915.23   918.45   920.32   920.89   922.72   923.14
eigval :      927.03   927.97   928.44   932.67   938.31   938.57
eigval :      957.66   959.90   992.21  1009.04  1013.82  1016.15
eigval :     1029.60  1066.59  1076.38  1078.95  1084.56  1086.44
eigval :     1106.73  1111.49  1117.93  1125.56  1130.95  1131.93
eigval :     1139.28  1140.19  1150.41  1158.03  1170.31  1170.98
eigval :     1177.28  1179.85  1184.15  1185.14  1185.48  1186.42
eigval :     1197.77  1203.13  1206.80  1229.11  1242.83  1248.23
eigval :     1252.63  1255.06  1256.74  1264.12  1266.51  1269.20
eigval :     1280.87  1282.34  1293.20  1303.99  1304.59  1308.62
eigval :     1316.38  1322.65  1324.62  1330.25  1335.06  1336.78
eigval :     1339.55  1344.97  1371.02  1389.73  1397.82  1400.50
eigval :     1405.84  1407.95  1416.54  1419.17  1427.60  1432.99
eigval :     1435.91  1440.93  1460.98  1477.42  1478.63  1487.84
eigval :     1488.62  1490.97  1498.09  1499.18  1503.20  1511.22
eigval :     1514.93  1542.01  1549.02  1554.72  1561.17  1565.05
eigval :     1568.95  1573.23  1580.85  1587.52  1590.17  1590.53
eigval :     1592.89  1598.70  1601.76  1603.26  2365.24  3020.39
eigval :     3023.02  3037.54  3039.46  3046.28  3050.20  3070.17
eigval :     3070.28  3071.28  3075.36  3076.57  3077.28  3078.85
eigval :     3080.51  3081.16  3081.55  3084.25  3085.44  3087.56
eigval :     3088.23  3090.30  3090.49  3092.02  3093.15  3093.30
eigval :     3096.01  3097.24  3097.27  3099.46  3099.56  3101.06
eigval :     3103.53  3110.93  3113.53

   temp. (K)  partition function   enthalpy   heat capacity  entropy
                                   cal/mol     cal/K/mol   cal/K/mol   J/K/mol
 298.15  VIB  0.116E+21            25229.798    158.531    157.719
         ROT  0.151E+09              888.752      2.981     40.411
         INT  0.175E+29            26118.551    161.512    198.130
         TR   0.171E+29             1481.254      4.968     45.406
         TOT                       27599.8047   166.4802   243.5359  1018.9541

       T/K    H(0)-H(T)+PV         H(T)/Eh          T*S/Eh         G(T)/Eh
   ------------------------------------------------------------------------
    298.15    0.439831E-01    0.716413E+00    0.115712E+00    0.600701E+00
   ------------------------------------------------------------------------

         :::::::::::::::::::::::::::::::::::::::::::::::::::::
         ::                  THERMODYNAMIC                  ::
         :::::::::::::::::::::::::::::::::::::::::::::::::::::
         :: total free energy        -133.459866467098 Eh   ::
         ::.................................................::
         :: total energy             -134.060567379096 Eh   ::
         :: zero point energy           0.672429581736 Eh   ::
         :: G(RRHO) w/o ZPVE           -0.071728669739 Eh   ::
         :: G(RRHO) contrib.            0.600700911997 Eh   ::
         :::::::::::::::::::::::::::::::::::::::::::::::::::::

           -------------------------------------------------
          | TOTAL ENERGY             -134.060567379096 Eh   |
          | TOTAL ENTHALPY           -133.344154708896 Eh   |
          | TOTAL FREE ENERGY        -133.459866467098 Eh   |
          | GRADIENT NORM               0.000057876108 Eh/α |
          | HOMO-LUMO GAP               1.437801878632 eV   |
           -------------------------------------------------

 * finished run on 2025/08/22 at 09:18:44.186
