   * xtb version 6.7.1 (edcfbbe) compiled by 'albert@albert-system' on 2024-07-22

   ID    Z sym.   atoms
    1    8 O      1, 10
    2    6 C      2-9, 11-13, 15-29
    3    7 N      14
    4    1 H      30-44

          program call               : xtb data2507/toluene/Cz–AQ/Cz–AQ_toluene_S0_crest.xyz --gfn 2 --gbsa toluene --ohess vtight --parallel 40 --molden --ceasefiles --namespace data2507/toluene/Cz–AQ/Cz–AQ_toluene_S0_finalOpt
      * Solvation model:               GBSA
        Solvent                        toluene
        Solvent mass                       9.2140E+01 g/mol
          :  Hamiltonian                  GFN2-xTB          :
 * total energy  :   -74.4345652 Eh     change       -0.3640437E-08 Eh
 * total energy  :   -74.4346194 Eh     change       -0.5415706E-04 Eh
 * total energy  :   -74.4346308 Eh     change       -0.1145622E-04 Eh
 * total energy  :   -74.4346318 Eh     change       -0.1005336E-05 Eh
 * total energy  :   -74.4346321 Eh     change       -0.2702463E-06 Eh
 * total energy  :   -74.4346323 Eh     change       -0.1972659E-06 Eh
 * total energy  :   -74.4346324 Eh     change       -0.1143141E-06 Eh
 * total energy  :   -74.4346325 Eh     change       -0.8161980E-07 Eh
   *** GEOMETRY OPTIMIZATION CONVERGED AFTER 8 ITERATIONS ***

 final structure:
================
44
 xtb: 6.7.1 (edcfbbe)
O            3.73686316768982        2.43003931409627        1.31411106702470
C            3.39032296895631        1.40756593259521        0.73685293877422
C            4.37592814145683        0.46262957637536        0.17070115112151
C            5.73307460219044        0.74397082482543        0.30870151783534
C            6.68958645733463       -0.11112176233028       -0.20948339195877
C            6.29978103945477       -1.26340590016204       -0.87644216029943
C            4.95526962542268       -1.55503335018687       -1.02095163382794
C            3.98184948985059       -0.70323753654085       -0.50237175880193
C            2.56025518906174       -1.05784099404672       -0.67661887143971
O            2.21267952111753       -2.07912308589338       -1.25037973706103
C            1.57508906178502       -0.11268414125701       -0.10711648256766
C            0.22455945912231       -0.39928181932117       -0.25070095192052
C           -0.74976372391909        0.45138842708029        0.27069326207199
N           -2.09812471680435        0.14867492489304        0.12534582281515
C           -2.68178469413652       -1.09081435228874        0.34667910232550
C           -2.11224195483952       -2.27086013106267        0.80226258485745
C           -2.94175975142920       -3.36370478126554        0.97775899722368
C           -4.30826960672548       -3.28897785713477        0.72091388460435
C           -4.88602660541074       -2.10785496815669        0.29712348748700
C           -4.07177244854414       -0.99854579464271        0.11240662816617
C           -4.33473780035609        0.35973373967606       -0.28126484876650
C           -5.48903880689832        1.03244941997827       -0.65918400162580
C           -5.39148404643510        2.36294600957308       -1.01811999965643
C           -4.16006317127734        3.01286022566706       -1.02317088067053
C           -2.99776656511430        2.36234621668375       -0.65023530212349
C           -3.09474730107078        1.03576952324947       -0.25602556499448
C           -0.34812129889878        1.61096380073715        0.94247206143946
C            0.99176981671471        1.90186086175733        1.07939778622962
C            1.97320719021399        1.05404826783698        0.56333679697983
H            6.01485146972014        1.64705557957581        0.83046091129862
H            7.73747554991090        0.12078297754338       -0.09377258847978
H            7.04254040739911       -1.93307318151737       -1.28268826426106
H            4.62911399856547       -2.44686759315821       -1.53612533574473
H           -0.05536087390513       -1.28624156940675       -0.79964065813230
H           -1.05890767486125       -2.34144659685155        1.02621074147790
H           -2.51838305403756       -4.29432661829842        1.32599373274779
H           -4.92241702340992       -4.16505056419642        0.86778601469401
H           -5.94840567356201       -2.04248105280634        0.11756687905988
H           -6.43914705871707        0.52051824918159       -0.67722511868195
H           -6.27736044155776        2.90634284286702       -1.31173331517515
H           -4.10876246810975        4.04744533659398       -1.32894372367579
H           -2.04839688323080        2.87423048117776       -0.68318709285763
H           -1.09218587005869        2.26218440620548        1.37431660215957
H            1.31289730984271        2.79013955545474        1.60345902742882

          :  Hamiltonian                  GFN2-xTB          :
         :: gradient norm              0.000077043461 Eh/a0 ::
         :: HOMO-LUMO gap              1.099801593321 eV    ::
         :: SCC energy               -75.728754313741 Eh    ::
         :: -> dispersion             -0.058288520922 Eh    ::
         :: -> Gsolv                  -0.034098339202 Eh    ::
         :: repulsion energy           1.294121803690 Eh    ::

    * Orbital Energies and Occupations

         #    Occupation            Energy/Eh            Energy/eV
      -------------------------------------------------------------
         1        2.0000           -0.7225764             -19.6623
       ...           ...                  ...                  ...
        56        2.0000           -0.4405314             -11.9875
        57        2.0000           -0.4366200             -11.8810
        58        2.0000           -0.4330149             -11.7829
        59        2.0000           -0.4304077             -11.7120
        60        2.0000           -0.4294853             -11.6869
        61        2.0000           -0.4273820             -11.6297
        62        2.0000           -0.4239788             -11.5371
        63        2.0000           -0.4234085             -11.5215
        64        2.0000           -0.4180079             -11.3746
        65        2.0000           -0.4114592             -11.1964
        66        2.0000           -0.3997510             -10.8778
        67        2.0000           -0.3850465             -10.4776
        68        2.0000           -0.3728001             -10.1444 (HOMO)
        69                         -0.3323832              -9.0446 (LUMO)
        70                         -0.2853791              -7.7656
        71                         -0.2561121              -6.9692
        72                         -0.2502176              -6.8088
        73                         -0.2479859              -6.7480
        74                         -0.2282822              -6.2119
        75                         -0.2085177              -5.6741
        76                         -0.1955165              -5.3203
        77                         -0.1921186              -5.2278
        78                         -0.1875930              -5.1047
        79                         -0.1227122              -3.3392
       ...                                ...                  ...
       131                          0.7372915              20.0627
      -------------------------------------------------------------
                  HL-Gap            0.0404169 Eh            1.0998 eV

     #   Z          covCN         q      C6AA      α(0)
     1   8 O        0.858    -0.410    21.882     6.272
     2   6 C        2.830     0.224    23.289     7.908
     3   6 C        2.974    -0.012    28.317     8.729
     4   6 C        2.923    -0.013    28.336     8.730
     5   6 C        2.917    -0.016    28.405     8.740
     6   6 C        2.917    -0.017    28.425     8.743
     7   6 C        2.923    -0.013    28.328     8.728
     8   6 C        2.974    -0.014    28.348     8.734
     9   6 C        2.831     0.227    23.239     7.900
    10   8 O        0.858    -0.401    21.695     6.245
    11   6 C        2.973    -0.012    28.317     8.729
    12   6 C        2.927    -0.030    28.744     8.792
    13   6 C        2.909     0.077    26.289     8.407
    14   7 N        2.800    -0.031    21.850     6.943
    15   6 C        3.065     0.045    26.918     8.508
    16   6 C        2.910    -0.048    29.204     8.861
    17   6 C        2.924    -0.032    28.799     8.800
    18   6 C        2.920    -0.038    28.954     8.824
    19   6 C        2.913    -0.032    28.806     8.801
    20   6 C        3.065    -0.013    28.281     8.720
    21   6 C        3.065    -0.013    28.278     8.720
    22   6 C        2.913    -0.032    28.802     8.800
    23   6 C        2.920    -0.038    28.956     8.824
    24   6 C        2.924    -0.032    28.808     8.802
    25   6 C        2.910    -0.050    29.237     8.866
    26   6 C        3.065     0.045    26.926     8.509
    27   6 C        2.919    -0.036    28.901     8.816
    28   6 C        2.922    -0.013    28.341     8.730
    29   6 C        2.973    -0.020    28.505     8.758
    30   1 H        0.926     0.066     2.133     2.284
    31   1 H        0.926     0.063     2.168     2.303
    32   1 H        0.926     0.063     2.169     2.303
    33   1 H        0.926     0.066     2.132     2.283
    34   1 H        0.926     0.072     2.061     2.245
    35   1 H        0.926     0.033     2.547     2.496
    36   1 H        0.926     0.035     2.512     2.478
    37   1 H        0.926     0.035     2.520     2.482
    38   1 H        0.926     0.038     2.476     2.461
    39   1 H        0.926     0.038     2.482     2.464
    40   1 H        0.926     0.035     2.522     2.483
    41   1 H        0.926     0.036     2.498     2.472
    42   1 H        0.926     0.035     2.512     2.479
    43   1 H        0.926     0.067     2.119     2.276
    44   1 H        0.926     0.070     2.088     2.260

molecular dipole:
                 x           y           z       tot (Debye)
 q only:       -0.210      -0.055      -0.035
   full:       -0.111      -0.049      -0.032       0.318

 projected vibrational frequencies (cm⁻¹)
eigval :       -0.00    -0.00    -0.00    -0.00     0.00     0.00
eigval :       18.07    35.98    38.72    42.55    99.27   105.60
eigval :      111.82   134.54   145.06   152.90   164.24   195.90
eigval :      244.63   264.54   271.63   277.54   302.81   368.35
eigval :      371.39   383.45   392.53   397.05   402.12   415.78
eigval :      421.04   436.53   446.80   489.91   503.79   517.82
eigval :      539.72   540.24   579.07   592.34   602.23   617.33
eigval :      639.40   651.61   672.76   676.43   684.22   689.72
eigval :      700.48   710.17   754.73   769.55   771.90   782.55
eigval :      789.77   795.47   846.48   869.49   878.04   885.98
eigval :      894.96   896.92   898.20   906.83   910.74   922.45
eigval :      927.19   931.14   934.39   938.04   953.29  1007.99
eigval :     1014.95  1071.12  1073.66  1082.02  1085.19  1109.83
eigval :     1121.04  1150.51  1163.09  1171.26  1176.36  1178.64
eigval :     1182.29  1208.84  1221.25  1230.84  1234.20  1242.27
eigval :     1251.57  1276.22  1290.02  1297.33  1330.91  1338.90
eigval :     1354.63  1355.98  1359.12  1405.66  1416.43  1419.68
eigval :     1424.31  1454.34  1469.65  1477.90  1483.33  1542.03
eigval :     1558.76  1568.17  1572.17  1574.80  1587.04  1595.02
eigval :     1608.56  1636.09  1651.08  3076.37  3076.68  3082.46
eigval :     3083.20  3084.98  3087.43  3089.79  3090.40  3091.45
eigval :     3093.31  3095.91  3096.69  3098.07  3100.98  3104.51

   temp. (K)  partition function   enthalpy   heat capacity  entropy
                                   cal/mol     cal/K/mol   cal/K/mol   J/K/mol
 298.15  VIB  0.841E+08            11751.595     79.137     70.020
         ROT  0.172E+08              888.752      2.981     36.084
         INT  0.144E+16            12640.348     82.118    106.105
         TR   0.698E+28             1481.254      4.968     43.625
         TOT                       14121.6015    87.0857   149.7299   626.4698

       T/K    H(0)-H(T)+PV         H(T)/Eh          T*S/Eh         G(T)/Eh
   ------------------------------------------------------------------------
    298.15    0.225042E-01    0.347561E+00    0.711415E-01    0.276420E+00
   ------------------------------------------------------------------------

         :::::::::::::::::::::::::::::::::::::::::::::::::::::
         ::                  THERMODYNAMIC                  ::
         :::::::::::::::::::::::::::::::::::::::::::::::::::::
         :: total free energy         -74.158212974380 Eh   ::
         ::.................................................::
         :: total energy              -74.434632509705 Eh   ::
         :: zero point energy           0.325056825035 Eh   ::
         :: G(RRHO) w/o ZPVE           -0.048637289710 Eh   ::
         :: G(RRHO) contrib.            0.276419535325 Eh   ::
         :::::::::::::::::::::::::::::::::::::::::::::::::::::

           -------------------------------------------------
          | TOTAL ENERGY              -74.434632509705 Eh   |
          | TOTAL ENTHALPY            -74.087071480181 Eh   |
          | TOTAL FREE ENERGY         -74.158212974380 Eh   |
          | GRADIENT NORM               0.000077076056 Eh/α |
          | HOMO-LUMO GAP               1.099800349699 eV   |
           -------------------------------------------------

 * finished run on 2025/08/26 at 12:47:11.714
