   * xtb version 6.7.1 (edcfbbe) compiled by 'albert@albert-system' on 2024-07-22

   ID    Z sym.   atoms
    1    8 O      1, 10
    2    6 C      2-9, 11-13, 15-29
    3    7 N      14
    4    1 H      30-44

          program call               : xtb data2507/toluene/Cz–AQ/Cz–AQ_toluene_S0_finalOpt.xtbopt.xyz --gfn 2 --uhf 2 --gbsa toluene --ohess vtight --parallel 40 --molden --ceasefiles --namespace data2507/toluene/Cz–AQ/Cz–AQ_toluene_T1_preOpt
      * Solvation model:               GBSA
        Solvent                        toluene
        Solvent mass                       9.2140E+01 g/mol
          :  Hamiltonian                  GFN2-xTB          :
 * total energy  :   -74.3753395 Eh     change       -0.4347686E-07 Eh
 * total energy  :   -74.3782013 Eh     change       -0.2861802E-02 Eh
 * total energy  :   -74.3788712 Eh     change       -0.6698755E-03 Eh
 * total energy  :   -74.3789395 Eh     change       -0.6834897E-04 Eh
 * total energy  :   -74.3789800 Eh     change       -0.4046635E-04 Eh
 * total energy  :   -74.3789937 Eh     change       -0.1368863E-04 Eh
 * total energy  :   -74.3790090 Eh     change       -0.1533577E-04 Eh
 * total energy  :   -74.3790176 Eh     change       -0.8622311E-05 Eh
 * total energy  :   -74.3790271 Eh     change       -0.9441541E-05 Eh
 * total energy  :   -74.3790337 Eh     change       -0.6609142E-05 Eh
 * total energy  :   -74.3790431 Eh     change       -0.4223242E-05 Eh
 * total energy  :   -74.3790461 Eh     change       -0.3001256E-05 Eh
 * total energy  :   -74.3790484 Eh     change       -0.2282043E-05 Eh
 * total energy  :   -74.3790508 Eh     change       -0.2401362E-05 Eh
 * total energy  :   -74.3790533 Eh     change       -0.2474559E-05 Eh
 * total energy  :   -74.3790551 Eh     change       -0.1865691E-05 Eh
 * total energy  :   -74.3790559 Eh     change       -0.8076065E-06 Eh
 * total energy  :   -74.3790562 Eh     change       -0.2201266E-06 Eh
 * total energy  :   -74.3790562 Eh     change       -0.6762440E-07 Eh
   *** GEOMETRY OPTIMIZATION CONVERGED AFTER 20 ITERATIONS ***

 final structure:
================
44
 xtb: 6.7.1 (edcfbbe)
O            3.71668211869724        2.38254242893559        1.44448771105096
C            3.37158117658970        1.37298987169045        0.80039132901919
C            4.33122691414300        0.46876462327134        0.18587519461453
C            5.70004532903737        0.74090871057579        0.33632508818184
C            6.64649735752495       -0.09354096568167       -0.20505568811501
C            6.25261437293618       -1.22828143127895       -0.91862428882425
C            4.91912998967394       -1.51107142476502       -1.08064034707171
C            3.93431929058068       -0.66900093917443       -0.53887597149224
C            2.53925662422906       -1.01467593465978       -0.75302307641045
O            2.18510903840941       -2.01617116652109       -1.40249658960359
C            1.57882362073528       -0.10887890557389       -0.13898239840910
C            0.21568807068628       -0.39137856110729       -0.27624582036026
C           -0.73913839907791        0.43245537038316        0.28851522094758
N           -2.09438996800288        0.13116976338348        0.14132897377574
C           -2.68156549546579       -1.09519397445488        0.37923843563950
C           -2.11239893583711       -2.27116324500960        0.85410248814342
C           -2.94509273686590       -3.36192347571830        1.03461026921932
C           -4.30773347945268       -3.28670079929369        0.76170016707158
C           -4.88520523212683       -2.10780471843685        0.31094972953628
C           -4.07092612240356       -1.00497396739206        0.12102299111617
C           -4.31952848263930        0.35152981743696       -0.30467030198850
C           -5.45730531384732        1.03557589685990       -0.69502131090243
C           -5.33357821991726        2.36720345907410       -1.06758874888840
C           -4.09548864235498        3.00292316565637       -1.06756786643866
C           -2.94406322748659        2.33803473133527       -0.68313350815876
C           -3.06744141451542        1.01292812139609       -0.27997322512668
C           -0.33934994191946        1.58363024414360        0.99884944792268
C            0.99054850437985        1.87414296319693        1.12664801991265
C            1.97883833490011        1.02847692350370        0.59103834930117
H            5.97502673993685        1.62304604681430        0.89671571603642
H            7.69568806182811        0.12703589705029       -0.07668737316911
H            6.99734016375779       -1.88250626779858       -1.34690838139728
H            4.58577623475590       -2.38003499150146       -1.62980634932954
H           -0.06777383243344       -1.25497653908640       -0.85987690891158
H           -1.05934593714493       -2.33372384880064        1.08000511652823
H           -2.52673467983462       -4.28857203001820        1.39693594538709
H           -4.92532463539860       -4.15901160307779        0.91257608063008
H           -5.94478888417208       -2.05049137539271        0.11673828462905
H           -6.41732297852414        0.54390502252897       -0.71176936456283
H           -6.20996645592887        2.91804842895013       -1.37364755454219
H           -4.02876636075855        4.03395761489338       -1.37964631856613
H           -1.98376566224700        2.82862963486548       -0.71043537662821
H           -1.08654024947857        2.20467500729381        1.46815843048395
H            1.33141911772430        2.74151979307190        1.67366584047204

          :  Hamiltonian                  GFN2-xTB          :
         :: gradient norm              0.000053206723 Eh/a0 ::
         :: HOMO-LUMO gap              1.344481899904 eV    ::
         :: SCC energy               -75.666959752656 Eh    ::
         :: -> dispersion             -0.058273263765 Eh    ::
         :: -> Gsolv                  -0.041586973579 Eh    ::
         :: repulsion energy           1.287903522989 Eh    ::

    * Orbital Energies and Occupations

         #    Occupation            Energy/Eh            Energy/eV
      -------------------------------------------------------------
         1        2.0000           -0.7031738             -19.1343
       ...           ...                  ...                  ...
        57        2.0000           -0.4382096             -11.9243
        58        2.0000           -0.4371022             -11.8942
        59        2.0000           -0.4324099             -11.7665
        60        2.0000           -0.4299559             -11.6997
        61        2.0000           -0.4282364             -11.6529
        62        2.0000           -0.4265276             -11.6064
        63        2.0000           -0.4179584             -11.3732
        64        2.0000           -0.4172993             -11.3553
        65        2.0000           -0.4023694             -10.9490
        66        2.0000           -0.4009784             -10.9112
        67        1.9279           -0.3881939             -10.5633
        68        1.0721           -0.3833383             -10.4312
        69        1.0000           -0.3248426              -8.8394 (HOMO)
        70                         -0.2754338              -7.4949 (LUMO)
        71                         -0.2651725              -7.2157
        72                         -0.2482536              -6.7553
        73                         -0.2451316              -6.6704
        74                         -0.2397182              -6.5231
        75                         -0.2165415              -5.8924
        76                         -0.2070599              -5.6344
        77                         -0.1837241              -4.9994
        78                         -0.1788482              -4.8667
        79                         -0.1192452              -3.2448
        80                         -0.1090259              -2.9667
       ...                                ...                  ...
       131                          0.7227419              19.6668
      -------------------------------------------------------------
                  HL-Gap            0.0494088 Eh            1.3445 eV

     #   Z          covCN         q      C6AA      α(0)
     1   8 O        0.857    -0.454    22.794     6.401
     2   6 C        2.836     0.198    23.796     7.994
     3   6 C        2.978    -0.018    28.459     8.751
     4   6 C        2.923    -0.017    28.446     8.746
     5   6 C        2.917    -0.027    28.676     8.781
     6   6 C        2.917    -0.027    28.674     8.781
     7   6 C        2.923    -0.018    28.450     8.747
     8   6 C        2.977    -0.018    28.462     8.751
     9   6 C        2.836     0.198    23.789     7.993
    10   8 O        0.857    -0.454    22.780     6.399
    11   6 C        2.976    -0.017    28.433     8.747
    12   6 C        2.925    -0.028    28.709     8.787
    13   6 C        2.911     0.060    26.663     8.467
    14   7 N        2.803     0.010    21.088     6.820
    15   6 C        3.069     0.047    26.870     8.500
    16   6 C        2.909    -0.035    28.860     8.809
    17   6 C        2.922    -0.026    28.654     8.778
    18   6 C        2.920    -0.025    28.636     8.775
    19   6 C        2.911    -0.024    28.597     8.769
    20   6 C        3.063    -0.005    28.092     8.691
    21   6 C        3.063    -0.005    28.077     8.689
    22   6 C        2.911    -0.023    28.590     8.768
    23   6 C        2.920    -0.025    28.626     8.774
    24   6 C        2.922    -0.026    28.662     8.779
    25   6 C        2.909    -0.036    28.891     8.814
    26   6 C        3.070     0.047    26.866     8.499
    27   6 C        2.916    -0.041    29.020     8.834
    28   6 C        2.922    -0.015    28.380     8.736
    29   6 C        2.977    -0.018    28.457     8.750
    30   1 H        0.926     0.053     2.289     2.366
    31   1 H        0.926     0.052     2.294     2.369
    32   1 H        0.926     0.052     2.289     2.366
    33   1 H        0.926     0.053     2.282     2.362
    34   1 H        0.926     0.066     2.130     2.282
    35   1 H        0.926     0.047     2.359     2.402
    36   1 H        0.926     0.050     2.322     2.383
    37   1 H        0.926     0.052     2.290     2.366
    38   1 H        0.926     0.056     2.251     2.346
    39   1 H        0.926     0.055     2.254     2.348
    40   1 H        0.926     0.053     2.286     2.364
    41   1 H        0.926     0.052     2.300     2.372
    42   1 H        0.926     0.051     2.308     2.376
    43   1 H        0.926     0.067     2.121     2.277
    44   1 H        0.926     0.065     2.136     2.286

molecular dipole:
                 x           y           z       tot (Debye)
 q only:       -4.027      -0.133       0.018
   full:       -3.831      -0.131       0.017       9.744

 projected vibrational frequencies (cm⁻¹)
eigval :       -0.00    -0.00     0.00     0.00     0.00     0.00
eigval :       22.67    32.20    38.11    51.14    98.54   109.50
eigval :      126.49   135.12   145.93   150.48   162.82   199.27
eigval :      243.94   263.69   267.65   280.51   309.25   362.05
eigval :      374.15   380.04   388.00   397.49   412.50   417.69
eigval :      423.05   431.81   445.84   491.51   493.75   510.93
eigval :      530.31   544.79   561.12   583.95   592.96   602.33
eigval :      619.93   636.73   640.03   662.67   672.63   683.75
eigval :      694.69   710.47   721.70   752.32   767.84   775.23
eigval :      776.09   798.31   825.71   863.63   870.22   876.49
eigval :      878.94   886.56   896.76   905.52   906.34   914.58
eigval :      915.57   917.64   919.88   929.51   940.05  1001.53
eigval :     1010.61  1064.23  1067.42  1077.37  1082.22  1107.47
eigval :     1121.75  1130.62  1153.45  1163.44  1171.79  1172.45
eigval :     1176.45  1189.04  1205.34  1210.98  1221.05  1224.72
eigval :     1235.10  1253.46  1265.60  1281.88  1315.16  1331.26
eigval :     1361.14  1362.17  1367.54  1376.48  1391.19  1399.24
eigval :     1407.69  1425.55  1441.08  1452.13  1472.23  1475.96
eigval :     1502.55  1535.13  1537.65  1547.12  1557.68  1564.03
eigval :     1568.92  1573.62  1595.90  3076.17  3079.61  3081.28
eigval :     3085.46  3087.50  3087.88  3091.39  3092.78  3093.57
eigval :     3094.31  3098.56  3100.33  3101.63  3105.09  3106.15

   temp. (K)  partition function   enthalpy   heat capacity  entropy
                                   cal/mol     cal/K/mol   cal/K/mol   J/K/mol
 298.15  VIB  0.619E+08            11827.387     80.270     70.063
         ROT  0.170E+08              888.752      2.981     36.071
         INT  0.105E+16            12716.139     83.251    106.134
         TR   0.698E+28             1481.254      4.968     43.625
         TOT                       14197.3930    88.2195   149.7592   626.5927

       T/K    H(0)-H(T)+PV         H(T)/Eh          T*S/Eh         G(T)/Eh
   ------------------------------------------------------------------------
    298.15    0.226250E-01    0.344923E+00    0.711554E-01    0.273768E+00
   ------------------------------------------------------------------------

         :::::::::::::::::::::::::::::::::::::::::::::::::::::
         ::                  THERMODYNAMIC                  ::
         :::::::::::::::::::::::::::::::::::::::::::::::::::::
         :: total free energy         -74.105288639064 Eh   ::
         ::.................................................::
         :: total energy              -74.379056232795 Eh   ::
         :: zero point energy           0.322298057533 Eh   ::
         :: G(RRHO) w/o ZPVE           -0.048530463803 Eh   ::
         :: G(RRHO) contrib.            0.273767593730 Eh   ::
         :::::::::::::::::::::::::::::::::::::::::::::::::::::

           -------------------------------------------------
          | TOTAL ENERGY              -74.379056232795 Eh   |
          | TOTAL ENTHALPY            -74.034133189374 Eh   |
          | TOTAL FREE ENERGY         -74.105288639064 Eh   |
          | GRADIENT NORM               0.000052867138 Eh/α |
          | HOMO-LUMO GAP               1.344482340325 eV   |
           -------------------------------------------------

 * finished run on 2025/08/26 at 12:47:13.577
