   * xtb version 6.7.1 (edcfbbe) compiled by 'albert@albert-system' on 2024-07-22

   ID    Z sym.   atoms
    1    8 O      1, 10
    2    6 C      2-9, 11-13, 15-29
    3    7 N      14
    4    1 H      30-44

          program call               : xtb data2507/toluene/Cz–AQ/Cz–AQ_toluene_T1_crest.xyz --gfn 2 --uhf 2 --gbsa toluene --ohess vtight --parallel 40 --molden --ceasefiles --namespace data2507/toluene/Cz–AQ/Cz–AQ_toluene_T1_finalOpt
      * Solvation model:               GBSA
        Solvent                        toluene
        Solvent mass                       9.2140E+01 g/mol
          :  Hamiltonian                  GFN2-xTB          :
 * total energy  :   -74.3788795 Eh     change       -0.2340806E-07 Eh
 * total energy  :   -74.3790110 Eh     change       -0.1314145E-03 Eh
 * total energy  :   -74.3790458 Eh     change       -0.3480855E-04 Eh
 * total energy  :   -74.3790494 Eh     change       -0.3582584E-05 Eh
 * total energy  :   -74.3790508 Eh     change       -0.1469960E-05 Eh
 * total energy  :   -74.3790527 Eh     change       -0.1848760E-05 Eh
 * total energy  :   -74.3790546 Eh     change       -0.1964435E-05 Eh
 * total energy  :   -74.3790562 Eh     change       -0.1533993E-05 Eh
 * total energy  :   -74.3790573 Eh     change       -0.1104497E-05 Eh
 * total energy  :   -74.3790583 Eh     change       -0.9897906E-06 Eh
 * total energy  :   -74.3790592 Eh     change       -0.9459079E-06 Eh
 * total energy  :   -74.3790599 Eh     change       -0.6826325E-06 Eh
 * total energy  :   -74.3790602 Eh     change       -0.3237613E-06 Eh
 * total energy  :   -74.3790604 Eh     change       -0.1761312E-06 Eh
 * total energy  :   -74.3790605 Eh     change       -0.1504557E-06 Eh
 * total energy  :   -74.3790607 Eh     change       -0.1185797E-06 Eh
 * total energy  :   -74.3790607 Eh     change       -0.6686426E-07 Eh
   *** GEOMETRY OPTIMIZATION CONVERGED AFTER 17 ITERATIONS ***

 final structure:
================
44
 xtb: 6.7.1 (edcfbbe)
O            3.73016583419842        2.37255081656565        1.43233239035829
C            3.38028713002241        1.36218034418260        0.79212125342950
C            4.33549440719600        0.45355057223960        0.17719311012566
C            5.70551591794320        0.72267215556803        0.32200412308553
C            6.64795275238852       -0.11599221339189       -0.21988159579771
C            6.24872468950077       -1.25206454110641       -0.92834332165815
C            4.91396260577173       -1.53192717149052       -1.08485730301912
C            3.93319788911643       -0.68543236906533       -0.54266315944485
C            2.53652383837083       -1.02787546208369       -0.75150007021928
O            2.17760394858945       -2.03046827378880       -1.39658832133815
C            1.58050488486280       -0.11703448799940       -0.13800860077184
C            0.21612497479570       -0.39508495217393       -0.27195249121239
C           -0.73470637814509        0.43417218679177        0.29155995771896
N           -2.09138733905206        0.13866629829636        0.14548417596192
C           -2.68448011832456       -1.08430646133813        0.38594232094573
C           -2.12134987184332       -2.26162812671119        0.86459821437558
C           -2.95924662194945       -3.34817164063481        1.04656406941450
C           -4.32112461818526       -3.26748103759277        0.77144272676269
C           -4.89259793876461       -2.08709936342871        0.31691409528002
C           -4.07305863820909       -0.98845714310488        0.12546467250377
C           -4.31481622772027        0.36791429330026       -0.30455666277739
C           -5.44877940755721        1.05593030362557       -0.69899698395619
C           -5.31831683936274        2.38578403721767       -1.07561108834974
C           -4.07734684697619        3.01583959063377       -1.07540108505287
C           -2.92964004824924        2.34690140359553       -0.68686441528475
C           -3.05975883429434        1.02363983719430       -0.27986412554367
C           -0.32951791316290        1.58553520742093        0.99847063903021
C            1.00166373858237        1.87156757588662        1.12317863100383
C            1.98592805873048        1.02117575817721        0.58767872792383
H            5.98470973598747        1.60592245436299        0.87854578224887
H            7.69814537190967        0.10234607560573       -0.09591200884365
H            6.99028424059190       -1.90966827714393       -1.35694334702923
H            4.57645257599055       -2.40181053030439       -1.63001389578263
H           -0.07147579237752       -1.25942573230449       -0.85245358119571
H           -1.06891274119801       -2.32838856233298        1.09218046448652
H           -2.54560707277501       -4.27580264898777        1.41180480100563
H           -4.94287587890782       -4.13664543887391        0.92340818536820
H           -5.95159956856243       -2.02549115855334        0.12084098983327
H           -6.41101997969415        0.56862159515400       -0.71582619204901
H           -6.19166096858095        2.93963662694092       -1.38493742203849
H           -4.00530350749600        4.04557520269432       -1.39056141839936
H           -1.96707376935271        2.83305121195778       -0.71399074626646
H           -1.07364646563157        2.21061363345968        1.46728283312156
H            1.34663439812383        2.73920543494023        1.66719572584650

          :  Hamiltonian                  GFN2-xTB          :
         :: gradient norm              0.000073852714 Eh/a0 ::
         :: HOMO-LUMO gap              1.344475660449 eV    ::
         :: SCC energy               -75.666975099470 Eh    ::
         :: -> dispersion             -0.058271889224 Eh    ::
         :: -> Gsolv                  -0.041587295976 Eh    ::
         :: repulsion energy           1.287914370724 Eh    ::

    * Orbital Energies and Occupations

         #    Occupation            Energy/Eh            Energy/eV
      -------------------------------------------------------------
         1        2.0000           -0.7031705             -19.1342
       ...           ...                  ...                  ...
        57        2.0000           -0.4382108             -11.9243
        58        2.0000           -0.4371002             -11.8941
        59        2.0000           -0.4324118             -11.7665
        60        2.0000           -0.4299603             -11.6998
        61        2.0000           -0.4282365             -11.6529
        62        2.0000           -0.4265270             -11.6064
        63        2.0000           -0.4179598             -11.3733
        64        2.0000           -0.4172997             -11.3553
        65        2.0000           -0.4023719             -10.9491
        66        2.0000           -0.4009752             -10.9111
        67        1.9280           -0.3881956             -10.5633
        68        1.0720           -0.3833369             -10.4311
        69        1.0000           -0.3248416              -8.8394 (HOMO)
        70                         -0.2754328              -7.4949 (LUMO)
        71                         -0.2651712              -7.2157
        72                         -0.2482513              -6.7553
        73                         -0.2451283              -6.6703
        74                         -0.2397188              -6.5231
        75                         -0.2165412              -5.8924
        76                         -0.2070567              -5.6343
        77                         -0.1837300              -4.9995
        78                         -0.1788499              -4.8668
        79                         -0.1192382              -3.2446
        80                         -0.1090311              -2.9669
       ...                                ...                  ...
       131                          0.7227659              19.6675
      -------------------------------------------------------------
                  HL-Gap            0.0494087 Eh            1.3445 eV

     #   Z          covCN         q      C6AA      α(0)
     1   8 O        0.857    -0.454    22.794     6.401
     2   6 C        2.836     0.198    23.796     7.994
     3   6 C        2.978    -0.018    28.459     8.751
     4   6 C        2.923    -0.017    28.446     8.746
     5   6 C        2.917    -0.027    28.676     8.781
     6   6 C        2.917    -0.027    28.674     8.781
     7   6 C        2.923    -0.018    28.450     8.747
     8   6 C        2.977    -0.018    28.462     8.751
     9   6 C        2.836     0.198    23.789     7.993
    10   8 O        0.857    -0.453    22.779     6.399
    11   6 C        2.976    -0.017    28.433     8.747
    12   6 C        2.925    -0.028    28.708     8.787
    13   6 C        2.911     0.060    26.663     8.467
    14   7 N        2.803     0.010    21.089     6.820
    15   6 C        3.069     0.047    26.870     8.500
    16   6 C        2.909    -0.035    28.860     8.809
    17   6 C        2.922    -0.026    28.654     8.778
    18   6 C        2.920    -0.025    28.635     8.775
    19   6 C        2.911    -0.024    28.597     8.769
    20   6 C        3.063    -0.005    28.092     8.691
    21   6 C        3.063    -0.005    28.077     8.689
    22   6 C        2.911    -0.023    28.590     8.768
    23   6 C        2.920    -0.025    28.626     8.774
    24   6 C        2.922    -0.026    28.662     8.779
    25   6 C        2.909    -0.036    28.891     8.814
    26   6 C        3.070     0.047    26.866     8.499
    27   6 C        2.916    -0.041    29.020     8.834
    28   6 C        2.922    -0.015    28.380     8.736
    29   6 C        2.977    -0.018    28.457     8.750
    30   1 H        0.926     0.053     2.289     2.366
    31   1 H        0.926     0.052     2.294     2.368
    32   1 H        0.926     0.052     2.289     2.366
    33   1 H        0.926     0.053     2.282     2.362
    34   1 H        0.926     0.066     2.130     2.282
    35   1 H        0.926     0.047     2.359     2.402
    36   1 H        0.926     0.050     2.322     2.383
    37   1 H        0.926     0.052     2.290     2.366
    38   1 H        0.926     0.056     2.251     2.346
    39   1 H        0.926     0.055     2.254     2.348
    40   1 H        0.926     0.053     2.286     2.364
    41   1 H        0.926     0.052     2.300     2.372
    42   1 H        0.926     0.051     2.308     2.376
    43   1 H        0.926     0.067     2.121     2.277
    44   1 H        0.926     0.065     2.136     2.286

molecular dipole:
                 x           y           z       tot (Debye)
 q only:       -4.027      -0.117       0.020
   full:       -3.831      -0.116       0.019       9.742

 projected vibrational frequencies (cm⁻¹)
eigval :       -0.00     0.00     0.00     0.00     0.00     0.00
eigval :       22.69    32.95    38.22    51.18    99.01   110.08
eigval :      126.81   135.14   145.99   150.54   162.73   199.25
eigval :      243.97   263.78   267.69   280.73   309.40   362.04
eigval :      374.11   380.18   388.22   397.64   412.63   417.77
eigval :      422.99   431.77   445.85   491.62   494.23   510.93
eigval :      530.47   544.88   561.03   583.93   592.94   602.33
eigval :      619.96   636.87   640.05   662.99   672.79   683.72
eigval :      694.67   710.64   722.20   752.24   767.83   774.70
eigval :      776.07   798.31   825.56   863.71   870.26   876.15
eigval :      878.94   886.72   896.78   905.58   906.28   914.50
eigval :      915.58   917.10   919.78   929.49   940.04  1001.49
eigval :     1010.53  1064.12  1067.19  1077.44  1082.23  1107.39
eigval :     1121.57  1130.64  1153.41  1163.54  1171.90  1172.56
eigval :     1176.55  1189.00  1205.29  1210.81  1220.99  1224.78
eigval :     1235.09  1253.44  1265.72  1281.97  1315.17  1331.40
eigval :     1361.08  1362.20  1367.47  1376.40  1391.17  1399.02
eigval :     1407.63  1425.57  1441.10  1452.22  1472.28  1476.24
eigval :     1502.56  1535.22  1537.70  1547.03  1557.73  1564.02
eigval :     1568.93  1573.68  1595.99  3076.25  3079.68  3081.29
eigval :     3085.50  3087.54  3087.92  3091.44  3092.79  3093.49
eigval :     3094.36  3098.46  3100.18  3101.61  3105.03  3106.17

   temp. (K)  partition function   enthalpy   heat capacity  entropy
                                   cal/mol     cal/K/mol   cal/K/mol   J/K/mol
 298.15  VIB  0.596E+08            11823.314     80.283     70.025
         ROT  0.170E+08              888.752      2.981     36.071
         INT  0.102E+16            12712.066     83.264    106.096
         TR   0.698E+28             1481.254      4.968     43.625
         TOT                       14193.3201    88.2317   149.7215   626.4346

       T/K    H(0)-H(T)+PV         H(T)/Eh          T*S/Eh         G(T)/Eh
   ------------------------------------------------------------------------
    298.15    0.226185E-01    0.344925E+00    0.711375E-01    0.273788E+00
   ------------------------------------------------------------------------

         :::::::::::::::::::::::::::::::::::::::::::::::::::::
         ::                  THERMODYNAMIC                  ::
         :::::::::::::::::::::::::::::::::::::::::::::::::::::
         :: total free energy         -74.105272809040 Eh   ::
         ::.................................................::
         :: total energy              -74.379060731727 Eh   ::
         :: zero point energy           0.322306929884 Eh   ::
         :: G(RRHO) w/o ZPVE           -0.048519007197 Eh   ::
         :: G(RRHO) contrib.            0.273787922687 Eh   ::
         :::::::::::::::::::::::::::::::::::::::::::::::::::::

           -------------------------------------------------
          | TOTAL ENERGY              -74.379060731727 Eh   |
          | TOTAL ENTHALPY            -74.034135306543 Eh   |
          | TOTAL FREE ENERGY         -74.105272809040 Eh   |
          | GRADIENT NORM               0.000076246405 Eh/α |
          | HOMO-LUMO GAP               1.344479617176 eV   |
           -------------------------------------------------

 * finished run on 2025/08/26 at 12:48:24.363
