   * xtb version 6.7.1 (edcfbbe) compiled by 'albert@albert-system' on 2024-07-22

   ID    Z sym.   atoms
    1    8 O      1, 10
    2    6 C      2-9, 11-13, 15-29
    3    7 N      14
    4    1 H      30-44

          program call               : xtb data2507/toluene/Cz–AQ/Cz–AQ.xyz --gfn 2 --gbsa toluene --ohess vtight --parallel 40 --molden --ceasefiles --namespace data2507/toluene/Cz–AQ/Cz–AQ_toluene_S0_preOpt
      * Solvation model:               GBSA
        Solvent                        toluene
        Solvent mass                       9.2140E+01 g/mol
          :  Hamiltonian                  GFN2-xTB          :
 * total energy  :   -74.4252222 Eh     change       -0.3325482E-09 Eh
 * total energy  :   -74.4328117 Eh     change       -0.7589542E-02 Eh
 * total energy  :   -74.4343030 Eh     change       -0.1491264E-02 Eh
 * total energy  :   -74.4344879 Eh     change       -0.1849421E-03 Eh
 * total energy  :   -74.4345638 Eh     change       -0.7591483E-04 Eh
 * total energy  :   -74.4345791 Eh     change       -0.1530332E-04 Eh
 * total energy  :   -74.4345912 Eh     change       -0.1204517E-04 Eh
 * total energy  :   -74.4345963 Eh     change       -0.5099319E-05 Eh
 * total energy  :   -74.4346019 Eh     change       -0.5602945E-05 Eh
 * total energy  :   -74.4346056 Eh     change       -0.3727140E-05 Eh
 * total energy  :   -74.4346092 Eh     change       -0.3547931E-05 Eh
 * total energy  :   -74.4346125 Eh     change       -0.3336439E-05 Eh
 * total energy  :   -74.4346147 Eh     change       -0.2222618E-05 Eh
 * total energy  :   -74.4346159 Eh     change       -0.1129744E-05 Eh
 * total energy  :   -74.4346162 Eh     change       -0.3606368E-06 Eh
 * total energy  :   -74.4346163 Eh     change       -0.1297065E-06 Eh
 * total energy  :   -74.4346163 Eh     change        0.6226301E-08 Eh
 * total energy  :   -74.4346164 Eh     change       -0.1049484E-06 Eh
 * total energy  :   -74.4346165 Eh     change       -0.8865374E-07 Eh
   *** GEOMETRY OPTIMIZATION CONVERGED AFTER 19 ITERATIONS ***

 final structure:
================
44
 xtb: 6.7.1 (edcfbbe)
O            3.87573489451360       -2.50659574688008        1.42124711717671
C            3.55302865678598       -1.49532170161006        0.81131701268034
C            4.56034936689827       -0.59284510348190        0.21477658415532
C            5.91085196298465       -0.89501060127959        0.37228521741662
C            6.88704903334960       -0.07667244354611       -0.16808505971030
C            6.52389796003979        1.05958113383679       -0.87633986758800
C            5.18623020900036        1.36994307348148       -1.04325294534044
C            4.19316872970697        0.55503586970027       -0.50304829885288
C            2.77975805759583        0.92703129640812       -0.70503859872979
O            2.45525619218334        1.92436267082350       -1.33200501617272
C            1.77332477963503        0.03160544655684       -0.09387174862906
C            0.42981017648655        0.34286085997657       -0.25074182891578
C           -0.56385487443414       -0.45672427377450        0.31351635918396
N           -1.90480389733580       -0.13132754261863        0.15156763842593
C           -2.92136566123473       -1.01566133793619       -0.18173828916139
C           -2.85630188864849       -2.36608608325862       -0.49293702844601
C           -4.03285534059297       -3.00949090555428       -0.83202992642484
C           -5.24751927161807       -2.33021754913085       -0.87493859463581
C           -5.31289603480027       -0.97788499298334       -0.60031899238118
C           -4.14386100495159       -0.31204706794554       -0.25720924754850
C           -3.84914300304136        1.06122979690430        0.05289027008929
C           -4.63610890538112        2.20027517691402        0.15780835668345
C           -4.03147527132896        3.39151943955337        0.50957309189028
C           -2.66567679719081        3.44803512498953        0.77454950869967
C           -1.86314111918845        2.32557865507196        0.67769292992454
C           -2.45876529602742        1.13353727367680        0.29184700410973
C           -0.18822611689643       -1.59029564658278        1.04254760612462
C            1.14435181117076       -1.90877424905780        1.18868280793680
C            2.14480718402349       -1.11262643290398        0.62874967099463
H            6.17173607005871       -1.78450985066772        0.92722432769511
H            7.92950593522929       -0.32395867388236       -0.03635012067249
H            7.28214568371285        1.70146229728913       -1.29854268741890
H            4.88081582125811        2.24867116528633       -1.59256282569863
H            0.17075847347694        1.20779198780341       -0.84325595970949
H           -1.92018131686776       -2.90274388315922       -0.48952280890151
H           -4.00613982955947       -4.06206457670445       -1.07264349274522
H           -6.14545533171710       -2.86852028877028       -1.13976310029741
H           -6.24973586664408       -0.44469394351092       -0.65624896253396
H           -5.69840930153968        2.15030810301868       -0.02699375280527
H           -4.62376144038781        4.29070532275707        0.59253560888140
H           -2.22123891333325        4.38806228998664        1.06663142287451
H           -0.81031747791620        2.38419169902254        0.90732505977335
H           -0.94625827109451       -2.19905935602233        1.51047826459038
H            1.44491223362048       -2.77866043179570        1.75419329401284

          :  Hamiltonian                  GFN2-xTB          :
         :: gradient norm              0.000067379793 Eh/a0 ::
         :: HOMO-LUMO gap              1.103441114664 eV    ::
         :: SCC energy               -75.728695106261 Eh    ::
         :: -> dispersion             -0.058296269563 Eh    ::
         :: -> Gsolv                  -0.034101730680 Eh    ::
         :: repulsion energy           1.294078575224 Eh    ::

    * Orbital Energies and Occupations

         #    Occupation            Energy/Eh            Energy/eV
      -------------------------------------------------------------
         1        2.0000           -0.7225214             -19.6608
       ...           ...                  ...                  ...
        56        2.0000           -0.4405665             -11.9884
        57        2.0000           -0.4365291             -11.8786
        58        2.0000           -0.4329626             -11.7815
        59        2.0000           -0.4303734             -11.7111
        60        2.0000           -0.4294990             -11.6873
        61        2.0000           -0.4273579             -11.6290
        62        2.0000           -0.4239780             -11.5370
        63        2.0000           -0.4234296             -11.5221
        64        2.0000           -0.4179435             -11.3728
        65        2.0000           -0.4114985             -11.1974
        66        2.0000           -0.3996836             -10.8759
        67        2.0000           -0.3850871             -10.4788
        68        2.0000           -0.3728594             -10.1460 (HOMO)
        69                         -0.3323088              -9.0426 (LUMO)
        70                         -0.2853111              -7.7637
        71                         -0.2561183              -6.9693
        72                         -0.2501741              -6.8076
        73                         -0.2479511              -6.7471
        74                         -0.2283364              -6.2133
        75                         -0.2086032              -5.6764
        76                         -0.1954525              -5.3185
        77                         -0.1921573              -5.2289
        78                         -0.1874313              -5.1003
        79                         -0.1226509              -3.3375
       ...                                ...                  ...
       131                          0.7372247              20.0609
      -------------------------------------------------------------
                  HL-Gap            0.0405506 Eh            1.1034 eV

     #   Z          covCN         q      C6AA      α(0)
     1   8 O        0.858    -0.410    21.886     6.272
     2   6 C        2.830     0.224    23.290     7.908
     3   6 C        2.974    -0.012    28.318     8.729
     4   6 C        2.923    -0.013    28.337     8.730
     5   6 C        2.917    -0.016    28.405     8.740
     6   6 C        2.917    -0.017    28.426     8.743
     7   6 C        2.923    -0.013    28.328     8.728
     8   6 C        2.974    -0.014    28.349     8.734
     9   6 C        2.831     0.227    23.239     7.900
    10   8 O        0.858    -0.401    21.697     6.245
    11   6 C        2.973    -0.012    28.318     8.729
    12   6 C        2.927    -0.030    28.748     8.793
    13   6 C        2.909     0.077    26.290     8.408
    14   7 N        2.800    -0.031    21.845     6.942
    15   6 C        3.065     0.045    26.927     8.509
    16   6 C        2.910    -0.050    29.238     8.866
    17   6 C        2.924    -0.032    28.807     8.802
    18   6 C        2.920    -0.038    28.955     8.824
    19   6 C        2.913    -0.032    28.802     8.800
    20   6 C        3.065    -0.013    28.276     8.720
    21   6 C        3.065    -0.013    28.280     8.720
    22   6 C        2.913    -0.032    28.806     8.801
    23   6 C        2.920    -0.038    28.953     8.824
    24   6 C        2.924    -0.032    28.799     8.800
    25   6 C        2.910    -0.048    29.202     8.861
    26   6 C        3.065     0.045    26.919     8.508
    27   6 C        2.919    -0.036    28.905     8.816
    28   6 C        2.922    -0.013    28.342     8.730
    29   6 C        2.973    -0.020    28.507     8.758
    30   1 H        0.926     0.066     2.133     2.284
    31   1 H        0.926     0.063     2.168     2.303
    32   1 H        0.926     0.063     2.169     2.303
    33   1 H        0.926     0.066     2.132     2.283
    34   1 H        0.926     0.072     2.061     2.245
    35   1 H        0.926     0.036     2.509     2.477
    36   1 H        0.926     0.036     2.497     2.471
    37   1 H        0.926     0.035     2.521     2.483
    38   1 H        0.926     0.038     2.481     2.463
    39   1 H        0.926     0.038     2.476     2.461
    40   1 H        0.926     0.035     2.519     2.482
    41   1 H        0.926     0.035     2.511     2.478
    42   1 H        0.926     0.033     2.545     2.495
    43   1 H        0.926     0.067     2.119     2.276
    44   1 H        0.926     0.070     2.090     2.261

molecular dipole:
                 x           y           z       tot (Debye)
 q only:       -0.220       0.080      -0.008
   full:       -0.121       0.073      -0.004       0.360

 projected vibrational frequencies (cm⁻¹)
eigval :       -0.00    -0.00    -0.00     0.00     0.00     0.00
eigval :       17.01    33.18    38.74    40.69   100.51   104.69
eigval :      108.39   132.17   143.96   153.22   164.35   193.86
eigval :      244.69   264.95   273.85   277.36   302.44   368.17
eigval :      371.53   383.29   393.49   397.51   401.87   416.15
eigval :      421.66   437.27   446.87   489.72   502.39   517.74
eigval :      539.29   541.07   579.51   592.55   601.93   616.20
eigval :      639.09   651.53   673.48   676.60   684.05   687.92
eigval :      700.74   712.15   754.96   768.80   771.91   780.61
eigval :      788.98   795.45   845.27   867.78   876.85   885.85
eigval :      895.23   897.00   899.10   904.73   908.32   921.01
eigval :      923.79   930.64   932.81   936.49   953.21  1007.73
eigval :     1014.87  1071.81  1074.29  1081.83  1085.28  1109.62
eigval :     1121.06  1150.75  1163.30  1170.73  1176.54  1178.91
eigval :     1182.08  1209.03  1221.08  1231.02  1234.23  1242.47
eigval :     1251.57  1276.14  1289.74  1297.79  1330.85  1338.84
eigval :     1354.73  1356.12  1359.09  1405.70  1416.36  1419.71
eigval :     1424.52  1454.35  1469.66  1477.90  1483.48  1541.77
eigval :     1558.66  1568.34  1572.02  1575.02  1587.08  1595.16
eigval :     1608.84  1635.93  1650.99  3076.68  3076.98  3082.74
eigval :     3083.45  3084.42  3086.88  3089.70  3090.48  3091.64
eigval :     3092.80  3095.87  3096.88  3098.29  3100.56  3105.31

   temp. (K)  partition function   enthalpy   heat capacity  entropy
                                   cal/mol     cal/K/mol   cal/K/mol   J/K/mol
 298.15  VIB  0.104E+09            11768.198     79.069     70.194
         ROT  0.172E+08              888.752      2.981     36.084
         INT  0.178E+16            12656.950     82.050    106.278
         TR   0.698E+28             1481.254      4.968     43.625
         TOT                       14138.2043    87.0180   149.9032   627.1948

       T/K    H(0)-H(T)+PV         H(T)/Eh          T*S/Eh         G(T)/Eh
   ------------------------------------------------------------------------
    298.15    0.225307E-01    0.347526E+00    0.712238E-01    0.276302E+00
   ------------------------------------------------------------------------

         :::::::::::::::::::::::::::::::::::::::::::::::::::::
         ::                  THERMODYNAMIC                  ::
         :::::::::::::::::::::::::::::::::::::::::::::::::::::
         :: total free energy         -74.158314850927 Eh   ::
         ::.................................................::
         :: total energy              -74.434616525397 Eh   ::
         :: zero point energy           0.324994842381 Eh   ::
         :: G(RRHO) w/o ZPVE           -0.048693167910 Eh   ::
         :: G(RRHO) contrib.            0.276301674470 Eh   ::
         :::::::::::::::::::::::::::::::::::::::::::::::::::::

           -------------------------------------------------
          | TOTAL ENERGY              -74.434616525397 Eh   |
          | TOTAL ENTHALPY            -74.087091020276 Eh   |
          | TOTAL FREE ENERGY         -74.158314850927 Eh   |
          | GRADIENT NORM               0.000067391887 Eh/α |
          | HOMO-LUMO GAP               1.103439228115 eV   |
           -------------------------------------------------

 * finished run on 2025/08/26 at 12:46:17.638
