   * xtb version 6.7.1 (edcfbbe) compiled by 'albert@albert-system' on 2024-07-22

   ID    Z sym.   atoms
    1   17 Cl     1, 19, 35
    2    6 C      2, 4, 6-18, 20, 22-34
    3    7 N      3, 5, 21
    4    1 H      36-51

          program call               : xtb data2507/gas/2,4-CzPyCl3/2,4-CzPyCl3_gas_T1_crest.xyz --gfn 2 --spinpol --tblite --uhf 2 --ohess vtight --parallel 40 --molden --ceasefiles --namespace data2507/gas/2,4-CzPyCl3/2,4-CzPyCl3_gas_T1_finalOpt
 * total energy  :   -92.6759948 Eh     change        0.2671828E-07 Eh
 * total energy  :   -92.6760222 Eh     change       -0.2735686E-04 Eh
 * total energy  :   -92.6760337 Eh     change       -0.1153624E-04 Eh
 * total energy  :   -92.6760367 Eh     change       -0.2929005E-05 Eh
 * total energy  :   -92.6760383 Eh     change       -0.1619953E-05 Eh
 * total energy  :   -92.6760397 Eh     change       -0.1420948E-05 Eh
 * total energy  :   -92.6760410 Eh     change       -0.1268768E-05 Eh
 * total energy  :   -92.6760419 Eh     change       -0.9001333E-06 Eh
 * total energy  :   -92.6760425 Eh     change       -0.6610226E-06 Eh
 * total energy  :   -92.6760431 Eh     change       -0.6120932E-06 Eh
 * total energy  :   -92.6760460 Eh     change       -0.7466726E-06 Eh
 * total energy  :   -92.6760467 Eh     change       -0.7270529E-06 Eh
 * total energy  :   -92.6760474 Eh     change       -0.7096451E-06 Eh
 * total energy  :   -92.6760479 Eh     change       -0.5197974E-06 Eh
 * total energy  :   -92.6760483 Eh     change       -0.3814801E-06 Eh
 * total energy  :   -92.6760486 Eh     change       -0.2428338E-06 Eh
 * total energy  :   -92.6760487 Eh     change       -0.1938132E-06 Eh
 * total energy  :   -92.6760489 Eh     change       -0.1462866E-06 Eh
 * total energy  :   -92.6760489 Eh     change       -0.4819441E-08 Eh
   *** GEOMETRY OPTIMIZATION CONVERGED AFTER 22 ITERATIONS ***

 final structure:
================
51
 xtb: 6.7.1 (edcfbbe)
Cl          -0.39083192073688       -4.12262413527623        1.24586202460090
C           -0.22922475515695       -2.51011747904883        0.69295825744589
N           -1.36050157609471       -1.83344748993394        0.52445988953543
C           -1.36577860213619       -0.57049458142450        0.19036147007147
N           -2.56474664847829        0.06455643702876        0.04019951497853
C           -3.79181593045835       -0.55855318283287       -0.17742457042981
C           -4.09745919080066       -1.90684012084847       -0.28165226884225
C           -5.41506450673698       -2.25279391794142       -0.52911772601990
C           -6.40594943152327       -1.28808541651287       -0.67652781907609
C           -6.10405180167736        0.05947085035644       -0.58217224861816
C           -4.79172190358227        0.42652656981304       -0.33276103966652
C           -4.14387524829150        1.70420322061160       -0.17902130010491
C           -4.61369659648981        3.00715641009643       -0.20329147326409
C           -3.71708552017697        4.03799082797763        0.01711418574473
C           -2.37597038355080        3.77214067658704        0.27124551389681
C           -1.88919704756914        2.47703313879607        0.30409914186279
C           -2.77559670148631        1.44038445644004        0.05511404662248
C           -0.11692191321904        0.13009721262012       -0.11723428193072
Cl          -0.07497878238069        0.76592221755842       -1.79872507353478
C            1.11488240153641       -0.58308739474627        0.22539524191026
N            2.31510564635227        0.10001630859370        0.09521896585985
C            3.40149521604708       -0.25940718577043       -0.67821512978970
C            3.56078884084482       -1.34606076772004       -1.52560144250936
C            4.75285657567705       -1.45054941999681       -2.21911264158811
C            5.75568385006812       -0.49454386174079       -2.08792237803998
C            5.58399295861436        0.61252133144463       -1.27563375756705
C            4.39842492716780        0.73827423746420       -0.56882878631404
C            3.87199376420753        1.75092831124488        0.30960683717951
C            4.36304596582095        2.95308067081074        0.79428517602110
C            3.56690099309524        3.69634645152844        1.64858963443890
C            2.30787990538957        3.24566849323867        2.03575605437641
C            1.80181522952273        2.04399811511619        1.57432992198856
C            2.58259370212368        1.31562556005260        0.69012597140038
C            1.04471372417666       -1.91147137171070        0.57488588842407
Cl           2.45414480790833       -2.79836182372459        1.03274533735335
H           -3.33360521299468       -2.65654800315070       -0.16795126239864
H           -5.67737851751685       -3.29671866521175       -0.61103677215459
H           -7.42241820311126       -1.59621667319085       -0.87035110690686
H           -6.87028491536097        0.81004065654741       -0.70184413415959
H           -5.65791526437403        3.20925003346465       -0.38592874238874
H           -4.06198067359472        5.06087322917896        0.00252019990733
H           -1.69744232044912        4.59145666041373        0.45446868052296
H           -0.84940739824395        2.28772147065957        0.51406323723379
H            2.77978526882870       -2.07852602780217       -1.65388404406610
H            4.90576747645919       -2.29018749011555       -2.88035552533034
H            6.67441488999998       -0.61344513421106       -2.64246801784521
H            6.35106619910706        1.36798730501201       -1.19846519208190
H            5.34544760188015        3.29939885378896        0.51163962283485
H            3.93093266553066        4.63723653224689        2.03328629785644
H            1.71943349085675        3.84023432978205        2.71845829821377
H            0.84172098417613        1.67449733973709        1.90100546724746

 projected vibrational frequencies (cm⁻¹)
eigval :       -0.00    -0.00     0.00     0.00     0.00     0.00
eigval :       13.01    25.16    26.25    40.85    44.65    55.15
eigval :       75.66    88.38    99.83   110.08   130.44   136.90
eigval :      146.79   150.68   154.13   161.64   172.55   195.13
eigval :      218.61   222.05   267.71   273.81   274.29   295.32
eigval :      301.77   337.89   341.07   380.63   395.70   398.71
eigval :      420.92   424.01   433.31   435.15   452.87   480.60
eigval :      492.07   513.90   514.39   518.74   530.14   536.37
eigval :      539.93   551.94   571.84   585.09   588.03   602.14
eigval :      633.40   634.99   640.04   664.28   674.40   676.66
eigval :      709.38   711.78   748.05   752.63   765.11   770.05
eigval :      772.43   775.32   779.56   782.11   869.52   872.04
eigval :      872.38   878.71   887.85   899.44   902.72   904.15
eigval :      906.18   908.76   921.03   922.12   922.97   924.97
eigval :      937.37   960.36  1012.45  1014.43  1033.36  1063.44
eigval :     1067.36  1070.41  1071.77  1108.15  1136.74  1139.31
eigval :     1143.52  1171.47  1173.73  1175.62  1178.07  1182.36
eigval :     1192.41  1204.06  1219.91  1230.17  1234.43  1239.40
eigval :     1269.91  1286.89  1288.13  1292.51  1301.46  1340.79
eigval :     1341.82  1349.85  1360.30  1364.05  1368.41  1406.91
eigval :     1412.46  1415.00  1422.25  1458.42  1462.83  1464.45
eigval :     1479.33  1481.90  1497.48  1570.62  1573.20  1580.18
eigval :     1582.23  1583.57  1586.26  1601.20  1603.09  3081.24
eigval :     3082.57  3083.81  3085.00  3086.03  3089.26  3091.38
eigval :     3092.98  3093.33  3097.18  3099.23  3099.53  3101.01
eigval :     3105.02  3111.04  3132.33

   temp. (K)  partition function   enthalpy   heat capacity  entropy
                                   cal/mol     cal/K/mol   cal/K/mol   J/K/mol
 298.15  VIB  0.500E+12            15974.738    100.897     98.286
         ROT  0.315E+08              888.752      2.981     37.290
         INT  0.157E+20            16863.490    103.878    135.577
         TR   0.112E+29             1481.254      4.968     44.571
         TOT                       18344.7443   108.8464   180.1472   753.7361

       T/K    H(0)-H(T)+PV         H(T)/Eh          T*S/Eh         G(T)/Eh
   ------------------------------------------------------------------------
    298.15    0.292342E-01    0.387011E+00    0.855938E-01    0.301418E+00
   ------------------------------------------------------------------------

         :::::::::::::::::::::::::::::::::::::::::::::::::::::
         ::                  THERMODYNAMIC                  ::
         :::::::::::::::::::::::::::::::::::::::::::::::::::::
         :: total free energy         -92.374631204344 Eh   ::
         ::.................................................::
         :: total energy              -92.676048895873 Eh   ::
         :: zero point energy           0.357777250213 Eh   ::
         :: G(RRHO) w/o ZPVE           -0.056359558683 Eh   ::
         :: G(RRHO) contrib.            0.301417691529 Eh   ::
         :::::::::::::::::::::::::::::::::::::::::::::::::::::

           -------------------------------------------------
          | TOTAL ENERGY              -92.676048895873 Eh   |
          | TOTAL ENTHALPY            -92.289037434796 Eh   |
          | TOTAL FREE ENERGY         -92.374631204344 Eh   |
          | GRADIENT NORM               0.000030527584 Eh/α |
           -------------------------------------------------

 * finished run on 2025/08/25 at 02:30:52.973
