   * xtb version 6.7.1 (edcfbbe) compiled by 'albert@albert-system' on 2024-07-22

   ID    Z sym.   atoms
    1   17 Cl     1, 19, 35
    2    6 C      2, 4, 6-18, 20, 22-34
    3    7 N      3, 5, 21
    4    1 H      36-51

          program call               : xtb data2507/gas/2,4-CzPyCl3/2,4-CzPyCl3.xyz --gfn 2 --ohess vtight --parallel 40 --molden --ceasefiles --namespace data2507/gas/2,4-CzPyCl3/2,4-CzPyCl3_gas_S0_preOpt
          :  Hamiltonian                  GFN2-xTB          :
 * total energy  :   -92.7495263 Eh     change       -0.7377750E-08 Eh
 * total energy  :   -92.7637757 Eh     change       -0.1424941E-01 Eh
 * total energy  :   -92.7669429 Eh     change       -0.3167217E-02 Eh
 * total energy  :   -92.7673925 Eh     change       -0.4496416E-03 Eh
 * total energy  :   -92.7677520 Eh     change       -0.3594539E-03 Eh
 * total energy  :   -92.7679312 Eh     change       -0.1792377E-03 Eh
 * total energy  :   -92.7681215 Eh     change       -0.1902591E-03 Eh
 * total energy  :   -92.7682644 Eh     change       -0.1429307E-03 Eh
 * total energy  :   -92.7683718 Eh     change       -0.1073805E-03 Eh
 * total energy  :   -92.7684543 Eh     change       -0.8249870E-04 Eh
 * total energy  :   -92.7688983 Eh     change       -0.2166641E-05 Eh
 * total energy  :   -92.7689001 Eh     change       -0.1794357E-05 Eh
 * total energy  :   -92.7689017 Eh     change       -0.1604871E-05 Eh
 * total energy  :   -92.7689029 Eh     change       -0.1240746E-05 Eh
 * total energy  :   -92.7689038 Eh     change       -0.9338841E-06 Eh
 * total energy  :   -92.7689045 Eh     change       -0.6787795E-06 Eh
 * total energy  :   -92.7689051 Eh     change       -0.5468988E-06 Eh
 * total energy  :   -92.7689056 Eh     change       -0.5348187E-06 Eh
 * total energy  :   -92.7689056 Eh     change       -0.5231556E-08 Eh
   *** GEOMETRY OPTIMIZATION CONVERGED AFTER 44 ITERATIONS ***

 final structure:
================
51
 xtb: 6.7.1 (edcfbbe)
Cl          -0.42885572822312       -3.25525005669076        3.51338476381724
C           -0.22477593882007       -2.07316477340801        2.29456509629428
N           -1.32257491894483       -1.56646880093692        1.78557466285899
C           -1.26429462242743       -0.64978061969128        0.82521901027334
N           -2.46833231943628       -0.16910740305394        0.35900806411665
C           -3.58025581757737       -0.95601852355521        0.07040873004719
C           -3.74631709348762       -2.32405608622745        0.19749016302983
C           -4.95161034958287       -2.86496737831965       -0.21277116644226
C           -5.96372878030644       -2.06827937961120       -0.74065965154958
C           -5.79752462472988       -0.70342972828615       -0.87389344820034
C           -4.59674985133693       -0.13913486588958       -0.46543362292004
C           -4.09675033995606        1.21054826605566       -0.45003286826152
C           -4.65620536698732        2.43275190826267       -0.79469813419158
C           -3.91563317039915        3.58078205012060       -0.58892808972877
C           -2.64798112097146        3.51955614256623       -0.01897412399498
C           -2.07191221203496        2.31164686013009        0.33122644045802
C           -2.78902274121660        1.15343550654798        0.07799039561456
C           -0.02940458293104       -0.25793933480419        0.28223996139932
Cl           0.06228235233544        0.69681364390030       -1.15571691224912
C            1.15173996023498       -0.75759546067863        0.84265618280119
N            2.39071490513850       -0.38146249476872        0.34494666980928
C            3.34922762907681       -1.23582890195009       -0.17726758435002
C            3.29058968182611       -2.60546129254289       -0.37570589158119
C            4.38757536255231       -3.21631553576114       -0.95497471888679
C            5.50687481787772       -2.48395706791683       -1.34110894485366
C            5.55405662381737       -1.11377589404155       -1.17322396805685
C            4.46581785900464       -0.47838248669989       -0.59071992264785
C            4.16462751970817        0.89708174837841       -0.29548257782302
C            4.86791637204263        2.08405362497782       -0.44905757527468
C            4.27845395640987        3.26083022105863       -0.02967414271877
C            3.01417585840020        3.26272604070346        0.55318944300421
C            2.29711763789728        2.09247781056116        0.72041717667883
C            2.87328837076105        0.91523152801172        0.27323138313021
C            1.05079630479570       -1.67435126201505        1.90144709983268
Cl           2.45983513658156       -2.26869339142342        2.68730867360118
H           -2.96729888007157       -2.94118957245121        0.61450067043575
H           -5.11096988690499       -3.92876398844403       -0.11955969107196
H           -6.89111053090796       -2.52737942794352       -1.04900707453373
H           -6.58036166842903       -0.08556923703403       -1.28663868112356
H           -5.65364676189920        2.48104430479158       -1.20397555063052
H           -4.33049469261955        4.54183953803242       -0.85321967904394
H           -2.10352576434397        4.43420880174040        0.16203623619692
H           -1.10223648348439        2.28441563434334        0.80261241529544
H            2.41965352242911       -3.17839514616075       -0.09577173246998
H            4.37278489586284       -4.28403101585963       -1.11472943557930
H            6.34433877508253       -2.99791528398698       -1.78854217627409
H            6.41383612719108       -0.54420673052864       -1.49147599847532
H            5.85603191494062        2.08181739960378       -0.88322418811725
H            4.80727884668368        4.19514049818304       -0.14409985663237
H            2.58604355402178        4.19638959729982        0.88615174654751
H            1.32651826335768        2.09808201541220        1.19296542243858

          :  Hamiltonian                  GFN2-xTB          :
         :: gradient norm              0.000056684385 Eh/a0 ::
         :: HOMO-LUMO gap              2.436781919768 eV    ::
         :: SCC energy               -94.229656550613 Eh    ::
         :: -> dispersion             -0.081692539762 Eh    ::
         :: repulsion energy           1.460750946138 Eh    ::

    * Orbital Energies and Occupations

         #    Occupation            Energy/Eh            Energy/eV
      -------------------------------------------------------------
         1        2.0000           -1.0779529             -29.3326
       ...           ...                  ...                  ...
        72        2.0000           -0.4303900             -11.7115
        73        2.0000           -0.4283331             -11.6555
        74        2.0000           -0.4268622             -11.6155
        75        2.0000           -0.4265010             -11.6057
        76        2.0000           -0.4249636             -11.5638
        77        2.0000           -0.4163643             -11.3299
        78        2.0000           -0.4139705             -11.2647
        79        2.0000           -0.4124603             -11.2236
        80        2.0000           -0.4120725             -11.2131
        81        2.0000           -0.3875287             -10.5452
        82        2.0000           -0.3873226             -10.5396
        83        2.0000           -0.3781056             -10.2888
        84        2.0000           -0.3777074             -10.2779 (HOMO)
        85                         -0.2881574              -7.8412 (LUMO)
        86                         -0.2784415              -7.5768
        87                         -0.2530044              -6.8846
        88                         -0.2516660              -6.8482
        89                         -0.2302994              -6.2668
        90                         -0.2299466              -6.2572
        91                         -0.2088637              -5.6835
        92                         -0.2009081              -5.4670
        93                         -0.1943629              -5.2889
        94                         -0.1939601              -5.2779
        95                         -0.1758635              -4.7855
       ...                                ...                  ...
       171                          0.7376173              20.0716
      -------------------------------------------------------------
                  HL-Gap            0.0895500 Eh            2.4368 eV

     #   Z          covCN         q      C6AA      α(0)
     1  17 Cl       1.017    -0.096   102.166    15.464
     2   6 C        2.888     0.163    24.474     8.111
     3   7 N        1.920    -0.233    26.936     7.695
     4   6 C        2.909     0.142    24.911     8.184
     5   7 N        2.805    -0.024    21.709     6.920
     6   6 C        3.066     0.052    26.768     8.484
     7   6 C        2.910    -0.043    29.063     8.840
     8   6 C        2.925    -0.029    28.737     8.791
     9   6 C        2.920    -0.037    28.910     8.817
    10   6 C        2.913    -0.031    28.776     8.796
    11   6 C        3.065    -0.010    28.208     8.709
    12   6 C        3.065    -0.010    28.188     8.706
    13   6 C        2.913    -0.031    28.764     8.794
    14   6 C        2.920    -0.037    28.913     8.818
    15   6 C        2.924    -0.030    28.758     8.794
    16   6 C        2.911    -0.042    29.055     8.839
    17   6 C        3.061     0.048    26.853     8.498
    18   6 C        2.882     0.046    26.972     8.514
    19  17 Cl       0.953    -0.124   103.020    15.528
    20   6 C        2.980     0.066    26.520     8.447
    21   7 N        2.804    -0.028    21.775     6.931
    22   6 C        3.068     0.050    26.804     8.489
    23   6 C        2.910    -0.044    29.100     8.846
    24   6 C        2.925    -0.030    28.744     8.792
    25   6 C        2.920    -0.037    28.929     8.820
    26   6 C        2.913    -0.031    28.764     8.795
    27   6 C        3.067    -0.011    28.228     8.712
    28   6 C        3.067    -0.011    28.226     8.712
    29   6 C        2.913    -0.031    28.761     8.794
    30   6 C        2.920    -0.038    28.934     8.821
    31   6 C        2.925    -0.030    28.754     8.794
    32   6 C        2.910    -0.044    29.082     8.843
    33   6 C        3.069     0.050    26.802     8.489
    34   6 C        2.916     0.050    26.877     8.501
    35  17 Cl       0.969    -0.112   102.648    15.500
    36   1 H        0.926     0.045     2.379     2.412
    37   1 H        0.926     0.038     2.477     2.461
    38   1 H        0.926     0.035     2.513     2.479
    39   1 H        0.926     0.037     2.487     2.466
    40   1 H        0.926     0.038     2.479     2.462
    41   1 H        0.926     0.035     2.518     2.481
    42   1 H        0.926     0.036     2.504     2.474
    43   1 H        0.926     0.028     2.610     2.526
    44   1 H        0.926     0.029     2.607     2.525
    45   1 H        0.926     0.035     2.511     2.478
    46   1 H        0.926     0.034     2.533     2.489
    47   1 H        0.926     0.036     2.500     2.472
    48   1 H        0.926     0.036     2.497     2.471
    49   1 H        0.926     0.034     2.534     2.490
    50   1 H        0.926     0.035     2.523     2.484
    51   1 H        0.926     0.024     2.679     2.560

molecular dipole:
                 x           y           z       tot (Debye)
 q only:       -0.307       0.458      -0.573
   full:        0.129       0.485      -0.576       1.942

 projected vibrational frequencies (cm⁻¹)
eigval :       -0.00    -0.00    -0.00    -0.00     0.00     0.00
eigval :       20.47    23.60    27.11    41.43    45.45    51.24
eigval :       87.32    93.02   104.90   114.87   134.91   141.76
eigval :      151.88   154.46   168.83   176.72   184.51   197.68
eigval :      217.11   270.43   271.58   274.97   285.45   289.37
eigval :      315.71   326.86   346.70   377.67   396.39   398.34
eigval :      420.09   422.58   434.22   438.60   489.81   497.02
eigval :      514.75   516.99   520.43   527.58   540.01   541.63
eigval :      542.23   580.30   587.92   589.33   606.52   618.50
eigval :      641.95   654.45   672.40   674.19   675.44   697.69
eigval :      707.60   710.54   751.86   756.11   769.29   771.68
eigval :      773.18   781.07   782.68   819.17   868.55   871.66
eigval :      874.00   876.16   894.09   899.52   902.12   904.17
eigval :      904.61   905.42   922.00   923.23   923.66   923.91
eigval :      946.74  1013.00  1014.12  1047.12  1065.57  1068.73
eigval :     1070.14  1073.18  1075.59  1130.68  1148.56  1151.22
eigval :     1153.62  1177.57  1178.34  1180.24  1181.19  1204.79
eigval :     1224.90  1230.71  1234.50  1244.31  1263.81  1282.18
eigval :     1287.55  1295.51  1298.36  1305.27  1316.89  1355.22
eigval :     1357.28  1358.99  1360.68  1405.09  1405.59  1424.23
eigval :     1426.94  1432.72  1461.98  1466.07  1473.34  1474.95
eigval :     1484.71  1486.23  1509.46  1577.49  1578.28  1591.59
eigval :     1592.66  1599.54  1600.67  1610.80  1612.80  3079.37
eigval :     3081.09  3081.38  3082.17  3084.08  3085.70  3088.05
eigval :     3089.48  3091.46  3093.49  3096.35  3097.92  3099.10
eigval :     3100.42  3102.32  3112.68

   temp. (K)  partition function   enthalpy   heat capacity  entropy
                                   cal/mol     cal/K/mol   cal/K/mol   J/K/mol
 298.15  VIB  0.167E+12            15664.465     99.620     95.564
         ROT  0.317E+08              888.752      2.981     37.304
         INT  0.528E+19            16553.217    102.601    132.868
         TR   0.112E+29             1481.254      4.968     44.571
         TOT                       18034.4711   107.5687   177.4387   742.4034

       T/K    H(0)-H(T)+PV         H(T)/Eh          T*S/Eh         G(T)/Eh
   ------------------------------------------------------------------------
    298.15    0.287398E-01    0.389347E+00    0.843068E-01    0.305041E+00
   ------------------------------------------------------------------------

         :::::::::::::::::::::::::::::::::::::::::::::::::::::
         ::                  THERMODYNAMIC                  ::
         :::::::::::::::::::::::::::::::::::::::::::::::::::::
         :: total free energy         -92.463865084881 Eh   ::
         ::.................................................::
         :: total energy              -92.768905604476 Eh   ::
         :: zero point energy           0.360607594183 Eh   ::
         :: G(RRHO) w/o ZPVE           -0.055567074588 Eh   ::
         :: G(RRHO) contrib.            0.305040519595 Eh   ::
         :::::::::::::::::::::::::::::::::::::::::::::::::::::

           -------------------------------------------------
          | TOTAL ENERGY              -92.768905604476 Eh   |
          | TOTAL ENTHALPY            -92.379558251284 Eh   |
          | TOTAL FREE ENERGY         -92.463865084881 Eh   |
          | GRADIENT NORM               0.000056711830 Eh/α |
          | HOMO-LUMO GAP               2.436779140467 eV   |
           -------------------------------------------------

 * finished run on 2025/08/25 at 02:24:50.455
