   * xtb version 6.7.1 (edcfbbe) compiled by 'albert@albert-system' on 2024-07-22

   ID    Z sym.   atoms
    1   17 Cl     1, 19, 35
    2    6 C      2, 4, 6-18, 20, 22-34
    3    7 N      3, 5, 21
    4    1 H      36-51

          program call               : xtb data2507/gas/2,4-CzPyCl3/2,4-CzPyCl3_gas_S0_finalOpt.xtbopt.xyz --gfn 2 --spinpol --tblite --uhf 2 --ohess vtight --parallel 40 --molden --ceasefiles --namespace data2507/gas/2,4-CzPyCl3/2,4-CzPyCl3_gas_T1_preOpt
 * total energy  :   -92.6673989 Eh     change       -0.3463597E-07 Eh
 * total energy  :   -92.6710998 Eh     change       -0.3700922E-02 Eh
 * total energy  :   -92.6724888 Eh     change       -0.1388996E-02 Eh
 * total energy  :   -92.6726325 Eh     change       -0.1436841E-03 Eh
 * total energy  :   -92.6727507 Eh     change       -0.1182035E-03 Eh
 * total energy  :   -92.6727737 Eh     change       -0.2296362E-04 Eh
 * total energy  :   -92.6727999 Eh     change       -0.2619044E-04 Eh
 * total energy  :   -92.6728102 Eh     change       -0.1031224E-04 Eh
 * total energy  :   -92.6728222 Eh     change       -0.1197250E-04 Eh
 * total energy  :   -92.6728311 Eh     change       -0.8970118E-05 Eh
 * total energy  :   -92.6729457 Eh     change       -0.3183887E-06 Eh
 * total energy  :   -92.6729460 Eh     change       -0.2625332E-06 Eh
 * total energy  :   -92.6729463 Eh     change       -0.2542535E-06 Eh
 * total energy  :   -92.6729465 Eh     change       -0.2414442E-06 Eh
 * total energy  :   -92.6729468 Eh     change       -0.2526492E-06 Eh
 * total energy  :   -92.6729470 Eh     change       -0.2787938E-06 Eh
 * total energy  :   -92.6729474 Eh     change       -0.3221558E-06 Eh
 * total energy  :   -92.6729478 Eh     change       -0.4243116E-06 Eh
 * total energy  :   -92.6729478 Eh     change       -0.7126090E-08 Eh
   *** GEOMETRY OPTIMIZATION CONVERGED AFTER 44 ITERATIONS ***

 final structure:
================
51
 xtb: 6.7.1 (edcfbbe)
Cl          -0.24936942895249       -3.86507268374889        1.88367771099525
C           -0.17273621353309       -2.30897576706870        1.15738259629212
N           -1.32630938806788       -1.78549011719724        0.82292791896254
C           -1.33650479626973       -0.49587607563544        0.30037720370017
N           -2.59211744140753        0.02018070559644        0.04307710236455
C           -3.61738557286777       -0.67077341014792       -0.57213392187206
C           -3.64335982170926       -1.98378196068355       -1.02098013625940
C           -4.80683139546432       -2.43512093170412       -1.61837431379581
C           -5.90976298579842       -1.59917420171732       -1.77847596047320
C           -5.88542962706095       -0.28472966115125       -1.33766841690347
C           -4.73419254527678        0.18800693077010       -0.73021342574116
C           -4.35996160529172        1.45235096176473       -0.15468352335253
C           -5.02056123980096        2.65759219127195        0.01553658733051
C           -4.37269624247585        3.68022997088063        0.68956917829284
C           -3.09540708184178        3.49843227298666        1.21611816242508
C           -2.41399668362092        2.30666423897964        1.05192878407797
C           -3.03641267400742        1.29389827561870        0.33311624516215
C           -0.15481606766932        0.16798507278003       -0.00175025432837
Cl          -0.17897574978526        1.63610476161753       -0.93165080834800
C            1.08036329895696       -0.40289623255695        0.30430258526421
N            2.29088575555560        0.18946482531396       -0.03515587653416
C            3.25752469493445       -0.36856369021119       -0.84394271774918
C            3.24978419146788       -1.58946915632315       -1.50410792087049
C            4.35592534237373       -1.91256535140286       -2.26752952134009
C            5.43823834328048       -1.04187825386976       -2.37902524822581
C            5.44076115498297        0.18617947896746       -1.73855455026106
C            4.34216249967649        0.53394353136598       -0.96881526671135
C            3.99316081750070        1.69689694039702       -0.19689417159703
C            4.62948952390874        2.89775316701963        0.07212639903044
C            3.99920610426982        3.81117579858511        0.90116793409357
C            2.75934552814683        3.53181687085900        1.47270995462785
C            2.10373161040995        2.34243287572174        1.21754636776385
C            2.71901862111292        1.43421740602027        0.36608682837909
C            1.05588745501469       -1.70035799409920        0.97717191847011
Cl           2.50334723798575       -2.31490284917116        1.65949952028380
H           -2.78684199606410       -2.62411541216929       -0.88903181557928
H           -4.86016659286208       -3.45340157823770       -1.97210184254957
H           -6.79902816457487       -1.98371848543744       -2.25514617022081
H           -6.74479154808581        0.35630799457663       -1.46295324042405
H           -6.02312716067293        2.79197203313529       -0.36086383854315
H           -4.87087306370194        4.62782299142306        0.82870562505319
H           -2.63127062923780        4.30152631082289        1.76797355779901
H           -1.43816381870401        2.16415195953117        1.48761279285438
H            2.40757007478364       -2.25943634924585       -1.42476622754351
H            4.38083949548589       -2.85638582832467       -2.79076833530560
H            6.28606255211283       -1.33007544089891       -2.98224103899222
H            6.27823279868056        0.85999905986161       -1.83734907681873
H            5.59828755927398        3.11323133589943       -0.35223521482941
H            4.47936159840843        4.75328645443988        1.11927420271283
H            2.30462187604264        4.25751380063623        2.12999057986084
H            1.15214332428499        2.11918692875040        1.67437555970496

 projected vibrational frequencies (cm⁻¹)
eigval :       -0.00    -0.00    -0.00     0.00     0.00     0.00
eigval :       17.07    19.55    26.36    36.49    42.61    46.77
eigval :       78.83    83.76   102.19   104.60   131.47   136.99
eigval :      146.25   150.06   162.51   172.13   178.51   193.03
eigval :      211.42   231.33   264.48   267.88   273.04   283.36
eigval :      306.20   324.43   330.92   363.07   386.72   392.49
eigval :      414.07   416.20   417.22   429.75   433.44   483.95
eigval :      489.01   501.39   510.07   511.45   526.93   529.72
eigval :      532.59   535.17   560.66   574.61   583.33   587.59
eigval :      605.18   626.19   642.95   668.59   669.82   688.57
eigval :      705.34   706.48   741.30   753.01   759.03   763.75
eigval :      766.12   770.68   772.98   804.94   862.14   863.04
eigval :      866.40   868.15   890.89   892.35   898.97   900.53
eigval :      901.51   902.22   913.03   914.91   915.34   917.22
eigval :      918.32   967.02  1005.40  1007.90  1030.72  1047.10
eigval :     1061.69  1063.12  1065.87  1068.03  1111.67  1122.97
eigval :     1126.56  1132.37  1167.35  1173.33  1174.20  1175.35
eigval :     1182.09  1195.23  1217.56  1223.85  1225.90  1238.98
eigval :     1260.48  1269.25  1283.72  1287.57  1298.24  1320.82
eigval :     1327.36  1341.90  1355.82  1366.22  1370.94  1395.76
eigval :     1397.41  1401.86  1409.30  1440.18  1453.37  1454.79
eigval :     1457.83  1477.69  1480.23  1550.16  1554.67  1557.97
eigval :     1561.21  1568.01  1570.49  1582.45  1589.67  3082.43
eigval :     3083.06  3083.26  3084.83  3087.72  3089.03  3090.91
eigval :     3092.48  3094.45  3095.94  3098.76  3099.73  3100.58
eigval :     3101.46  3106.73  3116.69

   temp. (K)  partition function   enthalpy   heat capacity  entropy
                                   cal/mol     cal/K/mol   cal/K/mol   J/K/mol
 298.15  VIB  0.736E+12            16145.804    101.580     99.018
         ROT  0.319E+08              888.752      2.981     37.319
         INT  0.235E+20            17034.557    104.561    136.337
         TR   0.112E+29             1481.254      4.968     44.571
         TOT                       18515.8104   109.5288   180.9078   756.9182

       T/K    H(0)-H(T)+PV         H(T)/Eh          T*S/Eh         G(T)/Eh
   ------------------------------------------------------------------------
    298.15    0.295068E-01    0.385013E+00    0.859551E-01    0.299058E+00
   ------------------------------------------------------------------------

         :::::::::::::::::::::::::::::::::::::::::::::::::::::
         ::                  THERMODYNAMIC                  ::
         :::::::::::::::::::::::::::::::::::::::::::::::::::::
         :: total free energy         -92.373889599555 Eh   ::
         ::.................................................::
         :: total energy              -92.672947776096 Eh   ::
         :: zero point energy           0.355506484669 Eh   ::
         :: G(RRHO) w/o ZPVE           -0.056448308128 Eh   ::
         :: G(RRHO) contrib.            0.299058176541 Eh   ::
         :::::::::::::::::::::::::::::::::::::::::::::::::::::

           -------------------------------------------------
          | TOTAL ENERGY              -92.672947776096 Eh   |
          | TOTAL ENTHALPY            -92.287934469293 Eh   |
          | TOTAL FREE ENERGY         -92.373889599555 Eh   |
          | GRADIENT NORM               0.000044075967 Eh/α |
           -------------------------------------------------

 * finished run on 2025/08/25 at 02:27:28.969
