   * xtb version 6.7.1 (edcfbbe) compiled by 'albert@albert-system' on 2024-07-22

   ID    Z sym.   atoms
    1   17 Cl     1, 19, 35
    2    6 C      2, 4, 6-18, 20, 22-34
    3    7 N      3, 5, 21
    4    1 H      36-51

          program call               : xtb data2507/gas/2,4-CzPyCl3/2,4-CzPyCl3_gas_S0_crest.xyz --gfn 2 --ohess vtight --parallel 40 --molden --ceasefiles --namespace data2507/gas/2,4-CzPyCl3/2,4-CzPyCl3_gas_S0_finalOpt
          :  Hamiltonian                  GFN2-xTB          :
 * total energy  :   -92.7689122 Eh     change       -0.4976513E-08 Eh
 * total energy  :   -92.7689124 Eh     change       -0.2300721E-06 Eh
 * total energy  :   -92.7689127 Eh     change       -0.2435156E-06 Eh
 * total energy  :   -92.7689130 Eh     change       -0.2615770E-06 Eh
 * total energy  :   -92.7689131 Eh     change       -0.1705701E-06 Eh
 * total energy  :   -92.7689133 Eh     change       -0.1664574E-06 Eh
 * total energy  :   -92.7689135 Eh     change       -0.1886209E-06 Eh
 * total energy  :   -92.7689137 Eh     change       -0.1846199E-06 Eh
 * total energy  :   -92.7689138 Eh     change       -0.1428415E-06 Eh
 * total energy  :   -92.7689139 Eh     change       -0.1064479E-06 Eh
 * total energy  :   -92.7689140 Eh     change       -0.8858670E-07 Eh
   *** GEOMETRY OPTIMIZATION CONVERGED AFTER 11 ITERATIONS ***

 final structure:
================
51
 xtb: 6.7.1 (edcfbbe)
Cl          -0.25945846472270       -3.89818650787646        1.80709890172936
C           -0.16449201096011       -2.33476422846507        1.12053400329116
N           -1.30585103989625       -1.75203745613140        0.84012344826467
C           -1.33245602938476       -0.54118090212187        0.29309137169701
N           -2.57675729102704       -0.00381750711478        0.04649417449847
C           -3.64961616610774       -0.69997904345554       -0.50428949044862
C           -3.73049565948851       -2.02490091258755       -0.89583517208918
C           -4.91572456333369       -2.45451377049373       -1.46535889713056
C           -5.99091027547354       -1.58909880377706       -1.64641399231549
C           -5.90975004344943       -0.26468769160583       -1.26232981587236
C           -4.73047033562475        0.18689099637573       -0.68574752975458
C           -4.31082192740443        1.46436131587090       -0.17212832119996
C           -4.95311163416437        2.68615305500167       -0.02983373508866
C           -4.27540897691696        3.72236595927667        0.58314883908993
C           -2.98804337718787        3.53898985689083        1.07761406224738
C           -2.33000761808524        2.32939379115013        0.94576568772643
C           -2.98484583871987        1.30326043716503        0.28393059770136
C           -0.14017888039493        0.10894561200431       -0.06634232652290
Cl          -0.14811567912724        1.53327610508974       -1.04574487175615
C            1.08527910073958       -0.47904676143275        0.26765604234629
N            2.28320218809802        0.14502622952595       -0.04817627212958
C            3.28773736007703       -0.37805864169196       -0.84730861817220
C            3.32202427423166       -1.57401391297732       -1.54531738269579
C            4.44670731997694       -1.84068563347885       -2.30433119634932
C            5.50262994958477       -0.93652409337050       -2.38049870198427
C            5.45608766512456        0.27070203741356       -1.71099901177030
C            4.33846968730256        0.55948994523925       -0.93977662790495
C            3.94751957702884        1.69792622919565       -0.15181090364744
C            4.56128022138835        2.90467973658168        0.15510072023450
C            3.89987505513112        3.79130859147956        0.98250303826905
C            2.65267683127443        3.48053934041867        1.51732164266716
C            2.02438979786134        2.28313629525488        1.22918960768848
C            2.67150883685555        1.40585810188020        0.37511813228790
C            1.07186710977068       -1.72966677623469        0.90585464490598
Cl           2.53633209564781       -2.47379212619843        1.41363088315727
H           -2.90245591979895       -2.69874818801414       -0.74793940731945
H           -5.00906236752034       -3.48481375190449       -1.77441246383887
H           -6.90023581633459       -1.96222195778977       -2.09340140532996
H           -6.74157723549497        0.40794821384108       -1.40576437896291
H           -5.96496460691150        2.81571913597551       -0.38209137467651
H           -4.75510820688172        4.68237366626743        0.70083963144827
H           -2.49291137589775        4.35484542501159        1.58259213810402
H           -1.34548059834935        2.19434916047134        1.36472849859719
H            2.50025642394336       -2.27278955479526       -1.50614508040874
H            4.50429297869504       -2.76895008411722       -2.85275477702308
H            6.36465359542686       -1.18234170032330       -2.98232039235823
H            6.26618946660923        0.97985904111396       -1.78684938066626
H            5.53678417522138        3.13872263273149       -0.24300379972215
H            4.35835555515279        4.73699772399823        1.22978282802969
H            2.16747989875493        4.18654414571208        2.17461604898173
H            1.06748921186172        2.03870357282083        1.66504978207521

          :  Hamiltonian                  GFN2-xTB          :
         :: gradient norm              0.000042469262 Eh/a0 ::
         :: HOMO-LUMO gap              2.438914247878 eV    ::
         :: SCC energy               -94.229659673429 Eh    ::
         :: -> dispersion             -0.081722715100 Eh    ::
         :: repulsion energy           1.460745671520 Eh    ::

    * Orbital Energies and Occupations

         #    Occupation            Energy/Eh            Energy/eV
      -------------------------------------------------------------
         1        2.0000           -1.0778988             -29.3311
       ...           ...                  ...                  ...
        72        2.0000           -0.4303992             -11.7118
        73        2.0000           -0.4283490             -11.6560
        74        2.0000           -0.4268625             -11.6155
        75        2.0000           -0.4264514             -11.6043
        76        2.0000           -0.4249425             -11.5633
        77        2.0000           -0.4163544             -11.3296
        78        2.0000           -0.4139324             -11.2637
        79        2.0000           -0.4124634             -11.2237
        80        2.0000           -0.4120554             -11.2126
        81        2.0000           -0.3875325             -10.5453
        82        2.0000           -0.3873341             -10.5399
        83        2.0000           -0.3781116             -10.2889
        84        2.0000           -0.3777355             -10.2787 (HOMO)
        85                         -0.2881071              -7.8398 (LUMO)
        86                         -0.2784200              -7.5762
        87                         -0.2530087              -6.8847
        88                         -0.2516676              -6.8482
        89                         -0.2303050              -6.2669
        90                         -0.2299631              -6.2576
        91                         -0.2088876              -5.6841
        92                         -0.2009075              -5.4670
        93                         -0.1943668              -5.2890
        94                         -0.1939696              -5.2782
        95                         -0.1758868              -4.7861
       ...                                ...                  ...
       171                          0.7376252              20.0718
      -------------------------------------------------------------
                  HL-Gap            0.0896284 Eh            2.4389 eV

     #   Z          covCN         q      C6AA      α(0)
     1  17 Cl       1.017    -0.096   102.168    15.464
     2   6 C        2.888     0.163    24.474     8.111
     3   7 N        1.920    -0.233    26.937     7.695
     4   6 C        2.909     0.142    24.911     8.184
     5   7 N        2.805    -0.024    21.707     6.920
     6   6 C        3.065     0.052    26.768     8.484
     7   6 C        2.910    -0.043    29.062     8.840
     8   6 C        2.925    -0.029    28.737     8.791
     9   6 C        2.920    -0.037    28.910     8.817
    10   6 C        2.913    -0.031    28.776     8.796
    11   6 C        3.065    -0.010    28.208     8.709
    12   6 C        3.065    -0.009    28.187     8.706
    13   6 C        2.913    -0.031    28.764     8.794
    14   6 C        2.920    -0.037    28.913     8.818
    15   6 C        2.924    -0.030    28.758     8.794
    16   6 C        2.911    -0.043    29.056     8.839
    17   6 C        3.061     0.048    26.854     8.498
    18   6 C        2.882     0.046    26.974     8.514
    19  17 Cl       0.953    -0.124   103.022    15.528
    20   6 C        2.980     0.066    26.521     8.448
    21   7 N        2.804    -0.027    21.774     6.930
    22   6 C        3.068     0.050    26.803     8.489
    23   6 C        2.910    -0.044    29.099     8.845
    24   6 C        2.925    -0.030    28.744     8.792
    25   6 C        2.920    -0.037    28.929     8.820
    26   6 C        2.913    -0.031    28.764     8.795
    27   6 C        3.067    -0.011    28.228     8.712
    28   6 C        3.066    -0.011    28.225     8.712
    29   6 C        2.913    -0.031    28.761     8.794
    30   6 C        2.920    -0.038    28.934     8.821
    31   6 C        2.925    -0.030    28.754     8.794
    32   6 C        2.910    -0.044    29.081     8.843
    33   6 C        3.069     0.050    26.802     8.489
    34   6 C        2.916     0.050    26.878     8.501
    35  17 Cl       0.969    -0.112   102.651    15.500
    36   1 H        0.926     0.045     2.377     2.411
    37   1 H        0.926     0.038     2.477     2.461
    38   1 H        0.926     0.035     2.513     2.479
    39   1 H        0.926     0.037     2.487     2.466
    40   1 H        0.926     0.038     2.478     2.462
    41   1 H        0.926     0.035     2.517     2.481
    42   1 H        0.926     0.036     2.504     2.474
    43   1 H        0.926     0.028     2.609     2.526
    44   1 H        0.926     0.029     2.605     2.524
    45   1 H        0.926     0.035     2.511     2.478
    46   1 H        0.926     0.034     2.533     2.489
    47   1 H        0.926     0.036     2.500     2.473
    48   1 H        0.926     0.036     2.497     2.471
    49   1 H        0.926     0.034     2.534     2.489
    50   1 H        0.926     0.035     2.523     2.484
    51   1 H        0.926     0.023     2.681     2.561

molecular dipole:
                 x           y           z       tot (Debye)
 q only:       -0.354       0.618      -0.355
   full:        0.079       0.673      -0.350       1.939

 projected vibrational frequencies (cm⁻¹)
eigval :       -0.00     0.00     0.00     0.00     0.00     0.00
eigval :       20.60    23.81    27.16    41.36    45.32    51.28
eigval :       87.51    93.05   105.02   114.96   134.74   141.65
eigval :      151.89   154.58   168.82   176.62   184.50   197.89
eigval :      217.19   270.38   271.59   274.96   285.87   289.12
eigval :      315.74   326.82   346.47   378.14   396.40   398.40
eigval :      420.16   422.63   434.20   438.71   489.88   496.70
eigval :      514.80   517.01   520.44   527.61   540.20   541.62
eigval :      542.23   580.10   587.94   589.27   606.52   618.57
eigval :      641.98   654.34   672.39   674.20   675.25   697.45
eigval :      707.59   710.55   751.80   756.12   769.24   771.70
eigval :      773.03   781.03   782.68   818.77   868.39   871.68
eigval :      873.98   876.16   894.12   899.54   902.04   904.17
eigval :      904.61   905.42   921.95   923.23   923.66   923.90
eigval :      946.40  1013.01  1014.09  1047.06  1065.50  1068.70
eigval :     1070.18  1073.15  1075.74  1130.58  1148.50  1151.26
eigval :     1153.62  1177.56  1178.31  1180.22  1181.20  1204.74
eigval :     1224.80  1230.64  1234.49  1244.00  1263.75  1282.14
eigval :     1287.39  1295.51  1298.36  1305.28  1316.72  1355.19
eigval :     1357.30  1359.04  1360.68  1405.09  1405.56  1424.18
eigval :     1426.95  1432.72  1461.90  1465.99  1473.34  1474.92
eigval :     1484.72  1486.26  1509.53  1577.50  1578.33  1591.60
eigval :     1592.66  1599.54  1600.67  1610.80  1612.80  3079.33
eigval :     3081.07  3081.36  3082.25  3084.11  3085.74  3088.16
eigval :     3089.56  3091.46  3093.48  3096.57  3098.05  3099.10
eigval :     3100.40  3102.74  3112.84

   temp. (K)  partition function   enthalpy   heat capacity  entropy
                                   cal/mol     cal/K/mol   cal/K/mol   J/K/mol
 298.15  VIB  0.164E+12            15663.673     99.622     95.545
         ROT  0.317E+08              888.752      2.981     37.304
         INT  0.520E+19            16552.425    102.603    132.849
         TR   0.112E+29             1481.254      4.968     44.571
         TOT                       18033.6790   107.5710   177.4191   742.3217

       T/K    H(0)-H(T)+PV         H(T)/Eh          T*S/Eh         G(T)/Eh
   ------------------------------------------------------------------------
    298.15    0.287385E-01    0.389345E+00    0.842976E-01    0.305047E+00
   ------------------------------------------------------------------------

         :::::::::::::::::::::::::::::::::::::::::::::::::::::
         ::                  THERMODYNAMIC                  ::
         :::::::::::::::::::::::::::::::::::::::::::::::::::::
         :: total free energy         -92.463866891663 Eh   ::
         ::.................................................::
         :: total energy              -92.768914001966 Eh   ::
         :: zero point energy           0.360606172415 Eh   ::
         :: G(RRHO) w/o ZPVE           -0.055559062112 Eh   ::
         :: G(RRHO) contrib.            0.305047110303 Eh   ::
         :::::::::::::::::::::::::::::::::::::::::::::::::::::

           -------------------------------------------------
          | TOTAL ENERGY              -92.768914001966 Eh   |
          | TOTAL ENTHALPY            -92.379569332819 Eh   |
          | TOTAL FREE ENERGY         -92.463866891663 Eh   |
          | GRADIENT NORM               0.000042595487 Eh/α |
          | HOMO-LUMO GAP               2.438912573855 eV   |
           -------------------------------------------------

 * finished run on 2025/08/25 at 02:27:23.133
