   * xtb version 6.7.1 (edcfbbe) compiled by 'albert@albert-system' on 2024-07-22

   ID    Z sym.   atoms
    1    8 O      1
    2    6 C      2-4, 6, 8-11, 13-27, 29-40
    3    7 N      5, 7, 12, 28
    4    1 H      41-62

          program call               : xtb data2507/gas/25CzBPym/25CzBPym.xyz --gfn 2 --ohess vtight --parallel 40 --molden --ceasefiles --namespace data2507/gas/25CzBPym/25CzBPym_gas_S0_preOpt
          :  Hamiltonian                  GFN2-xTB          :
 * total energy  :  -101.9504293 Eh     change       -0.7017320E-09 Eh
 * total energy  :  -101.9653935 Eh     change       -0.1496420E-01 Eh
 * total energy  :  -101.9686711 Eh     change       -0.3277618E-02 Eh
 * total energy  :  -101.9693914 Eh     change       -0.7202685E-03 Eh
 * total energy  :  -101.9700100 Eh     change       -0.6186223E-03 Eh
 * total energy  :  -101.9702312 Eh     change       -0.2212183E-03 Eh
 * total energy  :  -101.9703916 Eh     change       -0.1603029E-03 Eh
 * total energy  :  -101.9705157 Eh     change       -0.1241861E-03 Eh
 * total energy  :  -101.9706186 Eh     change       -0.1028764E-03 Eh
 * total energy  :  -101.9707097 Eh     change       -0.9110660E-04 Eh
 * total energy  :  -101.9712553 Eh     change       -0.4077045E-06 Eh
 * total energy  :  -101.9712557 Eh     change       -0.4075193E-06 Eh
 * total energy  :  -101.9712561 Eh     change       -0.3481117E-06 Eh
 * total energy  :  -101.9712564 Eh     change       -0.2858782E-06 Eh
 * total energy  :  -101.9712567 Eh     change       -0.3056678E-06 Eh
 * total energy  :  -101.9712572 Eh     change       -0.4773137E-06 Eh
 * total energy  :  -101.9712578 Eh     change       -0.5936164E-06 Eh
 * total energy  :  -101.9712582 Eh     change       -0.4449424E-06 Eh
 * total energy  :  -101.9712582 Eh     change       -0.5702219E-08 Eh
   *** GEOMETRY OPTIMIZATION CONVERGED AFTER 68 ITERATIONS ***

 final structure:
================
62
 xtb: 6.7.1 (edcfbbe)
O           -2.37882925483729       -1.25246430926644        1.62634576476776
C           -1.44771791182605       -1.44621864385267        0.87657298382658
C           -1.04087524953537       -2.82514179527240        0.49873848655841
C           -0.34831806500863       -3.15706281064511       -0.66642127951453
N           -0.02980214245014       -4.40437627624645       -0.96097886548317
C           -0.41820768106827       -5.34020238309995       -0.11304841826640
N           -1.09946221471635       -5.15121289610905        1.00354496117895
C           -1.40412112392701       -3.90488920288199        1.30938838125566
C           -0.62272276594219       -0.33931453270548        0.32112431675589
C            0.76276015244340       -0.45141735811330        0.31794474207212
C            1.56431345179817        0.61827103418658       -0.06693078395596
N            2.95519838748311        0.49916314356732       -0.03829365017785
C            3.70591703563754        0.02587425394647        1.02362284736524
C            3.29661462266958       -0.38223113849371        2.28451246945874
C            4.26988934788650       -0.78418899053385        3.17987560244151
C            5.62029235194367       -0.77408618798138        2.83960681129986
C            6.03526133981287       -0.34364781583792        1.59519573052885
C            5.07556983078854        0.06482628894888        0.67869263565987
C            5.14734686214057        0.58205408629364       -0.65989914005175
C            6.19965858773581        0.82995199647072       -1.53109161136129
C            5.91456668845996        1.32093526782530       -2.78959347187467
C            4.59975927515535        1.54845961145400       -3.18832915408508
C            3.53606089395789        1.30919122271204       -2.33876733035900
C            3.81856295360087        0.84126202361099       -1.06402971225395
C            0.96264656050654        1.80817860468155       -0.47715672973157
C           -0.41170874055470        1.91711386784632       -0.50659938676769
C           -1.22186943936951        0.85853367292570       -0.10014476011618
N           -2.60933812047420        0.99434837544323       -0.13941359807564
C           -3.33355915778658        1.99812309736864        0.47840131467951
C           -2.88709944555586        3.06695199535056        1.23996345246788
C           -3.83630262646426        3.92239815992460        1.76722123592777
C           -5.19713925337851        3.71939770415349        1.55239771072872
C           -5.64695569315559        2.64321315318925        0.81332432486607
C           -4.71226061248029        1.77089822216521        0.27221266119228
C           -4.81763930031620        0.57167137428059       -0.51233883023724
C           -5.89005397043617       -0.13639450041377       -1.03730752305786
C           -5.63403270989224       -1.26820469204992       -1.78577188012913
C           -4.32809790588412       -1.68415090738190       -2.03134918818711
C           -3.24527519014935       -0.99311144792776       -1.52171677236815
C           -3.49794024552288        0.12381980645974       -0.74073003009203
H           -0.04761454016867       -2.40945983540489       -1.39092907749841
H           -0.15670730061654       -6.36077034650424       -0.36033907450175
H           -1.95026331429423       -3.74022133796551        2.22929975247161
H            1.22933834511327       -1.37005507341160        0.64215877420148
H            2.25510687238497       -0.37368767836435        2.56945078415277
H            3.97559314740614       -1.10892961466875        4.16682355287065
H            6.34975421041639       -1.09821502849228        3.56654143585058
H            7.08295703595529       -0.31800319360789        1.33691761190585
H            7.21722664127178        0.63669839074861       -1.22741523163755
H            6.71816740480077        1.52353678163958       -3.48154718817558
H            4.40576525827706        1.91665990086316       -4.18482046168985
H            2.52010694400186        1.47102132188702       -2.66650771506653
H            1.58058462005599        2.64564187399763       -0.76266875368469
H           -0.87652665321979        2.83144275357804       -0.84315117726107
H           -1.83530544322420        3.22239107086655        1.42873166873123
H           -3.51489468934641        4.76432187283028        2.36250066442627
H           -5.90747371402507        4.41085567060869        1.98049462435686
H           -6.70247879333444        2.47627110023566        0.66112860060237
H           -6.90208337043774        0.19594967435951       -0.86271234343160
H           -6.45421057837978       -1.83720256156668       -2.19722466444337
H           -4.15556396733799       -2.56260095511497       -2.63576386496361
H           -2.23656663657086       -1.31196786050594       -1.73973823410098

          :  Hamiltonian                  GFN2-xTB          :
         :: gradient norm              0.000048585027 Eh/a0 ::
         :: HOMO-LUMO gap              1.386829618587 eV    ::
         :: SCC energy              -103.786203270828 Eh    ::
         :: -> dispersion             -0.089210103775 Eh    ::
         :: repulsion energy           1.814945063797 Eh    ::

    * Orbital Energies and Occupations

         #    Occupation            Energy/Eh            Energy/eV
      -------------------------------------------------------------
         1        2.0000           -0.7283934             -19.8206
       ...           ...                  ...                  ...
        82        2.0000           -0.4251443             -11.5688
        83        2.0000           -0.4248452             -11.5606
        84        2.0000           -0.4239647             -11.5367
        85        2.0000           -0.4209563             -11.4548
        86        2.0000           -0.4198604             -11.4250
        87        2.0000           -0.4123787             -11.2214
        88        2.0000           -0.4071632             -11.0795
        89        2.0000           -0.4066617             -11.0658
        90        2.0000           -0.3864341             -10.5154
        91        2.0000           -0.3857650             -10.4972
        92        2.0000           -0.3802472             -10.3471
        93        2.0000           -0.3744057             -10.1881
        94        2.0000           -0.3654041              -9.9432 (HOMO)
        95                         -0.3144390              -8.5563 (LUMO)
        96                         -0.2879769              -7.8363
        97                         -0.2680144              -7.2930
        98                         -0.2596823              -7.0663
        99                         -0.2504464              -6.8150
       100                         -0.2457270              -6.6866
       101                         -0.2289721              -6.2306
       102                         -0.2241302              -6.0989
       103                         -0.2220187              -6.0414
       104                         -0.2015045              -5.4832
       105                         -0.1929563              -5.2506
       ...                                ...                  ...
       182                          0.7455630              20.2878
      -------------------------------------------------------------
                  HL-Gap            0.0509651 Eh            1.3868 eV

     #   Z          covCN         q      C6AA      α(0)
     1   8 O        0.858    -0.351    20.726     6.104
     2   6 C        2.825     0.234    23.110     7.877
     3   6 C        2.959    -0.030    28.735     8.792
     4   6 C        2.932     0.084    26.130     8.383
     5   7 N        1.834    -0.221    26.659     7.651
     6   6 C        2.926     0.155    24.639     8.140
     7   7 N        1.833    -0.216    26.536     7.634
     8   6 C        2.939     0.091    25.972     8.358
     9   6 C        2.972    -0.026    28.652     8.780
    10   6 C        2.925    -0.043    29.076     8.843
    11   6 C        2.910     0.065    26.536     8.447
    12   7 N        2.802    -0.044    22.084     6.980
    13   6 C        3.071     0.046    26.903     8.505
    14   6 C        2.910    -0.051    29.262     8.870
    15   6 C        2.924    -0.032    28.803     8.801
    16   6 C        2.920    -0.039    28.974     8.827
    17   6 C        2.913    -0.032    28.791     8.799
    18   6 C        3.067    -0.015    28.319     8.726
    19   6 C        3.067    -0.015    28.317     8.726
    20   6 C        2.913    -0.032    28.790     8.798
    21   6 C        2.920    -0.039    28.976     8.827
    22   6 C        2.924    -0.032    28.806     8.802
    23   6 C        2.910    -0.051    29.269     8.871
    24   6 C        3.071     0.046    26.899     8.504
    25   6 C        2.921    -0.038    28.955     8.824
    26   6 C        2.921    -0.041    29.025     8.835
    27   6 C        2.913     0.073    26.368     8.420
    28   7 N        2.803    -0.036    21.934     6.956
    29   6 C        3.075     0.051    26.775     8.484
    30   6 C        2.910    -0.049    29.218     8.864
    31   6 C        2.925    -0.032    28.798     8.800
    32   6 C        2.920    -0.039    28.975     8.827
    33   6 C        2.913    -0.031    28.771     8.796
    34   6 C        3.069    -0.012    28.243     8.714
    35   6 C        3.068    -0.011    28.225     8.711
    36   6 C        2.913    -0.030    28.756     8.793
    37   6 C        2.920    -0.039    28.965     8.826
    38   6 C        2.924    -0.032    28.799     8.801
    39   6 C        2.910    -0.051    29.266     8.871
    40   6 C        3.075     0.052    26.759     8.481
    41   1 H        0.925     0.050     2.325     2.385
    42   1 H        0.925     0.061     2.189     2.314
    43   1 H        0.925     0.071     2.071     2.250
    44   1 H        0.926     0.046     2.369     2.407
    45   1 H        0.926     0.025     2.658     2.550
    46   1 H        0.926     0.032     2.557     2.500
    47   1 H        0.926     0.032     2.564     2.504
    48   1 H        0.926     0.034     2.528     2.487
    49   1 H        0.926     0.034     2.531     2.488
    50   1 H        0.926     0.031     2.567     2.506
    51   1 H        0.926     0.032     2.560     2.502
    52   1 H        0.926     0.026     2.639     2.541
    53   1 H        0.926     0.055     2.255     2.348
    54   1 H        0.926     0.056     2.252     2.346
    55   1 H        0.926     0.026     2.643     2.542
    56   1 H        0.926     0.031     2.571     2.507
    57   1 H        0.926     0.031     2.577     2.511
    58   1 H        0.926     0.034     2.532     2.488
    59   1 H        0.926     0.035     2.513     2.479
    60   1 H        0.926     0.032     2.564     2.504
    61   1 H        0.926     0.029     2.602     2.523
    62   1 H        0.926     0.011     2.867     2.648

molecular dipole:
                 x           y           z       tot (Debye)
 q only:        0.723       0.485      -0.552
   full:        0.774       0.750      -0.529       3.050

 projected vibrational frequencies (cm⁻¹)
eigval :       -0.00    -0.00    -0.00     0.00     0.00     0.00
eigval :       12.98    19.62    22.10    26.61    27.27    53.98
eigval :       57.52    69.95    75.61   101.79   104.00   121.04
eigval :      125.68   137.87   143.34   153.28   158.84   180.12
eigval :      207.29   217.20   255.74   261.87   271.81   272.57
eigval :      294.94   315.40   334.22   347.07   351.88   387.34
eigval :      395.74   403.19   412.67   422.19   424.29   432.12
eigval :      434.59   438.99   456.77   495.51   517.92   519.22
eigval :      530.89   537.13   541.19   541.68   561.07   580.92
eigval :      586.49   596.02   609.13   617.50   622.65   655.32
eigval :      673.40   674.21   678.55   698.32   702.90   707.83
eigval :      708.87   720.92   727.45   755.11   756.44   768.96
eigval :      770.04   780.46   781.53   792.54   839.70   840.89
eigval :      869.05   870.02   871.69   876.43   894.65   897.48
eigval :      900.30   901.73   902.67   904.29   905.65   908.20
eigval :      920.77   921.50   923.07   924.21   928.99   931.59
eigval :      933.70   938.72  1001.79  1012.56  1013.16  1028.81
eigval :     1070.52  1071.42  1073.84  1075.01  1097.19  1118.84
eigval :     1134.56  1141.13  1152.15  1152.80  1167.07  1176.18
eigval :     1177.66  1180.57  1181.14  1181.28  1189.06  1202.72
eigval :     1228.53  1232.68  1235.59  1236.83  1240.38  1244.57
eigval :     1251.07  1256.86  1297.20  1298.92  1301.15  1302.65
eigval :     1310.10  1340.69  1357.42  1359.15  1361.32  1362.80
eigval :     1386.39  1392.06  1397.11  1407.12  1423.95  1427.93
eigval :     1428.63  1445.88  1474.75  1475.64  1478.22  1487.27
eigval :     1487.67  1540.08  1547.08  1551.97  1575.86  1576.62
eigval :     1585.71  1589.78  1591.76  1599.64  1600.19  1613.97
eigval :     1615.31  1706.35  3038.80  3062.71  3066.15  3074.89
eigval :     3076.49  3077.97  3078.41  3081.55  3082.30  3082.93
eigval :     3083.88  3087.83  3088.53  3089.71  3089.89  3091.44
eigval :     3093.41  3096.31  3097.88  3098.07  3099.42  3103.98

   temp. (K)  partition function   enthalpy   heat capacity  entropy
                                   cal/mol     cal/K/mol   cal/K/mol   J/K/mol
 298.15  VIB  0.171E+14            17502.394    112.449    107.683
         ROT  0.419E+08              888.752      2.981     37.857
         INT  0.716E+21            18391.147    115.430    145.540
         TR   0.113E+29             1481.254      4.968     44.581
         TOT                       19872.4007   120.3980   190.1206   795.4646

       T/K    H(0)-H(T)+PV         H(T)/Eh          T*S/Eh         G(T)/Eh
   ------------------------------------------------------------------------
    298.15    0.316687E-01    0.496442E+00    0.903324E-01    0.406109E+00
   ------------------------------------------------------------------------

         :::::::::::::::::::::::::::::::::::::::::::::::::::::
         ::                  THERMODYNAMIC                  ::
         :::::::::::::::::::::::::::::::::::::::::::::::::::::
         :: total free energy        -101.565148755748 Eh   ::
         ::.................................................::
         :: total energy             -101.971258207030 Eh   ::
         :: zero point energy           0.464773195464 Eh   ::
         :: G(RRHO) w/o ZPVE           -0.058663744181 Eh   ::
         :: G(RRHO) contrib.            0.406109451283 Eh   ::
         :::::::::::::::::::::::::::::::::::::::::::::::::::::

           -------------------------------------------------
          | TOTAL ENERGY             -101.971258207030 Eh   |
          | TOTAL ENTHALPY           -101.474816325188 Eh   |
          | TOTAL FREE ENERGY        -101.565148755748 Eh   |
          | GRADIENT NORM               0.000048575817 Eh/α |
          | HOMO-LUMO GAP               1.386829696931 eV   |
           -------------------------------------------------

 * finished run on 2025/09/04 at 03:27:46.375
