   * xtb version 6.7.1 (edcfbbe) compiled by 'albert@albert-system' on 2024-07-22

   ID    Z sym.   atoms
    1    8 O      1
    2    6 C      2-4, 6, 8-11, 13-27, 29-40
    3    7 N      5, 7, 12, 28
    4    1 H      41-62

          program call               : xtb data2507/gas/25CzBPym/25CzBPym_gas_T1_crest.xyz --gfn 2 --spinpol --tblite --uhf 2 --ohess vtight --parallel 40 --molden --ceasefiles --namespace data2507/gas/25CzBPym/25CzBPym_gas_T1_finalOpt
 * total energy  :  -101.9104227 Eh     change        0.2856638E-08 Eh
 * total energy  :  -101.9104407 Eh     change       -0.1794362E-04 Eh
 * total energy  :  -101.9104494 Eh     change       -0.8733269E-05 Eh
 * total energy  :  -101.9104516 Eh     change       -0.2151043E-05 Eh
 * total energy  :  -101.9104529 Eh     change       -0.1340568E-05 Eh
 * total energy  :  -101.9104534 Eh     change       -0.5278272E-06 Eh
 * total energy  :  -101.9104539 Eh     change       -0.4945962E-06 Eh
 * total energy  :  -101.9104545 Eh     change       -0.6114471E-06 Eh
 * total energy  :  -101.9104553 Eh     change       -0.7896834E-06 Eh
 * total energy  :  -101.9104563 Eh     change       -0.9535022E-06 Eh
 * total energy  :  -101.9104572 Eh     change       -0.9334187E-06 Eh
 * total energy  :  -101.9104581 Eh     change       -0.8942045E-06 Eh
 * total energy  :  -101.9104589 Eh     change       -0.7573690E-06 Eh
 * total energy  :  -101.9104595 Eh     change       -0.6037704E-06 Eh
 * total energy  :  -101.9104599 Eh     change       -0.4015983E-06 Eh
 * total energy  :  -101.9104601 Eh     change       -0.2304250E-06 Eh
 * total energy  :  -101.9104602 Eh     change       -0.1028910E-06 Eh
 * total energy  :  -101.9104603 Eh     change       -0.1079102E-06 Eh
 * total energy  :  -101.9104604 Eh     change       -0.8733259E-07 Eh
   *** GEOMETRY OPTIMIZATION CONVERGED AFTER 19 ITERATIONS ***

 final structure:
================
62
 xtb: 6.7.1 (edcfbbe)
O           -0.56935746875706        2.70801443474027        1.06364558445789
C           -0.95780130165336        1.51789181157022        1.00409313038239
C           -2.16689565836736        1.04420334173019        1.59085908741437
C           -3.17410845671958        1.95599478398861        2.01682801524413
N           -4.30430197258895        1.55280784393165        2.50326334343350
C           -4.54113746611656        0.25323873744818        2.66683237664802
N           -3.61979028521964       -0.67206319180164        2.42015223438492
C           -2.47644651936573       -0.30591593452286        1.91277953682272
C           -0.12365492070847        0.54604936238990        0.25238379648634
C            1.25917955741600        0.62741675137689        0.36656694000038
C            2.09292185405263       -0.24516172634156       -0.32011874623379
N            3.47674631679969       -0.15170665803172       -0.17402029764920
C            4.33916839281392       -1.20357801996895        0.06832088320072
C            4.05980087230583       -2.54639024886910        0.27981419912563
C            5.12240911015499       -3.39556003832315        0.52797066430198
C            6.43175791023463       -2.92545089418369        0.57740614791358
C            6.71322231960414       -1.58382590100177        0.39670608161126
C            5.66323907071671       -0.71341275140092        0.14599015513293
C            5.58541523991497        0.70816992830023       -0.06083722183239
C            6.53694770318038        1.71591509244401       -0.11232066293646
C            6.11561037066405        3.01017348613217       -0.35508263213281
C            4.76912569867551        3.29896118637809       -0.55995000194024
C            3.80291381054304        2.31091091242735       -0.51559165934367
C            4.21788377199576        1.01397040915739       -0.24719066526650
C            1.53324037060538       -1.21943658702335       -1.15219884151892
C            0.16293841532991       -1.28420867884681       -1.30312219782057
C           -0.68017642646464       -0.40232989488913       -0.63505468629646
N           -2.05474971224344       -0.45382402852710       -0.87950485771108
C           -2.85918734529980        0.62508222184101       -1.19697065766810
C           -2.49906498451557        1.92590913852556       -1.51740378947556
C           -3.51524563886380        2.82248403413137       -1.79072721109261
C           -4.85211746063047        2.43528700543236       -1.76501678993026
C           -5.21196211154424        1.12921269699607       -1.48640871377916
C           -4.21009452491426        0.21254740953249       -1.20729156031038
C           -4.21203880284686       -1.19109016332500       -0.88912209389245
C           -5.21680808417968       -2.13067344135927       -0.72565728057268
C           -4.86449462707056       -3.42306267706315       -0.37931647653962
C           -3.53277573704689       -3.77656548641825       -0.18598080511512
C           -2.51336714122851       -2.85529647357314       -0.33903890843718
C           -2.86070172140735       -1.56129642786856       -0.70079334498134
H           -2.98965149649267        3.01805266788504        1.92327042241157
H           -5.49970247038332       -0.05667233145834        3.04516074576373
H           -1.73672995263328       -1.08755326333571        1.78441916338390
H            1.67576285848320        1.35548405995227        1.04554074963869
H            3.04659221612677       -2.91791939196961        0.26760140187016
H            4.93104838609488       -4.44544795425206        0.69237735768331
H            7.23507900363664       -3.62000655687993        0.77171003282609
H            7.72663258206931       -1.21704819671263        0.45414093030907
H            7.58256095740161        1.48970036800444        0.03093417920173
H            6.83956012222052        3.81008080502053       -0.39534401212273
H            4.47107617748149        4.31696730193398       -0.76019666769451
H            2.76484972254481        2.54662249042319       -0.68991935040378
H            2.17492289718451       -1.87842412413330       -1.71554042693870
H           -0.26975867007984       -1.98926326162900       -1.99747951225418
H           -1.46606965506205        2.23398476343222       -1.54741266526431
H           -3.26425402586829        3.84486033061425       -2.02853640051448
H           -5.61760278576881        3.16667113985249       -1.97602543037843
H           -6.24785481276452        0.82654072525359       -1.48420681848628
H           -6.25150518391711       -1.85452239474793       -0.85888139628305
H           -5.63306448771715       -4.16944717545564       -0.24710320378557
H           -3.28980750705925       -4.79007934475425        0.09575358931114
H           -1.48425334075376       -3.13398174047561       -0.16899328515889

 projected vibrational frequencies (cm⁻¹)
eigval :       -0.00    -0.00    -0.00     0.00     0.00     0.00
eigval :       17.93    19.71    23.70    31.91    35.00    53.81
eigval :       66.47    70.42    95.05   102.98   105.64   123.45
eigval :      127.83   134.22   147.75   153.95   180.05   190.54
eigval :      199.93   211.84   253.51   261.66   271.62   273.65
eigval :      281.85   318.64   350.23   367.07   382.00   395.23
eigval :      397.98   413.01   413.66   421.71   427.10   432.25
eigval :      436.38   449.69   452.83   486.52   515.80   516.80
eigval :      530.96   537.93   538.51   539.02   552.93   582.07
eigval :      582.78   587.31   599.64   600.41   616.22   622.82
eigval :      634.88   655.57   671.75   674.41   682.44   687.90
eigval :      700.48   708.67   710.09   748.07   753.04   755.33
eigval :      766.98   769.30   776.87   777.79   779.21   820.52
eigval :      824.82   865.33   866.53   870.13   870.46   873.55
eigval :      884.52   888.09   895.75   898.62   899.94   903.02
eigval :      903.70   907.30   911.13   920.25   921.10   922.47
eigval :      923.82   929.50   954.79  1005.67  1011.91  1013.94
eigval :     1068.94  1070.05  1071.96  1073.10  1083.98  1100.89
eigval :     1115.01  1131.57  1138.77  1145.44  1146.86  1160.53
eigval :     1173.71  1177.04  1178.18  1178.93  1184.73  1199.47
eigval :     1206.71  1214.39  1228.33  1231.00  1232.55  1238.99
eigval :     1239.75  1244.85  1281.62  1285.96  1290.12  1292.63
eigval :     1295.02  1317.41  1333.40  1340.08  1349.92  1350.81
eigval :     1359.82  1361.73  1375.80  1393.27  1416.31  1417.35
eigval :     1418.80  1426.71  1445.89  1456.00  1464.55  1467.03
eigval :     1469.61  1483.12  1483.85  1502.07  1535.01  1566.59
eigval :     1571.35  1572.51  1584.21  1585.65  1586.79  1587.88
eigval :     1604.88  1608.08  3024.99  3051.70  3080.55  3081.06
eigval :     3083.07  3084.52  3085.01  3086.27  3086.78  3090.02
eigval :     3091.93  3093.58  3093.75  3097.35  3099.04  3099.71
eigval :     3100.84  3103.15  3103.73  3104.82  3107.51  3115.57

   temp. (K)  partition function   enthalpy   heat capacity  entropy
                                   cal/mol     cal/K/mol   cal/K/mol   J/K/mol
 298.15  VIB  0.517E+13            17522.898    114.233    106.780
         ROT  0.378E+08              888.752      2.981     37.653
         INT  0.195E+21            18411.650    117.214    144.433
         TR   0.113E+29             1481.254      4.968     44.581
         TOT                       19892.9043   122.1825   189.0136   790.8330

       T/K    H(0)-H(T)+PV         H(T)/Eh          T*S/Eh         G(T)/Eh
   ------------------------------------------------------------------------
    298.15    0.317014E-01    0.493085E+00    0.898065E-01    0.403279E+00
   ------------------------------------------------------------------------

         :::::::::::::::::::::::::::::::::::::::::::::::::::::
         ::                  THERMODYNAMIC                  ::
         :::::::::::::::::::::::::::::::::::::::::::::::::::::
         :: total free energy        -101.507181608016 Eh   ::
         ::.................................................::
         :: total energy             -101.910460407788 Eh   ::
         :: zero point energy           0.461383912984 Eh   ::
         :: G(RRHO) w/o ZPVE           -0.058105113212 Eh   ::
         :: G(RRHO) contrib.            0.403278799772 Eh   ::
         :::::::::::::::::::::::::::::::::::::::::::::::::::::

           -------------------------------------------------
          | TOTAL ENERGY             -101.910460407788 Eh   |
          | TOTAL ENTHALPY           -101.417375133969 Eh   |
          | TOTAL FREE ENERGY        -101.507181608016 Eh   |
          | GRADIENT NORM               0.000061924870 Eh/α |
           -------------------------------------------------

 * finished run on 2025/09/04 at 03:33:56.086
