   * xtb version 6.7.1 (edcfbbe) compiled by 'albert@albert-system' on 2024-07-22

   ID    Z sym.   atoms
    1    8 O      1
    2    6 C      2-4, 6, 8-11, 13-27, 29-40
    3    7 N      5, 7, 12, 28
    4    1 H      41-62

          program call               : xtb data2507/gas/25CzBPym/25CzBPym_gas_S0_finalOpt.xtbopt.xyz --gfn 2 --spinpol --tblite --uhf 2 --ohess vtight --parallel 40 --molden --ceasefiles --namespace data2507/gas/25CzBPym/25CzBPym_gas_T1_preOpt
 * total energy  :  -101.8989182 Eh     change       -0.1853226E-07 Eh
 * total energy  :  -101.9031861 Eh     change       -0.4267939E-02 Eh
 * total energy  :  -101.9050347 Eh     change       -0.1848631E-02 Eh
 * total energy  :  -101.9057233 Eh     change       -0.6885467E-03 Eh
 * total energy  :  -101.9065196 Eh     change       -0.7963127E-03 Eh
 * total energy  :  -101.9071470 Eh     change       -0.6273616E-03 Eh
 * total energy  :  -101.9076165 Eh     change       -0.4695839E-03 Eh
 * total energy  :  -101.9078326 Eh     change       -0.2160197E-03 Eh
 * total energy  :  -101.9079736 Eh     change       -0.1410166E-03 Eh
 * total energy  :  -101.9080674 Eh     change       -0.9386687E-04 Eh
 * total energy  :  -101.9086105 Eh     change       -0.1185682E-05 Eh
 * total energy  :  -101.9086115 Eh     change       -0.1028699E-05 Eh
 * total energy  :  -101.9086125 Eh     change       -0.1024193E-05 Eh
 * total energy  :  -101.9086135 Eh     change       -0.9413214E-06 Eh
 * total energy  :  -101.9086142 Eh     change       -0.7362360E-06 Eh
 * total energy  :  -101.9086148 Eh     change       -0.5577638E-06 Eh
 * total energy  :  -101.9086152 Eh     change       -0.4084882E-06 Eh
 * total energy  :  -101.9086154 Eh     change       -0.1909910E-06 Eh
 * total energy  :  -101.9086154 Eh     change       -0.7007330E-08 Eh
   *** GEOMETRY OPTIMIZATION CONVERGED AFTER 44 ITERATIONS ***

 final structure:
================
62
 xtb: 6.7.1 (edcfbbe)
O           -0.55541649571980       -1.11648515769151        2.71074048190912
C           -0.95322651392646       -1.01437844620169        1.52698392491235
C           -2.17245079772899       -1.57842441834901        1.05026870493440
C           -3.17170537836753       -2.01718208998183        1.96588878650961
N           -4.31012071475819       -2.48310921477876        1.56628014762864
C           -4.56994035210665       -2.61756399384620        0.26728178806638
N           -3.65759907374734       -2.35645870220843       -0.66310013857171
C           -2.50516461512476       -1.86713890346589       -0.30295696000959
C           -0.12111445609631       -0.25296082288674        0.56208272050847
C            1.26323914917076       -0.38357620586418        0.63333779041058
C            2.09389257362858        0.30295594391614       -0.23998662552984
N            3.47992883830375        0.12528453329436       -0.17767628364743
C            4.42053615243204        1.13493644405425       -0.13334700030378
C            4.23946096388077        2.51027970321288       -0.08601534717653
C            5.36715961986473        3.30689677617366       -0.01897637536488
C            6.64560650478382        2.75580375356212        0.01022539392925
C            6.83087549075275        1.38585486025288       -0.01022487427807
C            5.71412609940890        0.56614152588951       -0.07754128047591
C            5.53329602202022       -0.86056031914781       -0.09208662685254
C            6.41235854303795       -1.93330999046913       -0.07540056493311
C            5.89354306709224       -3.21391374017723       -0.12202275481329
C            4.51984895734162       -3.42860796965874       -0.19939956756726
C            3.62463355979251       -2.37555382342243       -0.21821885932417
C            4.13864939794952       -1.08817184998694       -0.14739025180672
C            1.53910339606738        1.16899679323248       -1.18508353357774
C            0.17134083011005        1.35639162877379       -1.21979269066244
C           -0.67083350397333        0.66750992972805       -0.35425191186408
N           -2.04688263600615        0.92592135064662       -0.38977126167088
C           -2.83797105185161        1.22795821734375        0.70215965489713
C           -2.46331966415025        1.51607269531648        2.00688930208381
C           -3.46881728467935        1.78073794344540        2.91774260622375
C           -4.80938177159422        1.77711098187538        2.54191834693105
C           -5.18356003431674        1.52893210058225        1.23371388213668
C           -4.19278112906980        1.25902602028366        0.30222730517256
C           -4.21005433246507        0.96865517568025       -1.10695231271470
C           -5.22407128143032        0.83434534832463       -2.04141191554850
C           -4.88580340677654        0.51114053484721       -3.34344208527007
C           -3.55871038794981        0.31297714030994       -3.71234085884996
C           -2.53025205688799        0.43768123833006       -2.79720482486661
C           -2.86347229319499        0.77487199558311       -1.49252996894553
H           -2.97000198108444       -1.94826339388397        3.02685982738823
H           -5.53542101404674       -2.98181259361654       -0.03674440552041
H           -1.77666373187166       -1.72949686109323       -1.09296849206107
H            1.67928026317236       -1.03607902483820        1.38566398794947
H            3.25206785313604        2.94610479015981       -0.08635898698645
H            5.25333403593604        4.38006873245261        0.01645052797445
H            7.50184657916217        3.41142644239757        0.06069104172720
H            7.82148022084776        0.95933739736152        0.03089263317727
H            7.47793259198227       -1.76739263182646       -0.03097846287304
H            6.56035598059334       -4.06281405732234       -0.10672780533037
H            4.14487618774691       -4.43988252557140       -0.24823136912922
H            2.56275182151014       -2.55277938537378       -0.29325813369447
H            2.17919883238441        1.68931690158914       -1.88025644951601
H           -0.25971521528591        2.06558990473726       -1.91101692749735
H           -1.42738551241141        1.52804054882787        2.30655156770971
H           -3.20656003953765        1.99413786664483        3.94267823724852
H           -5.56617569813092        1.98081390607774        3.28434086105471
H           -6.22211246637856        1.54295559974972        0.94052575320777
H           -6.25506972608292        0.97266376693950       -1.75407358110263
H           -5.66169143565661        0.40184062028134       -4.08595240090515
H           -3.32691418549063        0.05070790720814       -4.73366611246841
H           -1.50472788229785        0.26599923333218       -3.08822439523599

 projected vibrational frequencies (cm⁻¹)
eigval :       -0.00    -0.00    -0.00    -0.00    -0.00     0.00
eigval :       17.99    19.83    22.41    31.80    34.94    55.95
eigval :       62.28    72.26    95.88   102.47   105.63   122.47
eigval :      127.31   136.02   149.28   154.62   171.72   191.06
eigval :      199.61   213.86   255.25   259.08   270.59   273.15
eigval :      285.49   305.18   344.49   364.05   386.27   394.47
eigval :      403.36   412.21   415.29   421.04   427.24   429.18
eigval :      436.57   441.27   452.25   482.39   515.89   516.24
eigval :      527.67   537.55   538.47   538.58   563.30   577.95
eigval :      582.28   587.24   594.70   600.29   610.26   620.62
eigval :      640.79   654.54   671.52   674.13   683.50   688.89
eigval :      700.04   708.43   709.65   743.03   753.23   755.39
eigval :      767.65   769.36   776.40   778.26   779.33   817.80
eigval :      826.79   864.45   866.89   870.07   871.06   873.66
eigval :      882.96   887.77   894.25   899.31   901.33   903.61
eigval :      904.39   906.30   913.15   920.98   921.96   922.88
eigval :      923.58   927.18   952.62  1004.52  1011.39  1013.22
eigval :     1069.13  1069.56  1072.16  1072.83  1083.23  1098.38
eigval :     1114.30  1132.06  1135.84  1145.72  1146.93  1159.81
eigval :     1173.93  1177.58  1178.77  1179.55  1185.12  1199.51
eigval :     1206.14  1209.15  1225.69  1229.75  1231.68  1232.83
eigval :     1239.32  1244.21  1280.59  1286.98  1291.15  1293.43
eigval :     1295.58  1317.08  1332.34  1337.70  1348.50  1349.88
eigval :     1359.41  1361.00  1374.49  1389.47  1415.58  1417.24
eigval :     1417.82  1429.20  1441.16  1455.78  1463.47  1465.05
eigval :     1466.86  1483.09  1484.48  1509.37  1537.90  1567.65
eigval :     1569.41  1571.93  1583.01  1584.52  1585.77  1586.91
eigval :     1603.55  1608.06  3029.52  3048.87  3080.43  3081.52
eigval :     3082.57  3084.73  3085.36  3086.28  3086.68  3087.76
eigval :     3092.10  3093.39  3093.83  3095.21  3099.18  3099.56
eigval :     3100.48  3101.13  3103.15  3104.06  3107.31  3119.26

   temp. (K)  partition function   enthalpy   heat capacity  entropy
                                   cal/mol     cal/K/mol   cal/K/mol   J/K/mol
 298.15  VIB  0.565E+13            17551.451    114.336    106.996
         ROT  0.378E+08              888.752      2.981     37.655
         INT  0.214E+21            18440.203    117.317    144.651
         TR   0.113E+29             1481.254      4.968     44.581
         TOT                       19921.4572   122.2848   189.2318   791.7460

       T/K    H(0)-H(T)+PV         H(T)/Eh          T*S/Eh         G(T)/Eh
   ------------------------------------------------------------------------
    298.15    0.317469E-01    0.492927E+00    0.899102E-01    0.403016E+00
   ------------------------------------------------------------------------

         :::::::::::::::::::::::::::::::::::::::::::::::::::::
         ::                  THERMODYNAMIC                  ::
         :::::::::::::::::::::::::::::::::::::::::::::::::::::
         :: total free energy        -101.505598998553 Eh   ::
         ::.................................................::
         :: total energy             -101.908615385961 Eh   ::
         :: zero point energy           0.461179678468 Eh   ::
         :: G(RRHO) w/o ZPVE           -0.058163291061 Eh   ::
         :: G(RRHO) contrib.            0.403016387408 Eh   ::
         :::::::::::::::::::::::::::::::::::::::::::::::::::::

           -------------------------------------------------
          | TOTAL ENERGY             -101.908615385961 Eh   |
          | TOTAL ENTHALPY           -101.415688844590 Eh   |
          | TOTAL FREE ENERGY        -101.505598998553 Eh   |
          | GRADIENT NORM               0.000058271283 Eh/α |
           -------------------------------------------------

 * finished run on 2025/09/04 at 03:30:08.173
