   * xtb version 6.7.1 (edcfbbe) compiled by 'albert@albert-system' on 2024-07-22

   ID    Z sym.   atoms
    1    8 O      1
    2    6 C      2-4, 6, 8-11, 13-27, 29-40
    3    7 N      5, 7, 12, 28
    4    1 H      41-62

          program call               : xtb data2507/gas/25CzBPym/25CzBPym_gas_S0_crest.xyz --gfn 2 --ohess vtight --parallel 40 --molden --ceasefiles --namespace data2507/gas/25CzBPym/25CzBPym_gas_S0_finalOpt
          :  Hamiltonian                  GFN2-xTB          :
 * total energy  :  -101.9795313 Eh     change       -0.1114358E-08 Eh
 * total energy  :  -101.9795321 Eh     change       -0.8286784E-06 Eh
 * total energy  :  -101.9795332 Eh     change       -0.1060804E-05 Eh
 * total energy  :  -101.9795342 Eh     change       -0.9987116E-06 Eh
 * total energy  :  -101.9795350 Eh     change       -0.7655158E-06 Eh
 * total energy  :  -101.9795356 Eh     change       -0.6185339E-06 Eh
 * total energy  :  -101.9795362 Eh     change       -0.6205185E-06 Eh
 * total energy  :  -101.9795369 Eh     change       -0.6609123E-06 Eh
 * total energy  :  -101.9795375 Eh     change       -0.6691896E-06 Eh
 * total energy  :  -101.9795382 Eh     change       -0.6426069E-06 Eh
 * total energy  :  -101.9795388 Eh     change       -0.6174087E-06 Eh
 * total energy  :  -101.9795394 Eh     change       -0.5737849E-06 Eh
 * total energy  :  -101.9795398 Eh     change       -0.4790944E-06 Eh
 * total energy  :  -101.9795402 Eh     change       -0.3509019E-06 Eh
 * total energy  :  -101.9795404 Eh     change       -0.2280588E-06 Eh
 * total energy  :  -101.9795406 Eh     change       -0.1509219E-06 Eh
 * total energy  :  -101.9795407 Eh     change       -0.1123969E-06 Eh
 * total energy  :  -101.9795408 Eh     change       -0.8979070E-07 Eh
   *** GEOMETRY OPTIMIZATION CONVERGED AFTER 18 ITERATIONS ***

 final structure:
================
62
 xtb: 6.7.1 (edcfbbe)
O           -0.67283354540796       -1.25469794085346        2.64353578132063
C           -0.97902320048550       -0.99874459270813        1.50083840537742
C           -2.21059078638396       -1.54745208221964        0.87589053646433
C           -3.41383752436940       -1.62786188681901        1.58202608646245
N           -4.51168701648441       -2.12145059885171        1.04381219749423
C           -4.42989362439490       -2.53911185703283       -0.20716954493476
N           -3.34598843167737       -2.54219390826253       -0.96066031490614
C           -2.24251676468152       -2.05633968519109       -0.42301313054646
C           -0.12474923640126       -0.18014260605104        0.59722697223003
C            1.25296552736899       -0.33696216950986        0.67554831993210
C            2.09253287288850        0.32090653279390       -0.21712520974678
N            3.47402373085523        0.13580825243603       -0.15306314230889
C            4.42652091466406        1.13991510357556       -0.15845890619198
C            4.26058195328336        2.51687245697351       -0.16957896467790
C            5.39652707001923        3.30381816285022       -0.13954754670607
C            6.66975918927140        2.74187271955072       -0.09032106818827
C            6.83968494871233        1.37226495267705       -0.05172060239353
C            5.71306754595309        0.56137808043113       -0.08060369668805
C            5.52090400394453       -0.86173458898083       -0.03148878887862
C            6.39463071659810       -1.93908023488816        0.02901415484880
C            5.86999303040019       -3.21605343099236        0.03819105443296
C            4.49481750583581       -3.42500154677269       -0.02844595182450
C            3.60600580225038       -2.36824314563164       -0.08946811606952
C            4.12605074284296       -1.08261548031840       -0.07226367512898
C            1.53647412694263        1.16411571813354       -1.18051832980015
C            0.17269349683307        1.37336608113534       -1.22243636243541
C           -0.67163943940279        0.71137301023318       -0.33708403692478
N           -2.04868419372619        0.95872187143939       -0.35077693674179
C           -2.80837811162965        1.29024279354034        0.75755959578258
C           -2.39225007021665        1.64536462089730        2.03179066616636
C           -3.36836240485586        1.94308415627795        2.96361992503867
C           -4.72223490070080        1.89882987381814        2.63767957261297
C           -5.13848207239634        1.56925938989085        1.36334436627425
C           -4.17650517937559        1.26540258910960        0.40919675803742
C           -4.23904924784131        0.88533682328793       -0.97528763792650
C           -5.28701654821839        0.64666689076486       -1.85359904808700
C           -4.99158654475291        0.23954490854797       -3.13938897042467
C           -3.67357950861435        0.06425883842692       -3.55275151611753
C           -2.61350241969381        0.29443156622385       -2.69707863645247
C           -2.90567019663058        0.71102261154047       -1.40786182259406
H           -3.48370462466020       -1.26750784484920        2.59990816932185
H           -5.33562704316067       -2.92555677926534       -0.65490468115082
H           -1.35330315372733       -2.09310985049459       -1.04100935704101
H            1.66064364378622       -0.98447229524197        1.43718647329439
H            3.27864328095751        2.96536694978136       -0.18565652513496
H            5.29321789470952        4.37874171434213       -0.15018290305372
H            7.53247271474357        3.39074217138558       -0.07109847382296
H            7.82529545006014        0.93601428686162        0.00560199411990
H            7.46106981998447       -1.77607017597898        0.06335616580767
H            6.53126460911053       -4.06801604600046        0.08815738003512
H            4.11317763527255       -4.43514760940695       -0.03559590211423
H            2.54332974324837       -2.54581355350134       -0.15890391714104
H            2.18194697474541        1.65649320088539       -1.89164972694481
H           -0.25220517366957        2.05646485522572       -1.94236217326118
H           -1.34495876722793        1.68906985041014        2.29057448926336
H           -3.07329251828558        2.21575203973794        3.96564261243732
H           -5.45392918681001        2.13305054558629        3.39601610812448
H           -6.18669752185491        1.54568937476590        1.10871450342277
H           -6.30892316676430        0.76973966842171       -1.52904313819765
H           -5.79248361704171        0.04553159440182       -3.83673213456490
H           -3.47512584213574       -0.26500961465348       -4.56147683455388
H           -1.59435411490223        0.14148292351540       -3.01926461632617

          :  Hamiltonian                  GFN2-xTB          :
         :: gradient norm              0.000019406633 Eh/a0 ::
         :: HOMO-LUMO gap              1.685819059171 eV    ::
         :: SCC energy              -103.795862638570 Eh    ::
         :: -> dispersion             -0.097763941245 Eh    ::
         :: repulsion energy           1.816321867201 Eh    ::

    * Orbital Energies and Occupations

         #    Occupation            Energy/Eh            Energy/eV
      -------------------------------------------------------------
         1        2.0000           -0.7266264             -19.7725
       ...           ...                  ...                  ...
        82        2.0000           -0.4279456             -11.6450
        83        2.0000           -0.4258233             -11.5872
        84        2.0000           -0.4256703             -11.5831
        85        2.0000           -0.4238031             -11.5323
        86        2.0000           -0.4237487             -11.5308
        87        2.0000           -0.4131084             -11.2413
        88        2.0000           -0.4112184             -11.1898
        89        2.0000           -0.4045277             -11.0078
        90        2.0000           -0.3863742             -10.5138
        91        2.0000           -0.3846067             -10.4657
        92        2.0000           -0.3828933             -10.4191
        93        2.0000           -0.3763910             -10.2421
        94        2.0000           -0.3690331             -10.0419 (HOMO)
        95                         -0.3070805              -8.3561 (LUMO)
        96                         -0.2828057              -7.6955
        97                         -0.2693059              -7.3282
        98                         -0.2600040              -7.0751
        99                         -0.2518200              -6.8524
       100                         -0.2487816              -6.7697
       101                         -0.2294719              -6.2442
       102                         -0.2277927              -6.1986
       103                         -0.2221130              -6.0440
       104                         -0.2043096              -5.5595
       105                         -0.1957420              -5.3264
       ...                                ...                  ...
       182                          0.7398409              20.1321
      -------------------------------------------------------------
                  HL-Gap            0.0619526 Eh            1.6858 eV

     #   Z          covCN         q      C6AA      α(0)
     1   8 O        0.858    -0.351    20.733     6.105
     2   6 C        2.825     0.233    23.133     7.881
     3   6 C        2.960    -0.027    28.675     8.783
     4   6 C        2.936     0.092    25.961     8.356
     5   7 N        1.834    -0.217    26.563     7.638
     6   6 C        2.927     0.155    24.648     8.142
     7   7 N        1.834    -0.222    26.686     7.655
     8   6 C        2.935     0.084    26.134     8.384
     9   6 C        2.974    -0.026    28.658     8.781
    10   6 C        2.927    -0.035    28.861     8.810
    11   6 C        2.910     0.066    26.514     8.443
    12   7 N        2.802    -0.042    22.044     6.973
    13   6 C        3.071     0.046    26.894     8.503
    14   6 C        2.910    -0.051    29.261     8.870
    15   6 C        2.924    -0.032    28.808     8.802
    16   6 C        2.920    -0.039    28.976     8.827
    17   6 C        2.913    -0.032    28.792     8.799
    18   6 C        3.067    -0.015    28.311     8.725
    19   6 C        3.067    -0.015    28.310     8.725
    20   6 C        2.913    -0.032    28.789     8.798
    21   6 C        2.920    -0.039    28.967     8.826
    22   6 C        2.924    -0.032    28.791     8.799
    23   6 C        2.910    -0.050    29.234     8.866
    24   6 C        3.071     0.046    26.893     8.503
    25   6 C        2.922    -0.039    28.973     8.827
    26   6 C        2.920    -0.040    28.997     8.831
    27   6 C        2.913     0.062    26.603     8.458
    28   7 N        2.802    -0.058    22.355     7.022
    29   6 C        3.075     0.043    26.960     8.513
    30   6 C        2.909    -0.051    29.260     8.870
    31   6 C        2.925    -0.031    28.774     8.797
    32   6 C        2.920    -0.038    28.956     8.824
    33   6 C        2.913    -0.031    28.774     8.796
    34   6 C        3.067    -0.018    28.389     8.737
    35   6 C        3.069    -0.018    28.376     8.735
    36   6 C        2.913    -0.032    28.805     8.801
    37   6 C        2.920    -0.038    28.938     8.822
    38   6 C        2.925    -0.030    28.737     8.791
    39   6 C        2.910    -0.050    29.234     8.866
    40   6 C        3.072     0.045    26.906     8.505
    41   1 H        0.925     0.063     2.160     2.298
    42   1 H        0.925     0.059     2.214     2.327
    43   1 H        0.925     0.044     2.395     2.420
    44   1 H        0.926     0.067     2.116     2.275
    45   1 H        0.926     0.027     2.631     2.536
    46   1 H        0.926     0.032     2.564     2.504
    47   1 H        0.926     0.031     2.571     2.508
    48   1 H        0.926     0.034     2.532     2.488
    49   1 H        0.926     0.034     2.530     2.488
    50   1 H        0.926     0.032     2.564     2.504
    51   1 H        0.926     0.032     2.552     2.498
    52   1 H        0.926     0.025     2.661     2.551
    53   1 H        0.926     0.055     2.256     2.349
    54   1 H        0.926     0.054     2.269     2.356
    55   1 H        0.926     0.028     2.619     2.531
    56   1 H        0.926     0.036     2.496     2.471
    57   1 H        0.926     0.035     2.519     2.482
    58   1 H        0.926     0.037     2.492     2.469
    59   1 H        0.926     0.035     2.510     2.478
    60   1 H        0.926     0.034     2.528     2.486
    61   1 H        0.926     0.036     2.505     2.475
    62   1 H        0.926     0.026     2.638     2.540

molecular dipole:
                 x           y           z       tot (Debye)
 q only:        0.215       0.539      -0.999
   full:        0.477       0.686      -0.985       3.283

 projected vibrational frequencies (cm⁻¹)
eigval :       -0.00    -0.00    -0.00     0.00     0.00     0.00
eigval :       18.08    18.17    21.13    30.06    44.36    50.75
eigval :       59.76    70.30    86.42    99.78   105.05   117.40
eigval :      124.88   137.02   148.02   152.72   163.83   186.08
eigval :      197.01   212.17   240.98   260.30   271.87   273.92
eigval :      285.10   307.07   334.65   355.51   368.78   388.65
eigval :      395.07   403.37   413.13   420.14   423.50   429.81
eigval :      438.19   452.13   456.81   492.62   517.82   518.91
eigval :      529.20   532.74   541.01   541.17   569.25   585.72
eigval :      591.29   608.58   611.65   615.36   623.84   641.32
eigval :      671.12   673.64   678.09   686.91   704.87   706.61
eigval :      708.86   722.23   728.38   754.89   756.07   768.53
eigval :      769.86   780.29   781.24   785.74   833.99   839.98
eigval :      868.77   870.40   872.37   875.76   894.30   896.15
eigval :      899.28   901.85   902.17   903.30   904.26   908.85
eigval :      920.58   922.05   922.71   922.84   924.35   924.80
eigval :      932.80   941.46  1003.41  1011.65  1013.13  1031.95
eigval :     1069.55  1071.51  1072.99  1075.03  1091.70  1114.99
eigval :     1135.52  1139.23  1151.39  1152.64  1164.84  1175.43
eigval :     1178.11  1180.39  1180.61  1181.33  1187.64  1204.35
eigval :     1225.84  1226.38  1235.50  1236.04  1238.30  1242.53
eigval :     1251.16  1253.83  1296.57  1298.92  1300.68  1301.69
eigval :     1312.36  1339.38  1357.18  1357.64  1361.09  1361.95
eigval :     1384.23  1391.94  1395.34  1405.89  1421.69  1427.59
eigval :     1428.09  1443.67  1474.43  1475.85  1479.13  1487.27
eigval :     1487.55  1543.42  1544.08  1547.09  1575.89  1576.25
eigval :     1583.75  1589.80  1590.98  1599.70  1600.68  1613.93
eigval :     1615.02  1711.91  3041.36  3065.17  3069.55  3078.31
eigval :     3078.72  3079.84  3082.48  3083.12  3084.06  3084.64
eigval :     3086.97  3089.83  3091.51  3092.35  3092.83  3095.54
eigval :     3097.81  3099.29  3100.15  3100.48  3102.56  3103.50

   temp. (K)  partition function   enthalpy   heat capacity  entropy
                                   cal/mol     cal/K/mol   cal/K/mol   J/K/mol
 298.15  VIB  0.763E+13            17473.846    112.874    107.256
         ROT  0.370E+08              888.752      2.981     37.611
         INT  0.282E+21            18362.598    115.854    144.867
         TR   0.113E+29             1481.254      4.968     44.581
         TOT                       19843.8521   120.8226   189.4478   792.6497

       T/K    H(0)-H(T)+PV         H(T)/Eh          T*S/Eh         G(T)/Eh
   ------------------------------------------------------------------------
    298.15    0.316232E-01    0.496421E+00    0.900128E-01    0.406408E+00
   ------------------------------------------------------------------------

         :::::::::::::::::::::::::::::::::::::::::::::::::::::
         ::                  THERMODYNAMIC                  ::
         :::::::::::::::::::::::::::::::::::::::::::::::::::::
         :: total free energy        -101.573132893712 Eh   ::
         ::.................................................::
         :: total energy             -101.979540771370 Eh   ::
         :: zero point energy           0.464797460491 Eh   ::
         :: G(RRHO) w/o ZPVE           -0.058389582834 Eh   ::
         :: G(RRHO) contrib.            0.406407877657 Eh   ::
         :::::::::::::::::::::::::::::::::::::::::::::::::::::

           -------------------------------------------------
          | TOTAL ENERGY             -101.979540771370 Eh   |
          | TOTAL ENTHALPY           -101.483120119631 Eh   |
          | TOTAL FREE ENERGY        -101.573132893712 Eh   |
          | GRADIENT NORM               0.000019390318 Eh/α |
          | HOMO-LUMO GAP               1.685817252499 eV   |
           -------------------------------------------------

 * finished run on 2025/09/04 at 03:30:00.359
