   * xtb version 6.7.1 (edcfbbe) compiled by 'albert@albert-system' on 2024-07-22

   ID    Z sym.   atoms
    1    7 N      1, 7, 17, 32
    2    6 C      2-6, 8-16, 18-31, 33-47
    3    1 H      48-75

          program call               : xtb data2507/toluene/CNTPA-CZ/CNTPA-CZ_toluene_S0_finalOpt.xtbopt.xyz --gfn 2 --uhf 2 --gbsa toluene --ohess vtight --parallel 40 --molden --ceasefiles --namespace data2507/toluene/CNTPA-CZ/CNTPA-CZ_toluene_T1_preOpt
      * Solvation model:               GBSA
        Solvent                        toluene
        Solvent mass                       9.2140E+01 g/mol
          :  Hamiltonian                  GFN2-xTB          :
 * total energy  :  -118.0413359 Eh     change        0.8765568E-08 Eh
 * total energy  :  -118.0447006 Eh     change       -0.3364666E-02 Eh
 * total energy  :  -118.0459601 Eh     change       -0.1259532E-02 Eh
 * total energy  :  -118.0460660 Eh     change       -0.1058106E-03 Eh
 * total energy  :  -118.0461349 Eh     change       -0.6891567E-04 Eh
 * total energy  :  -118.0461667 Eh     change       -0.3179272E-04 Eh
 * total energy  :  -118.0462329 Eh     change       -0.6623809E-04 Eh
 * total energy  :  -118.0462885 Eh     change       -0.5563272E-04 Eh
 * total energy  :  -118.0463174 Eh     change       -0.2887800E-04 Eh
 * total energy  :  -118.0463422 Eh     change       -0.2475378E-04 Eh
 * total energy  :  -118.0465200 Eh     change       -0.7170874E-06 Eh
 * total energy  :  -118.0465208 Eh     change       -0.8389539E-06 Eh
 * total energy  :  -118.0465214 Eh     change       -0.5923921E-06 Eh
 * total energy  :  -118.0465218 Eh     change       -0.3805928E-06 Eh
 * total energy  :  -118.0465221 Eh     change       -0.3355244E-06 Eh
 * total energy  :  -118.0465225 Eh     change       -0.3789268E-06 Eh
 * total energy  :  -118.0465228 Eh     change       -0.2744282E-06 Eh
 * total energy  :  -118.0465229 Eh     change       -0.1154260E-06 Eh
 * total energy  :  -118.0465230 Eh     change       -0.5144096E-07 Eh
   *** GEOMETRY OPTIMIZATION CONVERGED AFTER 41 ITERATIONS ***

 final structure:
================
75
 xtb: 6.7.1 (edcfbbe)
N           -7.44082319373972        2.57612347727125        2.04293951028001
C           -6.34864556333752        2.55158456763377        1.63571809012780
C           -5.05904506121622        2.52168325287040        1.15761670719554
C           -4.04211453835437        1.76281263721788        1.82976388229857
C           -2.77553529148630        1.72453867778594        1.34868445980825
C           -2.41137271359725        2.45804803469236        0.17867340459881
N           -1.12472966681694        2.39183388740146       -0.31604729590547
C           -0.52953129902141        3.51509165521079       -0.88547360855190
C            0.33764833098772        3.37922124735650       -1.97657868585973
C            0.91035325955179        4.49610840937897       -2.54740322705640
C            0.62942957946467        5.76169648648203       -2.04895566979027
C           -0.23408714658299        5.90241517051952       -0.97082146128542
C           -0.81329888888018        4.79327642160995       -0.39012524812778
C           -0.42562100239734        1.19463309686039       -0.23742415745571
C           -1.09643534864065       -0.02426139958224       -0.43230057313128
C           -0.41147701197736       -1.21959065993208       -0.30873739968900
N           -1.06765135709550       -2.43565010658352       -0.52746631931897
C           -0.60045015990741       -3.47270413057180       -1.31515819532609
C            0.53932039849696       -3.54374938462186       -2.10470582103152
C            0.75805344356200       -4.70533019077652       -2.82206964739429
C           -0.13679635358211       -5.77153216639159       -2.77091725873239
C           -1.28806410144754       -5.69584437279980       -2.01011632790127
C           -1.52894859752077       -4.53878506070323       -1.28201967447456
C           -2.60835837612458       -4.11536355758229       -0.43221374379041
C           -3.78562923222568       -4.72164467919575       -0.01563075449164
C           -4.62437130071806       -4.02515671909725        0.83353856519504
C           -4.29204911184414       -2.74736170328100        1.27758587127246
C           -3.12327535721957       -2.12555151979120        0.87900232854505
C           -2.28846789537008       -2.80941500813050        0.00611867052613
C            0.94947975734278       -1.22103497274954        0.02309611266551
C            1.61822066979439       -0.00602045296268        0.21819659263941
N            2.97670000198997       -0.01250887794707        0.55147386892905
C            3.96147548431481        0.75052568409598       -0.04955934514157
C            3.87015625428850        1.63548952996688       -1.11461671410717
C            5.03005898079210        2.25306989086582       -1.54399458317559
C            6.25790679428971        1.99455966333396       -0.93894481097042
C            6.35942219338441        1.09668119798982        0.10666166097201
C            5.20744315150535        0.46448725481926        0.55490634938616
C            4.95142029926610       -0.51282092218958        1.57788042482495
C            5.75949663126818       -1.15631277656054        2.50531308527761
C            5.17573793983095       -2.04533675728640        3.38786379178281
C            3.80319565974462       -2.28201237924904        3.36294338225253
C            2.97852974200750       -1.65229492289761        2.44915446021248
C            3.56293042702046       -0.77954527057731        1.54154657328800
C            0.94105862363006        1.19288127007115        0.08889277701710
C           -3.41425160013118        3.23107108045515       -0.48149375778501
C           -4.68893581257597        3.25506653074475       -0.02066055734349
H           -4.31060487436320        1.23908855223628        2.73579537831652
H           -2.00244322330745        1.18717428882125        1.87944160713743
H            0.52689917859374        2.39582727818621       -2.38075837993530
H            1.57133561957746        4.38432231812422       -3.39363303698354
H            1.07907667074384        6.63308423181101       -2.49918245489474
H           -0.44986752140971        6.88367469241197       -0.57584547382252
H           -1.46759874446800        4.89507481413149        0.46284990607373
H           -2.13434410231981       -0.01634237797618       -0.72612977431034
H            1.23081833028153       -2.71795327978790       -2.17208653874819
H            1.64007766639781       -4.78471540239653       -3.44039688899696
H            0.06988979702628       -6.66337689056614       -3.34381113432069
H           -1.99138296490630       -6.51437014392374       -1.98477899503249
H           -4.03639121290510       -5.71756920594442       -0.34821133317633
H           -5.54828232627884       -4.47542684232833        1.16520120883473
H           -4.96232807679170       -2.23006654830707        1.94840628326620
H           -2.87636909398966       -1.14037562950636        1.24210332707287
H            1.48014128109905       -2.15280425864779        0.12605969009488
H            2.92809127944666        1.83345905177378       -1.60061080548691
H            4.98348608969788        2.94956469599098       -2.36801617997846
H            7.14206401119250        2.49867656139845       -1.30019929722183
H            7.31362499749694        0.88519893403339        0.56522154413037
H            6.82067267896273       -0.96036662929332        2.53691030341501
H            5.78685738342783       -2.55761009052719        4.11618703070051
H            3.37197442121965       -2.96876011673039        4.07646007742030
H            1.91358382620680       -1.82828493694650        2.45595361941066
H            1.44610446857506        2.12667451268487        0.27971065532972
H           -3.14789294800666        3.76045027975720       -1.38471991580381
H           -5.45525304683128        3.81798871441456       -0.53331457096762

          :  Hamiltonian                  GFN2-xTB          :
         :: gradient norm              0.000042024582 Eh/a0 ::
         :: HOMO-LUMO gap              0.285785190404 eV    ::
         :: SCC energy              -120.276164968192 Eh    ::
         :: -> dispersion             -0.108424999477 Eh    ::
         :: -> Gsolv                  -0.057391196809 Eh    ::
         :: repulsion energy           2.229642016477 Eh    ::

    * Orbital Energies and Occupations

         #    Occupation            Energy/Eh            Energy/eV
      -------------------------------------------------------------
         1        2.0000           -0.6909018             -18.8004
       ...           ...                  ...                  ...
        99        2.0000           -0.4221949             -11.4885
       100        2.0000           -0.4211639             -11.4605
       101        2.0000           -0.4147040             -11.2847
       102        2.0000           -0.4116872             -11.2026
       103        2.0000           -0.4112541             -11.1908
       104        2.0000           -0.4050261             -11.0213
       105        2.0000           -0.3988642             -10.8536
       106        2.0000           -0.3851394             -10.4802
       107        2.0000           -0.3846381             -10.4665
       108        1.9764           -0.3718106             -10.1175
       109        1.9478           -0.3710276             -10.0962
       110        1.0758           -0.3658969              -9.9566
       111        0.9944           -0.2658916              -7.2353 (HOMO)
       112        0.0028           -0.2553897              -6.9495 (LUMO)
       113        0.0027           -0.2553531              -6.9485
       114        0.0000           -0.2498887              -6.7998
       115        0.0000           -0.2456755              -6.6852
       116                         -0.2403605              -6.5405
       117                         -0.2286804              -6.2227
       118                         -0.2282594              -6.2113
       119                         -0.2259968              -6.1497
       120                         -0.2227811              -6.0622
       121                         -0.2004225              -5.4538
       122                         -0.1951886              -5.3114
       ...                                ...                  ...
       216                          1.1581446              31.5147
      -------------------------------------------------------------
                  HL-Gap            0.0105020 Eh            0.2858 eV

     #   Z          covCN         q      C6AA      α(0)
     1   7 N        0.911    -0.367    29.454     7.849
     2   6 C        1.908     0.091    28.835     8.672
     3   6 C        2.963    -0.015    28.388     8.739
     4   6 C        2.914    -0.035    28.880     8.812
     5   6 C        2.909    -0.040    28.989     8.829
     6   6 C        2.928     0.021    27.543     8.607
     7   7 N        2.752     0.008    21.124     6.826
     8   6 C        2.929     0.060    26.663     8.468
     9   6 C        2.920    -0.038    28.942     8.822
    10   6 C        2.917    -0.024    28.594     8.769
    11   6 C        2.919    -0.026    28.658     8.779
    12   6 C        2.918    -0.024    28.594     8.769
    13   6 C        2.920    -0.035    28.882     8.813
    14   6 C        2.930     0.051    26.848     8.497
    15   6 C        2.921    -0.060    29.500     8.907
    16   6 C        2.907     0.067    26.510     8.443
    17   7 N        2.802    -0.033    21.884     6.948
    18   6 C        3.070     0.046    26.895     8.503
    19   6 C        2.910    -0.049    29.220     8.864
    20   6 C        2.923    -0.033    28.828     8.805
    21   6 C        2.920    -0.039    28.958     8.825
    22   6 C        2.912    -0.032    28.802     8.800
    23   6 C        3.066    -0.015    28.316     8.726
    24   6 C        3.066    -0.015    28.327     8.727
    25   6 C        2.912    -0.032    28.809     8.801
    26   6 C        2.920    -0.038    28.955     8.824
    27   6 C        2.923    -0.032    28.807     8.802
    28   6 C        2.910    -0.050    29.235     8.866
    29   6 C        3.069     0.046    26.895     8.504
    30   6 C        2.923    -0.066    29.647     8.929
    31   6 C        2.907     0.067    26.501     8.441
    32   7 N        2.802    -0.033    21.870     6.946
    33   6 C        3.071     0.045    26.913     8.506
    34   6 C        2.910    -0.050    29.252     8.869
    35   6 C        2.923    -0.033    28.830     8.805
    36   6 C        2.920    -0.039    28.968     8.826
    37   6 C        2.912    -0.032    28.807     8.801
    38   6 C        3.066    -0.015    28.323     8.727
    39   6 C        3.066    -0.015    28.323     8.727
    40   6 C        2.912    -0.032    28.806     8.801
    41   6 C        2.920    -0.039    28.961     8.825
    42   6 C        2.923    -0.033    28.825     8.805
    43   6 C        2.910    -0.049    29.218     8.863
    44   6 C        3.070     0.046    26.898     8.504
    45   6 C        2.920    -0.065    29.612     8.924
    46   6 C        2.908    -0.040    28.992     8.829
    47   6 C        2.914    -0.036    28.899     8.815
    48   1 H        0.926     0.022     2.708     2.573
    49   1 H        0.926     0.031     2.578     2.511
    50   1 H        0.926     0.046     2.366     2.405
    51   1 H        0.926     0.050     2.315     2.379
    52   1 H        0.926     0.049     2.337     2.390
    53   1 H        0.926     0.048     2.342     2.393
    54   1 H        0.926     0.048     2.346     2.395
    55   1 H        0.926     0.053     2.279     2.361
    56   1 H        0.926     0.036     2.502     2.473
    57   1 H        0.926     0.036     2.508     2.476
    58   1 H        0.926     0.033     2.539     2.492
    59   1 H        0.926     0.035     2.511     2.478
    60   1 H        0.926     0.036     2.501     2.473
    61   1 H        0.926     0.032     2.559     2.502
    62   1 H        0.926     0.030     2.580     2.512
    63   1 H        0.926     0.034     2.529     2.487
    64   1 H        0.926     0.058     2.220     2.330
    65   1 H        0.926     0.037     2.495     2.470
    66   1 H        0.926     0.036     2.504     2.475
    67   1 H        0.926     0.033     2.549     2.496
    68   1 H        0.926     0.035     2.520     2.483
    69   1 H        0.926     0.035     2.510     2.477
    70   1 H        0.926     0.033     2.551     2.498
    71   1 H        0.926     0.034     2.533     2.489
    72   1 H        0.926     0.034     2.533     2.489
    73   1 H        0.926     0.054     2.264     2.353
    74   1 H        0.926     0.034     2.528     2.486
    75   1 H        0.926     0.022     2.699     2.569

molecular dipole:
                 x           y           z       tot (Debye)
 q only:        4.601      -0.154      -1.769
   full:        4.838      -0.115      -1.847      13.166

 projected vibrational frequencies (cm⁻¹)
eigval :       -0.00    -0.00    -0.00     0.00     0.00     0.00
eigval :       15.66    16.32    19.57    20.60    24.79    27.00
eigval :       40.37    60.45    61.37    71.41    73.39    90.76
eigval :       93.99    99.15   107.57   128.18   138.78   139.78
eigval :      142.27   146.94   172.26   204.30   224.68   226.97
eigval :      240.39   245.74   257.51   260.78   270.37   272.80
eigval :      293.74   304.18   315.12   337.91   357.98   367.55
eigval :      376.01   383.52   391.01   395.08   408.12   421.53
eigval :      422.50   434.51   435.20   436.11   451.74   469.33
eigval :      506.61   516.27   517.80   522.06   527.92   531.85
eigval :      537.42   539.46   541.77   566.02   574.69   585.65
eigval :      586.33   586.66   599.28   609.09   616.26   622.17
eigval :      628.71   651.15   652.84   653.97   672.73   673.55
eigval :      707.11   707.88   711.68   747.69   753.33   754.02
eigval :      763.67   766.38   767.88   769.10   774.72   778.69
eigval :      780.55   799.68   812.62   851.42   859.94   863.00
eigval :      872.97   873.65   878.14   879.35   881.59   884.88
eigval :      891.22   892.68   894.49   895.65   898.47   901.97
eigval :      904.00   904.64   906.43   920.72   922.44   923.19
eigval :      924.66   926.78   926.93   951.31   962.99   980.62
eigval :     1008.02  1010.54  1031.79  1035.99  1068.81  1070.26
eigval :     1071.14  1072.72  1073.59  1115.84  1116.22  1118.60
eigval :     1127.36  1147.89  1148.44  1152.72  1161.32  1172.23
eigval :     1174.89  1176.30  1178.21  1179.19  1179.63  1180.89
eigval :     1188.09  1202.19  1222.26  1229.86  1231.63  1232.69
eigval :     1239.92  1253.93  1264.01  1272.64  1286.56  1291.47
eigval :     1294.00  1296.51  1301.23  1312.38  1314.11  1327.84
eigval :     1331.45  1335.02  1351.67  1352.21  1353.65  1355.20
eigval :     1357.15  1368.96  1400.44  1405.67  1417.98  1419.61
eigval :     1420.01  1431.39  1434.44  1437.88  1464.62  1466.57
eigval :     1469.66  1470.29  1483.38  1483.64  1499.47  1536.74
eigval :     1559.52  1568.15  1568.55  1580.43  1582.09  1586.72
eigval :     1588.72  1590.03  1598.52  1602.85  2182.18  3065.89
eigval :     3072.20  3075.63  3075.87  3076.45  3077.24  3080.70
eigval :     3081.32  3081.86  3081.90  3082.85  3083.95  3084.62
eigval :     3085.44  3088.62  3089.42  3090.36  3091.88  3092.49
eigval :     3094.60  3094.65  3095.79  3100.87  3102.93  3104.08
eigval :     3106.46  3108.09  3123.07

   temp. (K)  partition function   enthalpy   heat capacity  entropy
                                   cal/mol     cal/K/mol   cal/K/mol   J/K/mol
 298.15  VIB  0.363E+17            21676.629    138.409    133.651
         ROT  0.694E+08              888.752      2.981     38.862
         INT  0.252E+25            22565.382    141.389    172.512
         TR   0.142E+29             1481.254      4.968     45.042
         TOT                       24046.6357   146.3576   217.5542   910.2470

       T/K    H(0)-H(T)+PV         H(T)/Eh          T*S/Eh         G(T)/Eh
   ------------------------------------------------------------------------
    298.15    0.383208E-01    0.605044E+00    0.103367E+00    0.501677E+00
   ------------------------------------------------------------------------

         :::::::::::::::::::::::::::::::::::::::::::::::::::::
         ::                  THERMODYNAMIC                  ::
         :::::::::::::::::::::::::::::::::::::::::::::::::::::
         :: total free energy        -117.544846127019 Eh   ::
         ::.................................................::
         :: total energy             -118.046522949131 Eh   ::
         :: zero point energy           0.566723111313 Eh   ::
         :: G(RRHO) w/o ZPVE           -0.065046289200 Eh   ::
         :: G(RRHO) contrib.            0.501676822112 Eh   ::
         :::::::::::::::::::::::::::::::::::::::::::::::::::::

           -------------------------------------------------
          | TOTAL ENERGY             -118.046522949131 Eh   |
          | TOTAL ENTHALPY           -117.441479084547 Eh   |
          | TOTAL FREE ENERGY        -117.544846127019 Eh   |
          | GRADIENT NORM               0.000042426247 Eh/α |
          | HOMO-LUMO GAP               0.285773521675 eV   |
           -------------------------------------------------

 * finished run on 2025/09/14 at 10:09:10.821
