   * xtb version 6.7.1 (edcfbbe) compiled by 'albert@albert-system' on 2024-07-22

   ID    Z sym.   atoms
    1    7 N      1, 7, 17, 32
    2    6 C      2-6, 8-16, 18-31, 33-47
    3    1 H      48-75

          program call               : xtb data2507/toluene/CNTPA-CZ/CNTPA-CZ_toluene_T1_crest.xyz --gfn 2 --uhf 2 --gbsa toluene --ohess vtight --parallel 40 --molden --ceasefiles --namespace data2507/toluene/CNTPA-CZ/CNTPA-CZ_toluene_T1_finalOpt
      * Solvation model:               GBSA
        Solvent                        toluene
        Solvent mass                       9.2140E+01 g/mol
          :  Hamiltonian                  GFN2-xTB          :
 * total energy  :  -118.0462481 Eh     change       -0.3367845E-08 Eh
 * total energy  :  -118.0463182 Eh     change       -0.7012217E-04 Eh
 * total energy  :  -118.0463518 Eh     change       -0.3362616E-04 Eh
 * total energy  :  -118.0463627 Eh     change       -0.1087464E-04 Eh
 * total energy  :  -118.0463872 Eh     change       -0.2455943E-04 Eh
 * total energy  :  -118.0464093 Eh     change       -0.2201205E-04 Eh
 * total energy  :  -118.0464255 Eh     change       -0.1620675E-04 Eh
 * total energy  :  -118.0464394 Eh     change       -0.1394745E-04 Eh
 * total energy  :  -118.0464463 Eh     change       -0.6902929E-05 Eh
 * total energy  :  -118.0464550 Eh     change       -0.8717538E-05 Eh
 * total energy  :  -118.0464917 Eh     change       -0.1982561E-06 Eh
 * total energy  :  -118.0464919 Eh     change       -0.2244053E-06 Eh
 * total energy  :  -118.0464921 Eh     change       -0.2417339E-06 Eh
 * total energy  :  -118.0464924 Eh     change       -0.2258862E-06 Eh
 * total energy  :  -118.0464925 Eh     change       -0.1930310E-06 Eh
 * total energy  :  -118.0464927 Eh     change       -0.1701804E-06 Eh
 * total energy  :  -118.0464929 Eh     change       -0.1479851E-06 Eh
 * total energy  :  -118.0464930 Eh     change       -0.1333375E-06 Eh
 * total energy  :  -118.0464931 Eh     change       -0.9092444E-07 Eh
   *** GEOMETRY OPTIMIZATION CONVERGED AFTER 39 ITERATIONS ***

 final structure:
================
75
 xtb: 6.7.1 (edcfbbe)
N           -7.35770391347210        2.78332129887722        2.09383814650198
C           -6.26675712885550        2.73179229908814        1.68586802734263
C           -4.97868331163880        2.67012813611859        1.20664493500721
C           -3.98720850343072        1.86420464344806        1.86162607774345
C           -2.72256160737141        1.79485799022501        1.37886317926575
C           -2.33503364500996        2.53998852542303        0.22375016533940
N           -1.05208710752464        2.44055997111356       -0.27471393410439
C           -0.42084274939945        3.55382447376978       -0.82480324282053
C            0.43788277155210        3.40942573031602       -1.92141370802113
C            1.04733025004264        4.51685415147410       -2.47234543236031
C            0.81159707966996        5.78138533095621       -1.94848245007873
C           -0.04401627532520        5.93083691635093       -0.86523824877070
C           -0.65943801558644        4.83111641448605       -0.30413783576046
C           -0.39190031642821        1.22032003281295       -0.21782293225983
C           -1.10172051619843        0.02692837321393       -0.43222963494438
C           -0.45621151291767       -1.19174606324777       -0.32605275739725
N           -1.15095163327948       -2.38282423244078       -0.56255315462999
C           -0.71439089602463       -3.42432449599564       -1.36199486361400
C            0.42408408174803       -3.52068494675394       -2.15078077590135
C            0.60811546071304       -4.67924712202091       -2.88258195716350
C           -0.31918624473285       -5.71796199933286       -2.84579030382493
C           -1.46903994472353       -5.61618652962498       -2.08588982769064
C           -1.67550248897888       -4.46143689437985       -1.34365873360783
C           -2.74334937201694       -4.01494817460853       -0.49106061580927
C           -3.94032440301154       -4.58908973584113       -0.08526099063850
C           -4.75953023408911       -3.87717992461953        0.77017167965329
C           -4.38872211826318       -2.61597943136899        1.23080689690580
C           -3.19995703262544       -2.02615289751241        0.84290441908629
C           -2.38416947701737       -2.72495605990797       -0.03613444722499
C            0.90368219549344       -1.24250549311411        0.00675294179036
C            1.61181454698107       -0.05285532594089        0.21837725934661
N            2.96974231358685       -0.10795984444964        0.54978726871883
C            3.97788127318912        0.62961649942990       -0.04407069006218
C            3.91361908206669        1.52789955681237       -1.09986216457990
C            5.09209393304647        2.11265650507289       -1.52449103417449
C            6.31167530322905        1.80881825334742       -0.92371380217955
C            6.38566035542217        0.89733142478673        0.11240918921748
C            5.21466577240980        0.29721107029211        0.55547362884410
C            4.92844614476730       -0.68305068789204        1.56758621961172
C            5.71638454295368       -1.36353220173017        2.48589524552367
C            5.10522664488891       -2.24398127366862        3.35845678502346
C            3.72580822330344       -2.43644049999005        3.33248777597781
C            2.92083498914176       -1.76946824557640        2.42760769687227
C            3.53205048998387       -0.90475106191574        1.53004961551469
C            0.97406036717799        1.16926028240827        0.10745612013522
C           -3.31205605479603        3.35943410659948       -0.41890281279160
C           -4.58506351888456        3.41567154789450        0.04375748546669
H           -4.27253780754373        1.33063269166298        2.75670222452468
H           -1.96729406374037        1.22162641457331        1.89764680402265
H            0.59195306882414        2.42806918617702       -2.34509503621507
H            1.70176390417796        4.39886226826328       -3.32282822184277
H            1.28984146423176        6.64536707331335       -2.38327044719788
H           -0.22517822982544        6.91114416110960       -0.45091623038546
H           -1.30807338990887        4.93873417618824        0.55245833301628
H           -2.13840205340907        0.07311636648411       -0.72681344276357
H            1.14036430256091       -2.71539665995824       -2.20720532243386
H            1.48829408135026       -4.77803016776855       -3.50073671621845
H           -0.13893375651536       -6.60867084238954       -3.42928421805538
H           -2.19699727166068       -6.41319633300128       -2.07176994443826
H           -4.22108391077183       -5.57241659508649       -0.43109255754990
H           -5.69806559222963       -4.30238756335645        1.09375472545588
H           -5.04446925705680       -2.08619802037184        1.90624680709036
H           -2.92405248286846       -1.05351233442067        1.21862661889221
H            1.40337550888489       -2.19248234316421        0.09762021188041
H            2.97763793614635        1.76010788673857       -1.58243734562895
H            5.06696336766875        2.81830976740264       -2.34162494590120
H            7.21108123542743        2.28821506747957       -1.28097756944833
H            7.33314073732730        0.65075403112263        0.56733072593880
H            6.78342792168316       -1.20263916404022        2.51806006753396
H            5.70037000799358       -2.78462409340617        4.07945227351718
H            3.27356529361463       -3.11773414318037        4.03817402333730
H            1.85082593302737       -1.91147010510906        2.43337505979293
H            1.50911939437271        2.08329015779937        0.31173327807952
H           -3.02887100427682        3.89877559141729       -1.31106025181152
H           -5.33259957534827        4.01441623163799       -0.45587448957125

          :  Hamiltonian                  GFN2-xTB          :
         :: gradient norm              0.000024823476 Eh/a0 ::
         :: HOMO-LUMO gap              0.286925616641 eV    ::
         :: SCC energy              -120.276108860819 Eh    ::
         :: -> dispersion             -0.108435605572 Eh    ::
         :: -> Gsolv                  -0.057344345669 Eh    ::
         :: repulsion energy           2.229615772430 Eh    ::

    * Orbital Energies and Occupations

         #    Occupation            Energy/Eh            Energy/eV
      -------------------------------------------------------------
         1        2.0000           -0.6908958             -18.8002
       ...           ...                  ...                  ...
        99        2.0000           -0.4221791             -11.4881
       100        2.0000           -0.4211704             -11.4606
       101        2.0000           -0.4147173             -11.2850
       102        2.0000           -0.4116808             -11.2024
       103        2.0000           -0.4112404             -11.1904
       104        2.0000           -0.4050790             -11.0228
       105        2.0000           -0.3988969             -10.8545
       106        2.0000           -0.3851351             -10.4801
       107        2.0000           -0.3846306             -10.4663
       108        1.9764           -0.3717977             -10.1171
       109        1.9480           -0.3710193             -10.0960
       110        1.0757           -0.3658842              -9.9562
       111        0.9946           -0.2659060              -7.2357 (HOMO)
       112        0.0028           -0.2553614              -6.9487 (LUMO)
       113        0.0027           -0.2553342              -6.9480
       114        0.0000           -0.2498810              -6.7996
       115        0.0000           -0.2456577              -6.6847
       116                         -0.2403636              -6.5406
       117                         -0.2286716              -6.2225
       118                         -0.2282544              -6.2111
       119                         -0.2260193              -6.1503
       120                         -0.2228147              -6.0631
       121                         -0.2004233              -5.4538
       122                         -0.1951892              -5.3114
       ...                                ...                  ...
       216                          1.1581252              31.5142
      -------------------------------------------------------------
                  HL-Gap            0.0105446 Eh            0.2869 eV

     #   Z          covCN         q      C6AA      α(0)
     1   7 N        0.911    -0.367    29.452     7.849
     2   6 C        1.908     0.091    28.834     8.672
     3   6 C        2.963    -0.015    28.387     8.739
     4   6 C        2.914    -0.035    28.880     8.812
     5   6 C        2.909    -0.040    28.989     8.829
     6   6 C        2.928     0.021    27.542     8.606
     7   7 N        2.752     0.008    21.123     6.826
     8   6 C        2.929     0.060    26.664     8.468
     9   6 C        2.920    -0.038    28.941     8.822
    10   6 C        2.917    -0.024    28.594     8.769
    11   6 C        2.919    -0.026    28.658     8.779
    12   6 C        2.918    -0.024    28.594     8.769
    13   6 C        2.920    -0.035    28.882     8.813
    14   6 C        2.930     0.051    26.850     8.498
    15   6 C        2.921    -0.060    29.501     8.907
    16   6 C        2.907     0.067    26.510     8.443
    17   7 N        2.802    -0.033    21.884     6.948
    18   6 C        3.070     0.046    26.895     8.503
    19   6 C        2.910    -0.049    29.220     8.864
    20   6 C        2.923    -0.033    28.828     8.805
    21   6 C        2.920    -0.039    28.958     8.825
    22   6 C        2.912    -0.032    28.802     8.800
    23   6 C        3.065    -0.015    28.316     8.726
    24   6 C        3.066    -0.015    28.327     8.727
    25   6 C        2.912    -0.032    28.809     8.801
    26   6 C        2.920    -0.038    28.955     8.824
    27   6 C        2.923    -0.032    28.807     8.802
    28   6 C        2.910    -0.050    29.236     8.866
    29   6 C        3.069     0.046    26.895     8.504
    30   6 C        2.923    -0.066    29.648     8.929
    31   6 C        2.907     0.067    26.502     8.441
    32   7 N        2.802    -0.033    21.870     6.946
    33   6 C        3.071     0.045    26.913     8.506
    34   6 C        2.910    -0.050    29.251     8.868
    35   6 C        2.923    -0.033    28.830     8.805
    36   6 C        2.920    -0.039    28.968     8.826
    37   6 C        2.912    -0.032    28.807     8.801
    38   6 C        3.066    -0.015    28.323     8.727
    39   6 C        3.066    -0.015    28.323     8.727
    40   6 C        2.912    -0.032    28.806     8.801
    41   6 C        2.920    -0.039    28.961     8.825
    42   6 C        2.923    -0.033    28.825     8.805
    43   6 C        2.910    -0.049    29.218     8.863
    44   6 C        3.071     0.046    26.897     8.504
    45   6 C        2.920    -0.065    29.611     8.924
    46   6 C        2.908    -0.040    28.992     8.829
    47   6 C        2.914    -0.036    28.899     8.815
    48   1 H        0.926     0.022     2.707     2.573
    49   1 H        0.926     0.031     2.577     2.510
    50   1 H        0.926     0.046     2.366     2.405
    51   1 H        0.926     0.050     2.315     2.379
    52   1 H        0.926     0.049     2.337     2.390
    53   1 H        0.926     0.048     2.342     2.393
    54   1 H        0.926     0.048     2.346     2.395
    55   1 H        0.926     0.053     2.279     2.361
    56   1 H        0.926     0.036     2.501     2.473
    57   1 H        0.926     0.036     2.508     2.476
    58   1 H        0.926     0.033     2.539     2.492
    59   1 H        0.926     0.035     2.511     2.478
    60   1 H        0.926     0.036     2.501     2.473
    61   1 H        0.926     0.032     2.559     2.502
    62   1 H        0.926     0.030     2.581     2.512
    63   1 H        0.926     0.034     2.528     2.486
    64   1 H        0.926     0.058     2.220     2.330
    65   1 H        0.926     0.036     2.496     2.471
    66   1 H        0.926     0.036     2.504     2.475
    67   1 H        0.926     0.033     2.548     2.496
    68   1 H        0.926     0.035     2.520     2.483
    69   1 H        0.926     0.035     2.510     2.477
    70   1 H        0.926     0.033     2.551     2.498
    71   1 H        0.926     0.034     2.533     2.489
    72   1 H        0.926     0.034     2.533     2.489
    73   1 H        0.926     0.054     2.266     2.354
    74   1 H        0.926     0.034     2.528     2.486
    75   1 H        0.926     0.022     2.699     2.569

molecular dipole:
                 x           y           z       tot (Debye)
 q only:        4.590      -0.267      -1.775
   full:        4.828      -0.234      -1.852      13.157

 projected vibrational frequencies (cm⁻¹)
eigval :       -0.00    -0.00    -0.00     0.00     0.00     0.00
eigval :       14.83    17.35    20.45    21.83    25.47    27.21
eigval :       40.49    59.75    61.70    71.42    74.31    89.71
eigval :       93.67   100.09   108.47   128.84   138.86   140.90
eigval :      142.46   147.89   172.19   205.33   224.83   226.83
eigval :      241.02   248.54   258.61   262.06   270.96   273.75
eigval :      294.59   304.14   316.07   338.05   358.63   367.69
eigval :      376.51   383.76   390.85   395.12   408.26   421.05
eigval :      423.08   435.00   435.44   436.09   452.29   468.95
eigval :      508.38   516.24   518.03   522.14   528.26   532.20
eigval :      537.52   539.94   542.11   566.34   575.25   585.62
eigval :      586.23   586.66   599.83   609.07   616.32   622.44
eigval :      630.07   651.40   653.61   655.55   672.56   673.99
eigval :      706.99   708.28   712.06   747.80   753.31   754.74
eigval :      763.88   767.00   767.90   769.52   774.79   778.25
eigval :      780.87   800.44   814.41   852.23   859.43   862.32
eigval :      871.85   873.18   878.14   878.45   881.12   885.48
eigval :      891.48   893.02   894.77   896.76   898.59   903.14
eigval :      903.33   904.42   905.84   921.99   922.79   924.27
eigval :      924.58   925.59   926.65   951.27   963.29   980.51
eigval :     1007.94  1010.48  1031.84  1036.33  1068.84  1069.00
eigval :     1071.52  1072.12  1073.67  1116.07  1116.63  1118.48
eigval :     1127.75  1148.05  1148.48  1152.50  1161.34  1172.18
eigval :     1173.98  1176.50  1178.12  1178.78  1179.91  1181.20
eigval :     1188.37  1202.32  1223.02  1229.61  1230.92  1232.56
eigval :     1239.77  1253.90  1264.18  1272.55  1286.46  1291.42
eigval :     1294.27  1296.32  1301.35  1312.55  1314.31  1327.76
eigval :     1331.56  1335.09  1351.60  1352.35  1353.68  1355.42
eigval :     1357.28  1368.56  1400.57  1406.44  1417.84  1419.03
eigval :     1420.18  1431.27  1434.59  1438.26  1464.82  1466.94
eigval :     1469.83  1470.54  1483.52  1483.57  1499.42  1536.75
eigval :     1559.62  1568.13  1568.37  1580.38  1582.15  1586.73
eigval :     1588.65  1590.22  1598.43  1602.56  2182.38  3066.62
eigval :     3072.28  3075.22  3075.80  3076.05  3077.10  3080.59
eigval :     3080.89  3081.31  3082.25  3082.83  3083.54  3084.40
eigval :     3085.39  3088.05  3088.58  3090.73  3091.96  3092.28
eigval :     3094.13  3094.51  3095.23  3101.36  3103.37  3103.63
eigval :     3106.98  3108.33  3122.52

   temp. (K)  partition function   enthalpy   heat capacity  entropy
                                   cal/mol     cal/K/mol   cal/K/mol   J/K/mol
 298.15  VIB  0.302E+17            21652.738    138.377    133.386
         ROT  0.694E+08              888.752      2.981     38.861
         INT  0.209E+25            22541.490    141.358    172.248
         TR   0.142E+29             1481.254      4.968     45.042
         TOT                       24022.7439   146.3261   217.2897   909.1401

       T/K    H(0)-H(T)+PV         H(T)/Eh          T*S/Eh         G(T)/Eh
   ------------------------------------------------------------------------
    298.15    0.382827E-01    0.605081E+00    0.103241E+00    0.501840E+00
   ------------------------------------------------------------------------

         :::::::::::::::::::::::::::::::::::::::::::::::::::::
         ::                  THERMODYNAMIC                  ::
         :::::::::::::::::::::::::::::::::::::::::::::::::::::
         :: total free energy        -117.544653112794 Eh   ::
         ::.................................................::
         :: total energy             -118.046493085362 Eh   ::
         :: zero point energy           0.566798636429 Eh   ::
         :: G(RRHO) w/o ZPVE           -0.064958663861 Eh   ::
         :: G(RRHO) contrib.            0.501839972568 Eh   ::
         :::::::::::::::::::::::::::::::::::::::::::::::::::::

           -------------------------------------------------
          | TOTAL ENERGY             -118.046493085362 Eh   |
          | TOTAL ENTHALPY           -117.441411769782 Eh   |
          | TOTAL FREE ENERGY        -117.544653112794 Eh   |
          | GRADIENT NORM               0.000025009832 Eh/α |
          | HOMO-LUMO GAP               0.286932366193 eV   |
           -------------------------------------------------

 * finished run on 2025/09/14 at 10:15:40.589
