   * xtb version 6.7.1 (edcfbbe) compiled by 'albert@albert-system' on 2024-07-22

   ID    Z sym.   atoms
    1    7 N      1, 7, 17, 32
    2    6 C      2-6, 8-16, 18-31, 33-47
    3    1 H      48-75

          program call               : xtb data2507/toluene/CNTPA-CZ/CNTPA-CZ.xyz --gfn 2 --gbsa toluene --ohess vtight --parallel 40 --molden --ceasefiles --namespace data2507/toluene/CNTPA-CZ/CNTPA-CZ_toluene_S0_preOpt
      * Solvation model:               GBSA
        Solvent                        toluene
        Solvent mass                       9.2140E+01 g/mol
          :  Hamiltonian                  GFN2-xTB          :
 * total energy  :  -118.1219596 Eh     change       -0.2512564E-08 Eh
 * total energy  :  -118.1374940 Eh     change       -0.1553441E-01 Eh
 * total energy  :  -118.1423751 Eh     change       -0.4881009E-02 Eh
 * total energy  :  -118.1436581 Eh     change       -0.1283048E-02 Eh
 * total energy  :  -118.1442151 Eh     change       -0.5569774E-03 Eh
 * total energy  :  -118.1440342 Eh     change        0.1808971E-03 Eh
 * total energy  :  -118.1445506 Eh     change       -0.5164229E-03 Eh
 * total energy  :  -118.1446728 Eh     change       -0.1222330E-03 Eh
 * total energy  :  -118.1448414 Eh     change       -0.1685792E-03 Eh
 * total energy  :  -118.1449727 Eh     change       -0.1313073E-03 Eh
 * total energy  :  -118.1454586 Eh     change       -0.7707420E-06 Eh
 * total energy  :  -118.1454593 Eh     change       -0.7471917E-06 Eh
 * total energy  :  -118.1454599 Eh     change       -0.6130431E-06 Eh
 * total energy  :  -118.1454604 Eh     change       -0.4827135E-06 Eh
 * total energy  :  -118.1454608 Eh     change       -0.4456139E-06 Eh
 * total energy  :  -118.1454612 Eh     change       -0.3610496E-06 Eh
 * total energy  :  -118.1454616 Eh     change       -0.3864891E-06 Eh
 * total energy  :  -118.1454619 Eh     change       -0.2810167E-06 Eh
 * total energy  :  -118.1454619 Eh     change       -0.7601585E-08 Eh
   *** GEOMETRY OPTIMIZATION CONVERGED AFTER 68 ITERATIONS ***

 final structure:
================
75
 xtb: 6.7.1 (edcfbbe)
N           -6.83112282439750        4.37622559716456        2.32357129394137
C           -5.80072274579925        4.07347030571161        1.91397263229281
C           -4.53772332389404        3.70377968253396        1.41437475075181
C           -3.83462961710742        2.64225880851262        1.99310843174466
C           -2.60082976251822        2.28306244189406        1.50291848907796
C           -2.03359161780187        2.96636724447354        0.41942355331764
N           -0.79455830774327        2.59483411076588       -0.07478212829240
C            0.06697616201900        3.54818448372554       -0.65239496953313
C            0.76447130976441        3.23948681343523       -1.81804435033921
C            1.62497292559810        4.16586031692445       -2.37680417898173
C            1.79607220951503        5.40708028409664       -1.78556830079962
C            1.10045606850851        5.71818574958753       -0.62831734863087
C            0.24249184014218        4.79576005727568       -0.05871256772308
C           -0.36917740011341        1.26048593345214       -0.02274462732998
C           -1.25466811128796        0.22538405206608       -0.31268329120497
C           -0.81696033457924       -1.09333871253605       -0.27705449418467
N           -1.70548822425309       -2.13228416435655       -0.58042367570306
C           -1.47262045351044       -3.15805201251277       -1.47836900077761
C           -0.38328780514924       -3.37755461221924       -2.30966531205789
C           -0.41857669177360       -4.47905856434472       -3.14393939981388
C           -1.51209288292929       -5.34224091422981       -3.16426499145336
C           -2.60979242804834       -5.11490293275223       -2.35800031343027
C           -2.59766782792883       -4.01345972816044       -1.51168929600654
C           -3.55111737294769       -3.47237339691970       -0.58297730991035
C           -4.81723335376280       -3.87112167428991       -0.17384543431264
C           -5.47598821487160       -3.11383827149230        0.77456250265214
C           -4.88082203568175       -1.98055688883516        1.32468189126213
C           -3.62126879644538       -1.56607461170250        0.93482744269267
C           -2.96372608566943       -2.30888384286342       -0.03525255203932
C            0.50859228136702       -1.38309772471931        0.03106546979388
C            1.39477473538807       -0.34765170907681        0.31131623346819
N            2.72831153296367       -0.63268012489346        0.62608647044252
C            3.83742323138517       -0.02572625605329        0.06520425711899
C            3.91125367242109        0.94301251055753       -0.92566047831829
C            5.16546056499244        1.36201430247541       -1.32764455483900
C            6.32496084791929        0.82790789868421       -0.76965924334227
C            6.25836325201720       -0.15280647739647        0.20021355539097
C            5.00866704429533       -0.58885060655229        0.62157843977498
C            4.57674926198631       -1.57633485340813        1.57178817543004
C            5.25276546974437       -2.43098156591380        2.43322960796953
C            4.51638625546942       -3.25907490389432        3.25715676253573
C            3.12347573450443       -3.22963835576983        3.24057718594174
C            2.42895803761674       -2.38829291241009        2.39176401068604
C            3.16325451109889       -1.57308486848565        1.54195703465894
C            0.95511332225367        0.97063759644300        0.29409218787447
C           -2.73990490904111        4.03384384594776       -0.14925018821916
C           -3.97316355328830        4.39818309649951        0.33941067092024
H           -4.26245000936327        2.11616841373806        2.83392163179553
H           -2.05069075328622        1.47814001375508        1.96679933671955
H            0.62097691558792        2.27466918790304       -2.28304667779657
H            2.15922955083998        3.91902234448370       -3.28245911316998
H            2.46754562779463        6.12898304674457       -2.22500439312571
H            1.23228320598491        6.68237269968860       -0.16005417460509
H           -0.29252405756883        5.03457054871080        0.84891795238418
H           -2.27380408149457        0.44687020234648       -0.58968826532897
H            0.46266913171579       -2.70707122607011       -2.31734689088668
H            0.41925456799297       -4.67244142115420       -3.79791251204550
H           -1.50066254680709       -6.19399185312916       -3.82836729194547
H           -3.46501186357888       -5.77346557061232       -2.38589893470817
H           -5.27208528365895       -4.75785541202989       -0.58935174100027
H           -6.46280055255501       -3.40470729653052        1.10373117319055
H           -5.41497157491074       -1.41502290672934        2.07435529070952
H           -3.16546412781337       -0.69576451235861        1.38000843046656
H            0.84796257834384       -2.40631304339149        0.04877373929306
H            3.02209535833056        1.35583253758325       -1.37612258784910
H            5.24827187025980        2.11899157593489       -2.09370152300244
H            7.28701510894200        1.18287461287420       -1.10899326287237
H            7.15670886861174       -0.57764536804219        0.62256918270661
H            6.33219213631428       -2.44031691213393        2.45854678162008
H            5.02268599735326       -3.93295865019001        3.93265015528941
H            2.57314394631529       -3.87614955748275        3.90864337446367
H            1.34986035581489       -2.36184363842453        2.40355864812454
H            1.63618210612158        1.76965956321260        0.54197001916007
H           -2.31410404704913        4.56719218932435       -0.98553194176862
H           -4.51672601866169        5.21613798554114       -0.11010244831462

          :  Hamiltonian                  GFN2-xTB          :
         :: gradient norm              0.000076098499 Eh/a0 ::
         :: HOMO-LUMO gap              2.515585426780 eV    ::
         :: SCC energy              -120.398168965567 Eh    ::
         :: -> dispersion             -0.108392663160 Eh    ::
         :: -> Gsolv                  -0.051188536899 Eh    ::
         :: repulsion energy           2.252707084058 Eh    ::

    * Orbital Energies and Occupations

         #    Occupation            Energy/Eh            Energy/eV
      -------------------------------------------------------------
         1        2.0000           -0.6833199             -18.5941
       ...           ...                  ...                  ...
        98        2.0000           -0.4214607             -11.4685
        99        2.0000           -0.4209612             -11.4549
       100        2.0000           -0.4199832             -11.4283
       101        2.0000           -0.4191937             -11.4068
       102        2.0000           -0.4174145             -11.3584
       103        2.0000           -0.4147343             -11.2855
       104        2.0000           -0.4080214             -11.1028
       105        2.0000           -0.4076886             -11.0938
       106        2.0000           -0.3813917             -10.3782
       107        2.0000           -0.3810933             -10.3701
       108        2.0000           -0.3697761             -10.0621
       109        2.0000           -0.3669102              -9.9841
       110        2.0000           -0.3653711              -9.9423 (HOMO)
       111                         -0.2729250              -7.4267 (LUMO)
       112                         -0.2522320              -6.8636
       113                         -0.2495851              -6.7916
       114                         -0.2447961              -6.6612
       115                         -0.2437122              -6.6317
       116                         -0.2411461              -6.5619
       117                         -0.2329399              -6.3386
       118                         -0.2247449              -6.1156
       119                         -0.2244436              -6.1074
       120                         -0.2229770              -6.0675
       121                         -0.2099657              -5.7135
       ...                                ...                  ...
       216                          1.1617721              31.6134
      -------------------------------------------------------------
                  HL-Gap            0.0924461 Eh            2.5156 eV

     #   Z          covCN         q      C6AA      α(0)
     1   7 N        0.911    -0.287    27.391     7.569
     2   6 C        1.912     0.117    28.231     8.581
     3   6 C        2.972     0.004    27.937     8.670
     4   6 C        2.924    -0.018    28.467     8.750
     5   6 C        2.921    -0.046    29.139     8.852
     6   6 C        2.921     0.073    26.367     8.421
     7   7 N        2.753    -0.061    22.426     7.033
     8   6 C        2.926     0.061    26.632     8.463
     9   6 C        2.922    -0.044    29.089     8.845
    10   6 C        2.919    -0.027    28.671     8.781
    11   6 C        2.919    -0.034    28.835     8.806
    12   6 C        2.920    -0.027    28.681     8.782
    13   6 C        2.921    -0.044    29.095     8.845
    14   6 C        2.925     0.067    26.505     8.443
    15   6 C        2.924    -0.067    29.671     8.933
    16   6 C        2.911     0.068    26.479     8.438
    17   7 N        2.802    -0.043    22.067     6.977
    18   6 C        3.072     0.047    26.883     8.501
    19   6 C        2.910    -0.052    29.283     8.873
    20   6 C        2.924    -0.034    28.853     8.809
    21   6 C        2.920    -0.042    29.032     8.836
    22   6 C        2.912    -0.034    28.849     8.807
    23   6 C        3.067    -0.017    28.373     8.734
    24   6 C        3.067    -0.017    28.374     8.735
    25   6 C        2.912    -0.034    28.847     8.807
    26   6 C        2.920    -0.042    29.033     8.836
    27   6 C        2.924    -0.034    28.855     8.809
    28   6 C        2.910    -0.053    29.306     8.877
    29   6 C        3.072     0.046    26.887     8.502
    30   6 C        2.925    -0.066    29.651     8.930
    31   6 C        2.911     0.068    26.470     8.436
    32   7 N        2.803    -0.043    22.061     6.976
    33   6 C        3.072     0.046    26.888     8.502
    34   6 C        2.910    -0.052    29.300     8.876
    35   6 C        2.924    -0.034    28.855     8.809
    36   6 C        2.920    -0.042    29.036     8.836
    37   6 C        2.912    -0.034    28.852     8.808
    38   6 C        3.067    -0.017    28.372     8.734
    39   6 C        3.067    -0.017    28.373     8.734
    40   6 C        2.912    -0.034    28.851     8.808
    41   6 C        2.920    -0.042    29.034     8.836
    42   6 C        2.924    -0.034    28.855     8.809
    43   6 C        2.910    -0.052    29.284     8.873
    44   6 C        3.071     0.047    26.885     8.502
    45   6 C        2.925    -0.067    29.658     8.931
    46   6 C        2.920    -0.046    29.137     8.852
    47   6 C        2.924    -0.019    28.471     8.750
    48   1 H        0.926     0.043     2.413     2.429
    49   1 H        0.926     0.043     2.415     2.430
    50   1 H        0.926     0.035     2.516     2.480
    51   1 H        0.926     0.040     2.448     2.447
    52   1 H        0.926     0.039     2.462     2.454
    53   1 H        0.926     0.040     2.449     2.447
    54   1 H        0.926     0.037     2.488     2.467
    55   1 H        0.926     0.049     2.335     2.390
    56   1 H        0.926     0.031     2.574     2.509
    57   1 H        0.926     0.032     2.564     2.504
    58   1 H        0.926     0.029     2.595     2.519
    59   1 H        0.926     0.032     2.561     2.503
    60   1 H        0.926     0.032     2.559     2.502
    61   1 H        0.926     0.029     2.603     2.523
    62   1 H        0.926     0.030     2.590     2.517
    63   1 H        0.926     0.030     2.581     2.512
    64   1 H        0.926     0.054     2.268     2.355
    65   1 H        0.926     0.032     2.553     2.499
    66   1 H        0.926     0.032     2.558     2.501
    67   1 H        0.926     0.029     2.597     2.520
    68   1 H        0.926     0.032     2.565     2.504
    69   1 H        0.926     0.032     2.560     2.502
    70   1 H        0.926     0.029     2.599     2.521
    71   1 H        0.926     0.031     2.573     2.508
    72   1 H        0.926     0.030     2.582     2.513
    73   1 H        0.926     0.051     2.310     2.377
    74   1 H        0.926     0.047     2.360     2.403
    75   1 H        0.926     0.043     2.406     2.425

molecular dipole:
                 x           y           z       tot (Debye)
 q only:        1.884       0.083      -0.867
   full:        2.184       0.021      -0.987       6.093

 projected vibrational frequencies (cm⁻¹)
eigval :       -0.00    -0.00    -0.00     0.00     0.00     0.00
eigval :       11.83    16.04    20.29    22.42    24.77    26.57
eigval :       42.67    59.60    60.94    70.92    72.70    90.42
eigval :       94.62    97.67   109.47   130.02   138.76   140.76
eigval :      145.93   149.18   174.97   208.15   223.02   237.13
eigval :      243.70   250.58   259.25   262.46   271.17   272.82
eigval :      298.48   305.82   325.60   357.33   365.21   377.69
eigval :      383.22   386.07   395.24   396.18   421.53   423.56
eigval :      435.74   437.10   443.12   461.75   469.42   511.39
eigval :      516.85   518.43   519.94   531.82   532.42   537.83
eigval :      540.16   540.79   543.84   572.11   584.03   587.88
eigval :      589.38   593.05   615.98   620.96   631.10   638.51
eigval :      654.46   661.49   668.67   673.53   674.97   677.10
eigval :      707.94   708.13   717.79   749.17   754.82   763.78
eigval :      765.48   768.35   769.93   775.52   779.97   793.52
eigval :      817.23   838.19   862.03   865.31   865.74   870.86
eigval :      875.15   878.50   888.46   890.65   892.55   896.04
eigval :      897.95   900.00   900.66   901.80   905.24   907.51
eigval :      915.90   918.65   919.38   920.94   921.75   925.13
eigval :      925.73   931.53   934.88   986.19   994.61  1009.75
eigval :     1011.00  1015.45  1035.62  1054.30  1068.70  1070.97
eigval :     1071.57  1074.48  1080.60  1118.93  1120.92  1121.91
eigval :     1136.54  1149.83  1152.12  1161.51  1164.20  1177.27
eigval :     1178.42  1179.11  1180.44  1181.04  1185.58  1190.45
eigval :     1207.76  1227.52  1233.09  1233.46  1235.85  1236.14
eigval :     1249.67  1262.64  1275.93  1285.42  1294.94  1298.60
eigval :     1300.41  1303.53  1313.22  1322.51  1324.95  1327.68
eigval :     1336.37  1355.32  1355.67  1359.48  1360.84  1392.48
eigval :     1412.58  1417.11  1424.63  1426.13  1432.57  1439.66
eigval :     1455.71  1456.96  1468.90  1474.47  1475.54  1480.49
eigval :     1486.28  1486.47  1537.83  1560.75  1562.90  1573.64
eigval :     1574.28  1580.67  1583.48  1587.38  1587.91  1594.13
eigval :     1597.34  1597.70  1612.22  1612.95  2350.93  3071.62
eigval :     3072.69  3073.07  3073.83  3074.26  3077.81  3078.00
eigval :     3078.71  3078.76  3080.37  3082.00  3083.37  3085.63
eigval :     3085.83  3086.38  3087.72  3088.18  3089.20  3093.06
eigval :     3093.31  3093.67  3097.74  3098.67  3099.21  3099.27
eigval :     3103.79  3107.88  3114.07

   temp. (K)  partition function   enthalpy   heat capacity  entropy
                                   cal/mol     cal/K/mol   cal/K/mol   J/K/mol
 298.15  VIB  0.300E+17            21374.056    136.484    132.137
         ROT  0.699E+08              888.752      2.981     38.875
         INT  0.210E+25            22262.808    139.465    171.012
         TR   0.142E+29             1481.254      4.968     45.042
         TOT                       23744.0618   144.4331   216.0544   903.9716

       T/K    H(0)-H(T)+PV         H(T)/Eh          T*S/Eh         G(T)/Eh
   ------------------------------------------------------------------------
    298.15    0.378386E-01    0.609284E+00    0.102654E+00    0.506629E+00
   ------------------------------------------------------------------------

         :::::::::::::::::::::::::::::::::::::::::::::::::::::
         ::                  THERMODYNAMIC                  ::
         :::::::::::::::::::::::::::::::::::::::::::::::::::::
         :: total free energy        -117.638832380739 Eh   ::
         ::.................................................::
         :: total energy             -118.145461875072 Eh   ::
         :: zero point energy           0.571445337170 Eh   ::
         :: G(RRHO) w/o ZPVE           -0.064815842836 Eh   ::
         :: G(RRHO) contrib.            0.506629494333 Eh   ::
         :::::::::::::::::::::::::::::::::::::::::::::::::::::

           -------------------------------------------------
          | TOTAL ENERGY             -118.145461875072 Eh   |
          | TOTAL ENTHALPY           -117.536177966836 Eh   |
          | TOTAL FREE ENERGY        -117.638832380739 Eh   |
          | GRADIENT NORM               0.000076123417 Eh/α |
          | HOMO-LUMO GAP               2.515585226064 eV   |
           -------------------------------------------------

 * finished run on 2025/09/14 at 10:04:23.062
