   * xtb version 6.7.1 (edcfbbe) compiled by 'albert@albert-system' on 2024-07-22

   ID    Z sym.   atoms
    1    7 N      1, 7, 17, 32
    2    6 C      2-6, 8-16, 18-31, 33-47
    3    1 H      48-75

          program call               : xtb data2507/toluene/CNTPA-CZ/CNTPA-CZ_toluene_S0_crest.xyz --gfn 2 --gbsa toluene --ohess vtight --parallel 40 --molden --ceasefiles --namespace data2507/toluene/CNTPA-CZ/CNTPA-CZ_toluene_S0_finalOpt
      * Solvation model:               GBSA
        Solvent                        toluene
        Solvent mass                       9.2140E+01 g/mol
          :  Hamiltonian                  GFN2-xTB          :
 * total energy  :  -118.1452915 Eh     change       -0.2766043E-08 Eh
 * total energy  :  -118.1453431 Eh     change       -0.5159153E-04 Eh
 * total energy  :  -118.1452841 Eh     change        0.5899836E-04 Eh
 * total energy  :  -118.1453762 Eh     change       -0.9212136E-04 Eh
 * total energy  :  -118.1454063 Eh     change       -0.3004558E-04 Eh
 * total energy  :  -118.1454200 Eh     change       -0.1369160E-04 Eh
 * total energy  :  -118.1454475 Eh     change       -0.2754103E-04 Eh
 * total energy  :  -118.1454582 Eh     change       -0.1068915E-04 Eh
 * total energy  :  -118.1454631 Eh     change       -0.4884095E-05 Eh
 * total energy  :  -118.1454681 Eh     change       -0.5009060E-05 Eh
 * total energy  :  -118.1454887 Eh     change       -0.4972329E-05 Eh
 * total energy  :  -118.1454922 Eh     change       -0.3522619E-05 Eh
 * total energy  :  -118.1454947 Eh     change       -0.2456634E-05 Eh
 * total energy  :  -118.1454970 Eh     change       -0.2351010E-05 Eh
 * total energy  :  -118.1454992 Eh     change       -0.2155418E-05 Eh
 * total energy  :  -118.1455004 Eh     change       -0.1200885E-05 Eh
 * total energy  :  -118.1455010 Eh     change       -0.6089662E-06 Eh
 * total energy  :  -118.1455014 Eh     change       -0.3972399E-06 Eh
 * total energy  :  -118.1455014 Eh     change       -0.5971785E-08 Eh
   *** GEOMETRY OPTIMIZATION CONVERGED AFTER 22 ITERATIONS ***

 final structure:
================
75
 xtb: 6.7.1 (edcfbbe)
N           -7.45891510732190        2.92420630466586        2.09139953998535
C           -6.38817165023008        2.82905608285574        1.68447000590392
C           -5.07584101146829        2.71341461317442        1.18866062316182
C           -4.15744656230025        1.86800209303323        1.81943226150183
C           -2.87564400088774        1.75670559506473        1.33349217147265
C           -2.47215450640440        2.48116423047600        0.20432697566055
N           -1.18119890585253        2.36079409465182       -0.28227124502637
C           -0.54209318130202        3.44618649972347       -0.91200836315362
C            0.22315927286988        3.23437309349681       -2.05669556414950
C            0.86941333209068        4.29437955833019       -2.66457112075502
C            0.75728120499758        5.57353786601938       -2.14424901627069
C           -0.00802384580886        5.78800360981687       -1.00927894936837
C           -0.65265830404707        4.73301479483622       -0.39065445305802
C           -0.47816953717632        1.15427831246780       -0.15818908672659
C           -1.11745071253140       -0.05992046886171       -0.39566251709050
C           -0.41032469447568       -1.25130893980175       -0.28204124662248
N           -1.05180678102000       -2.47177189002472       -0.52526090624107
C           -0.57965318393555       -3.48774020860977       -1.33748469805036
C            0.55738865501323       -3.53319738485448       -2.13216046411633
C            0.77946913638577       -4.67451585383924       -2.87962516199367
C           -0.10819818406997       -5.74789804091552       -2.85110401897690
C           -1.25499495434125       -5.69829833154682       -2.08369888013907
C           -1.50015645902668       -4.56067496836875       -1.32530705027211
C           -2.57716165494501       -4.16693572922785       -0.45978516266761
C           -3.74756628719526       -4.79215722776980       -0.04920438484453
C           -4.58459837187138       -4.12423589802853        0.82264873391259
C           -4.25770183789048       -2.85574279572933        1.29685906127659
C           -3.09699200710506       -2.21585644971778        0.90492498438543
C           -2.26432657800140       -2.87006704092340        0.00809942797227
C            0.94138164219142       -1.23248388457372        0.04808487210840
C            1.58272306518764       -0.01796888653871        0.27032062492142
N            2.94271875125040        0.00527637669501        0.59939596548191
C            3.90193830318316        0.80401338529159        0.00325170195604
C            3.77541243073022        1.71566294810462       -1.03529145390035
C            4.91535586159915        2.36916790811023       -1.46405283428161
C            6.15820687879902        2.12039068928371       -0.88573241448127
C            6.29454699012620        1.19743210869346        0.13233438079899
C            5.16258595468365        0.52884524290696        0.58081205890425
C            4.94381778123633       -0.48023720474059        1.58007249870682
C            5.78109802850162       -1.13069341061056        2.47748228708786
C            5.23237095368876       -2.05563904720548        3.34362963603838
C            3.86494506388079       -2.32225470009519        3.33268468188398
C            3.01237948899833       -1.68786197466745        2.44873316819654
C            3.56170132559108       -0.77707172197001        1.55724622038976
C            0.87222237699223        1.17304851503316        0.17907019403413
C           -3.39522398745453        3.33149566764972       -0.41737373828039
C           -4.67834425974024        3.44603682730862        0.06542635871849
H           -4.45894705727410        1.31446868938238        2.69664049484367
H           -2.16244934936866        1.12048858319816        1.83592371481974
H            0.30043966801544        2.23787233868161       -2.46734207198417
H            1.45764543526217        4.12079832063988       -3.55360378136822
H            1.26242294146099        6.39938362938308       -2.62172704329850
H           -0.09755814517751        6.78182342327489       -0.59624503714320
H           -1.24024184103073        4.89893616681848        0.50051860343211
H           -2.15498036592149       -0.07481770975256       -0.69150846793372
H            1.24502681329823       -2.70256714968881       -2.18023061866991
H            1.65999261232558       -4.73325594559810       -3.50278538765010
H            0.10254101663746       -6.62420187922864       -3.44638594249986
H           -1.95302307825846       -6.52193731102191       -2.07482468782074
H           -3.99285327176910       -5.78167440168845       -0.40477869022323
H           -5.50216290081258       -4.59044196243021        1.15033095727033
H           -4.92539300473624       -2.36255941954889        1.98833466375192
H           -2.84944063384073       -1.24066947361593        1.29331836917198
H            1.49094062955104       -2.15648211678985        0.12836773528581
H            2.82189830393828        1.90832767950656       -1.50180756655426
H            4.84120054087655        3.08684976249083       -2.26790138940960
H            7.02569170707438        2.65291726453545       -1.24716264392646
H            7.25993716000156        0.99346314129582        0.57087753200074
H            6.83808211974246       -0.91102838516632        2.49735633285807
H            5.86621035492294       -2.57467715429059        4.04754575957519
H            3.46054657058227       -3.03855753264852        4.03305457341031
H            1.95223241741697       -1.89053887170132        2.46492784895713
H            1.36247425207185        2.11155090222805        0.38539756729970
H           -3.09664451843354        3.89281300396829       -1.28971850490023
H           -5.38886181664826        4.09513689279712       -0.42494677718777

          :  Hamiltonian                  GFN2-xTB          :
         :: gradient norm              0.000064768389 Eh/a0 ::
         :: HOMO-LUMO gap              2.512846415434 eV    ::
         :: SCC energy              -120.398092855646 Eh    ::
         :: -> dispersion             -0.108466872225 Eh    ::
         :: -> Gsolv                  -0.051175279302 Eh    ::
         :: repulsion energy           2.252591451148 Eh    ::

    * Orbital Energies and Occupations

         #    Occupation            Energy/Eh            Energy/eV
      -------------------------------------------------------------
         1        2.0000           -0.6831836             -18.5904
       ...           ...                  ...                  ...
        98        2.0000           -0.4214780             -11.4690
        99        2.0000           -0.4209712             -11.4552
       100        2.0000           -0.4199499             -11.4274
       101        2.0000           -0.4191466             -11.4056
       102        2.0000           -0.4173276             -11.3561
       103        2.0000           -0.4145573             -11.2807
       104        2.0000           -0.4080898             -11.1047
       105        2.0000           -0.4076888             -11.0938
       106        2.0000           -0.3814771             -10.3805
       107        2.0000           -0.3810937             -10.3701
       108        2.0000           -0.3697440             -10.0612
       109        2.0000           -0.3669133              -9.9842
       110        2.0000           -0.3653216              -9.9409 (HOMO)
       111                         -0.2729762              -7.4281 (LUMO)
       112                         -0.2522852              -6.8650
       113                         -0.2496161              -6.7924
       114                         -0.2446923              -6.6584
       115                         -0.2436945              -6.6313
       116                         -0.2411110              -6.5610
       117                         -0.2327368              -6.3331
       118                         -0.2248631              -6.1188
       119                         -0.2244514              -6.1076
       120                         -0.2227832              -6.0622
       121                         -0.2100144              -5.7148
       ...                                ...                  ...
       216                          1.1617578              31.6130
      -------------------------------------------------------------
                  HL-Gap            0.0923454 Eh            2.5128 eV

     #   Z          covCN         q      C6AA      α(0)
     1   7 N        0.911    -0.287    27.390     7.569
     2   6 C        1.912     0.117    28.231     8.581
     3   6 C        2.972     0.004    27.936     8.670
     4   6 C        2.924    -0.018    28.466     8.750
     5   6 C        2.921    -0.046    29.138     8.852
     6   6 C        2.921     0.073    26.366     8.420
     7   7 N        2.753    -0.062    22.434     7.035
     8   6 C        2.926     0.061    26.630     8.463
     9   6 C        2.922    -0.044    29.094     8.845
    10   6 C        2.919    -0.027    28.672     8.781
    11   6 C        2.919    -0.034    28.840     8.806
    12   6 C        2.920    -0.027    28.682     8.782
    13   6 C        2.921    -0.044    29.101     8.846
    14   6 C        2.925     0.067    26.507     8.443
    15   6 C        2.924    -0.067    29.677     8.934
    16   6 C        2.910     0.068    26.479     8.438
    17   7 N        2.802    -0.043    22.060     6.976
    18   6 C        3.071     0.046    26.886     8.502
    19   6 C        2.910    -0.052    29.281     8.873
    20   6 C        2.924    -0.034    28.853     8.809
    21   6 C        2.920    -0.041    29.029     8.835
    22   6 C        2.912    -0.034    28.848     8.807
    23   6 C        3.067    -0.017    28.369     8.734
    24   6 C        3.066    -0.017    28.371     8.734
    25   6 C        2.912    -0.034    28.846     8.807
    26   6 C        2.920    -0.042    29.031     8.836
    27   6 C        2.923    -0.034    28.855     8.809
    28   6 C        2.910    -0.053    29.308     8.877
    29   6 C        3.071     0.046    26.889     8.502
    30   6 C        2.925    -0.067    29.661     8.931
    31   6 C        2.911     0.068    26.471     8.437
    32   7 N        2.802    -0.042    22.060     6.976
    33   6 C        3.072     0.046    26.888     8.502
    34   6 C        2.910    -0.052    29.300     8.876
    35   6 C        2.924    -0.034    28.855     8.809
    36   6 C        2.920    -0.042    29.036     8.836
    37   6 C        2.912    -0.034    28.852     8.808
    38   6 C        3.067    -0.017    28.372     8.734
    39   6 C        3.067    -0.017    28.373     8.734
    40   6 C        2.912    -0.034    28.851     8.808
    41   6 C        2.920    -0.042    29.033     8.836
    42   6 C        2.924    -0.034    28.855     8.809
    43   6 C        2.910    -0.052    29.284     8.873
    44   6 C        3.071     0.046    26.885     8.502
    45   6 C        2.925    -0.067    29.660     8.931
    46   6 C        2.920    -0.046    29.133     8.851
    47   6 C        2.924    -0.019    28.471     8.750
    48   1 H        0.926     0.043     2.413     2.429
    49   1 H        0.926     0.043     2.415     2.430
    50   1 H        0.926     0.035     2.517     2.481
    51   1 H        0.926     0.040     2.451     2.448
    52   1 H        0.926     0.039     2.465     2.455
    53   1 H        0.926     0.040     2.452     2.449
    54   1 H        0.926     0.037     2.492     2.469
    55   1 H        0.926     0.049     2.334     2.389
    56   1 H        0.926     0.031     2.569     2.506
    57   1 H        0.926     0.032     2.563     2.504
    58   1 H        0.926     0.030     2.593     2.518
    59   1 H        0.926     0.032     2.559     2.502
    60   1 H        0.926     0.032     2.557     2.501
    61   1 H        0.926     0.029     2.601     2.522
    62   1 H        0.926     0.030     2.591     2.517
    63   1 H        0.926     0.031     2.574     2.509
    64   1 H        0.926     0.054     2.266     2.354
    65   1 H        0.926     0.032     2.551     2.498
    66   1 H        0.926     0.032     2.558     2.501
    67   1 H        0.926     0.029     2.597     2.520
    68   1 H        0.926     0.032     2.565     2.504
    69   1 H        0.926     0.032     2.560     2.502
    70   1 H        0.926     0.029     2.599     2.521
    71   1 H        0.926     0.031     2.573     2.508
    72   1 H        0.926     0.030     2.581     2.512
    73   1 H        0.926     0.051     2.311     2.377
    74   1 H        0.926     0.047     2.360     2.402
    75   1 H        0.926     0.043     2.405     2.425

molecular dipole:
                 x           y           z       tot (Debye)
 q only:        1.814       0.411      -0.890
   full:        2.122       0.410      -1.012       6.065

 projected vibrational frequencies (cm⁻¹)
eigval :       -0.00    -0.00    -0.00    -0.00     0.00     0.00
eigval :       13.85    19.10    22.13    23.50    25.50    27.90
eigval :       43.47    59.39    60.89    71.63    72.23    88.31
eigval :       97.03    99.78   111.02   131.05   140.55   142.92
eigval :      146.26   149.23   174.87   208.63   223.80   237.36
eigval :      245.04   250.94   260.38   263.34   272.47   274.21
eigval :      299.37   307.19   326.56   358.14   365.48   376.30
eigval :      382.61   385.63   393.28   397.21   423.37   424.33
eigval :      436.40   437.34   442.96   461.29   469.24   512.89
eigval :      517.16   518.63   520.37   532.92   533.43   538.28
eigval :      540.04   541.09   545.52   573.39   584.05   588.07
eigval :      589.70   593.19   616.32   620.95   631.29   639.47
eigval :      654.50   661.84   669.66   673.69   675.40   677.17
eigval :      707.87   707.92   717.83   749.24   754.88   765.29
eigval :      768.72   769.39   770.00   780.60   781.51   793.57
eigval :      817.19   840.17   865.39   865.52   865.83   874.46
eigval :      877.07   878.19   890.57   890.98   894.81   897.99
eigval :      898.20   900.07   903.68   904.19   906.12   909.28
eigval :      915.77   921.29   923.00   923.36   924.43   925.68
eigval :      926.27   931.03   933.38   986.16   994.45  1009.75
eigval :     1011.14  1015.14  1035.79  1054.14  1070.31  1070.98
eigval :     1074.44  1074.77  1081.19  1120.37  1121.63  1122.10
eigval :     1136.55  1151.30  1152.22  1161.72  1165.28  1179.15
eigval :     1180.03  1180.51  1181.25  1181.85  1185.63  1191.69
eigval :     1208.62  1227.14  1233.75  1235.19  1236.13  1236.52
eigval :     1250.17  1262.71  1276.70  1285.56  1295.67  1298.82
eigval :     1300.48  1303.83  1313.63  1322.89  1325.00  1327.90
eigval :     1336.29  1355.52  1355.85  1359.43  1360.84  1393.00
eigval :     1412.59  1417.49  1424.78  1426.39  1432.90  1439.87
eigval :     1455.42  1457.12  1469.17  1474.50  1475.53  1480.47
eigval :     1486.37  1486.41  1537.86  1560.96  1563.02  1573.81
eigval :     1574.44  1580.91  1583.44  1587.30  1587.86  1594.32
eigval :     1597.29  1597.67  1612.21  1612.92  2351.33  3072.94
eigval :     3073.05  3073.25  3073.66  3075.42  3077.95  3078.66
eigval :     3078.80  3080.18  3080.54  3082.96  3084.48  3085.73
eigval :     3086.31  3086.42  3087.74  3089.16  3090.05  3093.57
eigval :     3093.82  3094.48  3098.45  3098.67  3099.12  3101.66
eigval :     3104.63  3108.01  3115.57

   temp. (K)  partition function   enthalpy   heat capacity  entropy
                                   cal/mol     cal/K/mol   cal/K/mol   J/K/mol
 298.15  VIB  0.161E+17            21325.899    136.414    131.417
         ROT  0.698E+08              888.752      2.981     38.874
         INT  0.113E+25            22214.651    139.395    170.291
         TR   0.142E+29             1481.254      4.968     45.042
         TOT                       23695.9054   144.3629   215.3333   900.9545

       T/K    H(0)-H(T)+PV         H(T)/Eh          T*S/Eh         G(T)/Eh
   ------------------------------------------------------------------------
    298.15    0.377618E-01    0.609523E+00    0.102312E+00    0.507211E+00
   ------------------------------------------------------------------------

         :::::::::::::::::::::::::::::::::::::::::::::::::::::
         ::                  THERMODYNAMIC                  ::
         :::::::::::::::::::::::::::::::::::::::::::::::::::::
         :: total free energy        -117.638290400039 Eh   ::
         ::.................................................::
         :: total energy             -118.145501405987 Eh   ::
         :: zero point energy           0.571760971724 Eh   ::
         :: G(RRHO) w/o ZPVE           -0.064549965776 Eh   ::
         :: G(RRHO) contrib.            0.507211005947 Eh   ::
         :::::::::::::::::::::::::::::::::::::::::::::::::::::

           -------------------------------------------------
          | TOTAL ENERGY             -118.145501405987 Eh   |
          | TOTAL ENTHALPY           -117.535978605332 Eh   |
          | TOTAL FREE ENERGY        -117.638290400039 Eh   |
          | GRADIENT NORM               0.000064809536 Eh/α |
          | HOMO-LUMO GAP               2.512846571680 eV   |
           -------------------------------------------------

 * finished run on 2025/09/14 at 10:09:03.762
