   * xtb version 6.7.1 (edcfbbe) compiled by 'albert@albert-system' on 2024-07-22

   ID    Z sym.   atoms
    1    6 C      1-4, 6-17, 19, 21, 22, 24-39
    2    7 N      5, 18, 20, 23
    3    1 H      40-61

          program call               : xtb data2507/gas/TPA-APy/TPA-APy_gas_S0_crest.xyz --gfn 2 --ohess vtight --parallel 40 --molden --ceasefiles --namespace data2507/gas/TPA-APy/TPA-APy_gas_S0_finalOpt
          :  Hamiltonian                  GFN2-xTB          :
 * total energy  :   -97.8745426 Eh     change       -0.2542492E-08 Eh
 * total energy  :   -97.8745431 Eh     change       -0.4412570E-06 Eh
 * total energy  :   -97.8745435 Eh     change       -0.4144144E-06 Eh
 * total energy  :   -97.8745442 Eh     change       -0.7635847E-06 Eh
 * total energy  :   -97.8745447 Eh     change       -0.4882737E-06 Eh
 * total energy  :   -97.8745449 Eh     change       -0.2185182E-06 Eh
 * total energy  :   -97.8745451 Eh     change       -0.1983326E-06 Eh
 * total energy  :   -97.8745454 Eh     change       -0.2819884E-06 Eh
 * total energy  :   -97.8745457 Eh     change       -0.2590328E-06 Eh
 * total energy  :   -97.8745459 Eh     change       -0.1726397E-06 Eh
 * total energy  :   -97.8745460 Eh     change       -0.9777106E-07 Eh
   *** GEOMETRY OPTIMIZATION CONVERGED AFTER 11 ITERATIONS ***

 final structure:
================
61
 xtb: 6.7.1 (edcfbbe)
C           -8.03127253280976        3.02979596069754        0.04321942523224
C           -6.85805683763968        3.12140227715569       -0.68761965044847
C           -5.96185324918954        2.07045383910310       -0.70732639377960
C           -6.22650131188578        0.90891005856252        0.01733305609558
N           -5.32142442267840       -0.16080265578590        0.00195150956307
C           -5.80534925355466       -1.47563542650520       -0.01809520854636
C           -6.93921368935303       -1.79846034922279       -0.76256261019605
C           -7.41858889719320       -3.09392384488648       -0.77269331889771
C           -6.77504184500139       -4.08614025965871       -0.05136855216639
C           -5.64630118085574       -3.77090914311279        0.68724093789866
C           -5.16394338161094       -2.47675427388199        0.71045374814195
C           -3.94932648414076        0.08161191749402        0.00468840985929
C           -3.41865094630338        1.16932517690426        0.70192117789296
C           -2.06282632892173        1.41308742683839        0.69391311597275
C           -1.18542746651213        0.57486807982007        0.00481430881981
C            0.25455276085969        0.83231912029979       -0.00308876704218
C            0.75380003727711        2.15737000617361       -0.04064674846759
N            2.01452121590897        2.47901236553241       -0.05061075032470
C            2.93107511856647        1.49907656314768       -0.02728850695411
N            4.22960437350032        1.87773618233821       -0.03496151180970
C            5.09516931735493        0.90533381054424       -0.01550540562903
C            4.71051933876308       -0.49397681583123        0.01244080445114
N            3.46739257852339       -0.88121683771157        0.02009528684223
C            2.55041749795642        0.12154020519375        0.00016475554480
C            1.18311572125588       -0.18883908925614        0.01462591021597
C            5.92535903689591       -1.29573359998943        0.02566445767287
C            6.21128606716177       -2.63740724942796        0.05038717671989
C            7.56292928734514       -3.03061536777742        0.05437783614808
C            8.60117547352163       -2.12999937182578        0.03469387337335
C            8.34222984821194       -0.74079079555719        0.00908233214414
C            9.27499625498515        0.32101150830805       -0.01385196728195
C            8.84291577227498        1.62581361790932       -0.03791269491156
C            7.48023956041755        1.97901967510264       -0.04133463222580
C            6.54889220717105        0.97167956255404       -0.01950599414882
C            6.99505717747744       -0.37038387353478        0.00551261412813
C           -1.71921771321714       -0.51620318942637       -0.68231393474731
C           -3.07523341203882       -0.75731903767608       -0.69046720703380
C           -7.40733333946925        0.82251362869875        0.75370318246837
C           -8.30121823257218        1.87563923674305        0.76014790942256
H           -8.73058327107422        3.85190288879383        0.05345714479550
H           -6.64226228649810        4.01492721095930       -1.25468783059559
H           -5.05305936296327        2.13957257978501       -1.28717956401540
H           -7.43733275098443       -1.02778793224631       -1.33248348142363
H           -8.29658092045350       -3.33158187001139       -1.35509013931435
H           -7.15095883114422       -5.09784968975793       -0.06412163480292
H           -5.14194560678064       -4.53677143646592        1.25791160467706
H           -4.29037073753518       -2.23056750302594        1.29627059135885
H           -4.08079176701396        1.81726114878046        1.25712396042993
H           -1.67308174700433        2.24602074288094        1.25990449956156
H            0.06364861110749        2.99067745862263       -0.08426605295588
H            0.89166122132096       -1.22771795624254        0.06197342440727
H            5.42729531371283       -3.37853583210157        0.06636634424578
H            7.78654824552805       -4.08777612823952        0.07376929566566
H            9.62356556641696       -2.47986448235467        0.03856392172180
H           10.33250859462135        0.09878510966487       -0.01249077001904
H            9.57580530309977        2.41982901906842       -0.05520727134868
H            7.18273387851359        3.01572036139823       -0.06077993387928
H           -1.06348690202797       -1.16347032617471       -1.24554281462064
H           -3.47238326401397       -1.59481839032222       -1.24495566497118
H           -7.61541701488469       -0.07331529954390        1.32035049087132
H           -9.21144658882395        1.79709351867953        1.33621511151547

          :  Hamiltonian                  GFN2-xTB          :
         :: gradient norm              0.000034822601 Eh/a0 ::
         :: HOMO-LUMO gap              1.178889381361 eV    ::
         :: SCC energy               -99.673363658142 Eh    ::
         :: -> dispersion             -0.082639268799 Eh    ::
         :: repulsion energy           1.798817699895 Eh    ::

    * Orbital Energies and Occupations

         #    Occupation            Energy/Eh            Energy/eV
      -------------------------------------------------------------
         1        2.0000           -0.6758719             -18.3914
       ...           ...                  ...                  ...
        79        2.0000           -0.4224606             -11.4957
        80        2.0000           -0.4154643             -11.3054
        81        2.0000           -0.4146654             -11.2836
        82        2.0000           -0.4123433             -11.2204
        83        2.0000           -0.4105373             -11.1713
        84        2.0000           -0.4097268             -11.1492
        85        2.0000           -0.4078067             -11.0970
        86        2.0000           -0.4070726             -11.0770
        87        2.0000           -0.3962178             -10.7816
        88        2.0000           -0.3920293             -10.6677
        89        2.0000           -0.3812115             -10.3733
        90        2.0000           -0.3526496              -9.5961
        91        2.0000           -0.3406380              -9.2692 (HOMO)
        92                         -0.2973146              -8.0903 (LUMO)
        93                         -0.2961545              -8.0588
        94                         -0.2490970              -6.7783
        95                         -0.2397239              -6.5232
        96                         -0.2332095              -6.3460
        97                         -0.2306697              -6.2768
        98                         -0.2273530              -6.1866
        99                         -0.2252684              -6.1299
       100                         -0.2244227              -6.1069
       101                         -0.2181311              -5.9356
       102                         -0.1972253              -5.3668
       ...                                ...                  ...
       178                          0.7234659              19.6865
      -------------------------------------------------------------
                  HL-Gap            0.0433234 Eh            1.1789 eV

     #   Z          covCN         q      C6AA      α(0)
     1   6 C        2.919    -0.037    28.928     8.820
     2   6 C        2.920    -0.029    28.720     8.788
     3   6 C        2.922    -0.047    29.163     8.856
     4   6 C        2.925     0.065    26.552     8.450
     5   7 N        2.752    -0.073    22.649     7.068
     6   6 C        2.925     0.065    26.550     8.450
     7   6 C        2.922    -0.047    29.160     8.855
     8   6 C        2.920    -0.029    28.720     8.788
     9   6 C        2.919    -0.037    28.930     8.820
    10   6 C        2.920    -0.029    28.722     8.788
    11   6 C        2.922    -0.047    29.164     8.856
    12   6 C        2.924     0.066    26.521     8.445
    13   6 C        2.920    -0.048    29.195     8.861
    14   6 C        2.923    -0.033    28.833     8.806
    15   6 C        2.975    -0.001    28.037     8.685
    16   6 C        2.970    -0.000    28.033     8.685
    17   6 C        2.911     0.061    26.639     8.463
    18   7 N        1.842    -0.225    26.764     7.667
    19   6 C        2.981     0.154    24.663     8.146
    20   7 N        1.842    -0.226    26.781     7.669
    21   6 C        3.062     0.085    26.045     8.369
    22   6 C        3.060     0.085    26.040     8.368
    23   7 N        1.837    -0.240    27.122     7.718
    24   6 C        2.988     0.067    26.495     8.444
    25   6 C        2.929    -0.032    28.788     8.799
    26   6 C        3.026    -0.004    28.091     8.694
    27   6 C        2.913    -0.019    28.475     8.750
    28   6 C        2.919    -0.028    28.698     8.785
    29   6 C        2.918    -0.029    28.722     8.788
    30   6 C        2.976     0.017    27.635     8.623
    31   6 C        2.918    -0.029    28.726     8.789
    32   6 C        2.919    -0.027    28.679     8.782
    33   6 C        2.913    -0.018    28.450     8.746
    34   6 C        3.027    -0.003    28.061     8.689
    35   6 C        3.139    -0.006    27.937     8.650
    36   6 C        2.924    -0.033    28.811     8.802
    37   6 C        2.920    -0.048    29.201     8.861
    38   6 C        2.922    -0.047    29.161     8.856
    39   6 C        2.920    -0.029    28.720     8.788
    40   1 H        0.926     0.032     2.561     2.503
    41   1 H        0.926     0.033     2.541     2.493
    42   1 H        0.926     0.033     2.550     2.497
    43   1 H        0.926     0.032     2.552     2.498
    44   1 H        0.926     0.033     2.548     2.496
    45   1 H        0.926     0.032     2.564     2.504
    46   1 H        0.926     0.033     2.545     2.495
    47   1 H        0.926     0.033     2.551     2.498
    48   1 H        0.926     0.035     2.514     2.479
    49   1 H        0.926     0.036     2.499     2.472
    50   1 H        0.925     0.047     2.358     2.401
    51   1 H        0.926     0.052     2.290     2.366
    52   1 H        0.926     0.051     2.313     2.378
    53   1 H        0.926     0.040     2.447     2.446
    54   1 H        0.926     0.040     2.453     2.449
    55   1 H        0.926     0.040     2.451     2.448
    56   1 H        0.926     0.041     2.433     2.439
    57   1 H        0.926     0.055     2.259     2.350
    58   1 H        0.926     0.037     2.491     2.468
    59   1 H        0.926     0.035     2.517     2.481
    60   1 H        0.926     0.032     2.554     2.499
    61   1 H        0.926     0.033     2.548     2.496

molecular dipole:
                 x           y           z       tot (Debye)
 q only:        0.010      -0.675       0.010
   full:       -0.054      -1.035       0.022       2.634

 projected vibrational frequencies (cm⁻¹)
eigval :       -0.00    -0.00    -0.00     0.00     0.00     0.00
eigval :       13.41    16.18    20.40    39.40    47.30    50.49
eigval :       65.91    68.06    75.28    86.06   105.86   134.09
eigval :      144.64   151.94   155.54   177.04   202.45   216.73
eigval :      234.00   256.49   281.12   294.32   306.79   316.48
eigval :      339.79   363.83   374.46   378.25   380.32   383.04
eigval :      393.59   402.49   422.20   424.03   449.62   454.28
eigval :      463.91   479.79   489.86   492.35   511.15   540.32
eigval :      563.15   572.53   573.82   582.54   584.68   591.21
eigval :      591.90   593.86   605.39   623.83   646.30   660.16
eigval :      666.89   679.18   686.81   694.13   713.28   734.76
eigval :      744.37   757.56   762.33   765.04   787.00   789.97
eigval :      810.02   814.87   816.19   853.41   868.41   875.07
eigval :      876.33   889.23   893.06   893.45   895.01   898.30
eigval :      907.38   910.26   913.58   917.99   923.08   926.93
eigval :      927.96   929.26   929.57   929.59   930.46   943.92
eigval :      972.28   987.15  1005.27  1020.48  1057.66  1074.79
eigval :     1079.63  1083.07  1084.05  1120.80  1121.79  1123.88
eigval :     1126.26  1144.48  1177.94  1180.63  1180.72  1187.11
eigval :     1189.11  1195.32  1197.24  1206.32  1216.95  1217.77
eigval :     1227.68  1233.08  1250.60  1272.25  1278.41  1279.72
eigval :     1284.32  1305.44  1314.23  1318.51  1326.31  1327.70
eigval :     1328.72  1333.72  1354.47  1365.15  1395.01  1399.31
eigval :     1410.36  1421.73  1435.95  1438.15  1442.93  1454.57
eigval :     1471.40  1475.36  1477.84  1484.01  1495.29  1544.17
eigval :     1553.74  1566.48  1577.77  1581.68  1584.37  1591.31
eigval :     1594.69  1599.99  1605.79  1609.73  1615.19  3050.04
eigval :     3072.62  3074.36  3076.73  3077.11  3077.66  3078.16
eigval :     3079.96  3082.24  3083.75  3084.11  3085.98  3086.48
eigval :     3087.16  3089.47  3090.32  3092.60  3093.89  3098.12
eigval :     3098.53  3101.33  3105.03

   temp. (K)  partition function   enthalpy   heat capacity  entropy
                                   cal/mol     cal/K/mol   cal/K/mol   J/K/mol
 298.15  VIB  0.219E+13            16670.256    109.375    102.184
         ROT  0.593E+08              888.752      2.981     38.550
         INT  0.130E+21            17559.008    112.356    140.734
         TR   0.108E+29             1481.254      4.968     44.487
         TOT                       19040.2618   117.3241   185.2205   774.9625

       T/K    H(0)-H(T)+PV         H(T)/Eh          T*S/Eh         G(T)/Eh
   ------------------------------------------------------------------------
    298.15    0.303426E-01    0.490739E+00    0.880042E-01    0.402735E+00
   ------------------------------------------------------------------------

         :::::::::::::::::::::::::::::::::::::::::::::::::::::
         ::                  THERMODYNAMIC                  ::
         :::::::::::::::::::::::::::::::::::::::::::::::::::::
         :: total free energy         -97.471810799044 Eh   ::
         ::.................................................::
         :: total energy              -97.874545958246 Eh   ::
         :: zero point energy           0.460396796381 Eh   ::
         :: G(RRHO) w/o ZPVE           -0.057661637179 Eh   ::
         :: G(RRHO) contrib.            0.402735159202 Eh   ::
         :::::::::::::::::::::::::::::::::::::::::::::::::::::

           -------------------------------------------------
          | TOTAL ENERGY              -97.874545958246 Eh   |
          | TOTAL ENTHALPY            -97.383806573330 Eh   |
          | TOTAL FREE ENERGY         -97.471810799044 Eh   |
          | GRADIENT NORM               0.000034818440 Eh/α |
          | HOMO-LUMO GAP               1.178889220806 eV   |
           -------------------------------------------------

 * finished run on 2025/08/23 at 01:09:13.866
