   * xtb version 6.7.1 (edcfbbe) compiled by 'albert@albert-system' on 2024-07-22

   ID    Z sym.   atoms
    1    6 C      1-4, 6-17, 19, 21, 22, 24-39
    2    7 N      5, 18, 20, 23
    3    1 H      40-61

          program call               : xtb data2507/gas/TPA-APy/TPA-APy_gas_T1_crest.xyz --gfn 2 --spinpol --tblite --uhf 2 --ohess vtight --parallel 40 --molden --ceasefiles --namespace data2507/gas/TPA-APy/TPA-APy_gas_T1_finalOpt
 * total energy  :   -97.8374383 Eh     change       -0.1730020E-07 Eh
 * total energy  :   -97.8374705 Eh     change       -0.3219542E-04 Eh
 * total energy  :   -97.8374864 Eh     change       -0.1587820E-04 Eh
 * total energy  :   -97.8374891 Eh     change       -0.2686257E-05 Eh
 * total energy  :   -97.8374899 Eh     change       -0.8461776E-06 Eh
 * total energy  :   -97.8374902 Eh     change       -0.3132119E-06 Eh
 * total energy  :   -97.8374907 Eh     change       -0.4741405E-06 Eh
 * total energy  :   -97.8374912 Eh     change       -0.4613166E-06 Eh
 * total energy  :   -97.8374917 Eh     change       -0.5597149E-06 Eh
 * total energy  :   -97.8374923 Eh     change       -0.6297868E-06 Eh
 * total energy  :   -97.8374942 Eh     change       -0.4849329E-06 Eh
 * total energy  :   -97.8374948 Eh     change       -0.6128328E-06 Eh
 * total energy  :   -97.8374956 Eh     change       -0.7993041E-06 Eh
 * total energy  :   -97.8374964 Eh     change       -0.7702528E-06 Eh
 * total energy  :   -97.8374971 Eh     change       -0.6710923E-06 Eh
 * total energy  :   -97.8374976 Eh     change       -0.5853082E-06 Eh
 * total energy  :   -97.8374981 Eh     change       -0.4858595E-06 Eh
 * total energy  :   -97.8374985 Eh     change       -0.3499564E-06 Eh
 * total energy  :   -97.8374985 Eh     change       -0.4283038E-08 Eh
   *** GEOMETRY OPTIMIZATION CONVERGED AFTER 22 ITERATIONS ***

 final structure:
================
61
 xtb: 6.7.1 (edcfbbe)
C           -6.74606203027384        4.11074906973590       -0.01448071518125
C           -5.62214073802406        3.76806801856193       -0.74825431794175
C           -5.15536051031800        2.46808497101157       -0.74796343668431
C           -5.80773569752741        1.48797577613219       -0.00045718757721
N           -5.33904294816662        0.16839062333091        0.00456138790331
C           -6.25268083513384       -0.89307880014028        0.01919949998217
C           -7.44078879256938       -0.81206356924287       -0.70636272574238
C           -8.34136785505179       -1.85918678669629       -0.68503650158212
C           -8.07157816290710       -3.00242601520704        0.04927965054661
C           -6.89142051148408       -3.08882265711922        0.76956961324079
C           -5.98830074301987       -2.04378342572709        0.76141193592283
C           -3.96809408157947       -0.08920893270515       -0.00551339474975
C           -3.07989122207375        0.74657378768635        0.67424743403441
C           -1.72649204145528        0.49061097255193        0.65905265812671
C           -1.20801716736805       -0.61185712340771       -0.02268442870890
C            0.22674790766747       -0.88647829782120       -0.02326121813277
C            0.71505690592161       -2.18589639437670       -0.00872249367029
N            2.00635152906137       -2.47121753011766        0.00139705461905
C            2.93892216894861       -1.54863287385770       -0.00002245960634
N            4.22570547908123       -1.85627802966321        0.00338296809294
C            5.13845333708119       -0.89707164002850        0.00300502368172
C            4.74998083799555        0.47548755167653       -0.00309519773863
N            3.47866746822668        0.81033674913579       -0.00564436877942
C            2.53600298421599       -0.13268902129008       -0.00538537929375
C            1.18035549332291        0.14541679646427       -0.02049589186564
C            5.94955754550872        1.29155712522264        0.00014650519835
C            6.22265816255654        2.63653636193543       -0.00212554839933
C            7.57221793277389        3.04018239302598        0.00401766542474
C            8.61926501419669        2.15027536827201        0.01199725817246
C            8.37149135935423        0.75745631127771        0.01446919418581
C            9.31171744022050       -0.30137888841955        0.02289168245980
C            8.88081542669928       -1.60634161310514        0.02467765637991
C            7.51979658352454       -1.96774166547561        0.01872341824359
C            6.58109535741193       -0.96379323979250        0.01052841302005
C            7.03161923536962        0.38022295296298        0.00834890566178
C           -2.10139473910761       -1.44617194636566       -0.69703481085976
C           -3.45461783931462       -1.18941927286096       -0.69551993815956
C           -6.93658174334335        1.83880324567983        0.73942425419295
C           -7.40030114523334        3.13982761180766        0.72599952391229
H           -7.10977488528745        5.12699603320766       -0.02012715018095
H           -5.10930199966903        4.51710762819238       -1.33358922015454
H           -4.28544935959701        2.20074655663912       -1.32993489502337
H           -7.64881202516140        0.07469364672132       -1.28713995925764
H           -9.25683263272275       -1.78489309310285       -1.25338722083105
H           -8.77616103846517       -3.82003323302191        0.06050770305661
H           -6.67554225124067       -3.97367251420454        1.35013142065131
H           -5.07373301097315       -2.10878805091875        1.33259389294637
H           -3.46354233806006        1.59457002617039        1.22244824081714
H           -1.06147056122317        1.13690477964220        1.21219900933117
H            0.05713139261419       -3.04188056521118        0.02286047086010
H            0.87467846490484        1.17880973108897       -0.05744446925880
H            5.43568598927252        3.37514953951947       -0.00835927656778
H            7.78475975300858        4.09987006861775        0.00234258851473
H            9.63801412520953        2.51028603082758        0.01660616362039
H           10.36830090658963       -0.07640246134815        0.02802200205381
H            9.61508045916950       -2.39950068656089        0.03106747363727
H            7.23332575158492       -3.00802141555337        0.02064932565365
H           -1.72501039459108       -2.28908727879051       -1.25716942568535
H           -4.12824254381268       -1.83617724694106       -1.23831360722331
H           -7.44288908200971        1.08520821263138        1.32478372457188
H           -8.27447337282750        3.39882864204565        1.30511521993812

 projected vibrational frequencies (cm⁻¹)
eigval :       -0.00    -0.00    -0.00     0.00     0.00     0.00
eigval :       13.21    16.05    20.92    39.45    47.43    50.30
eigval :       65.90    68.03    74.83    89.74   105.67   131.55
eigval :      146.82   152.45   154.81   178.96   201.15   215.07
eigval :      233.79   251.99   273.75   290.51   300.04   317.31
eigval :      339.33   363.53   378.12   379.65   382.51   392.76
eigval :      400.80   411.39   417.72   422.34   437.66   463.64
eigval :      468.97   478.64   487.48   492.82   506.98   536.02
eigval :      550.96   563.10   571.39   580.12   582.92   586.71
eigval :      589.79   593.63   596.02   618.12   639.76   648.55
eigval :      659.92   665.24   670.80   683.31   685.20   689.59
eigval :      724.87   731.30   757.27   761.25   771.54   785.73
eigval :      790.45   800.07   810.05   818.60   838.73   868.31
eigval :      874.80   876.26   878.47   883.76   886.90   891.32
eigval :      892.76   894.99   910.20   916.33   919.40   925.62
eigval :      925.87   927.76   929.24   929.37   929.81   932.27
eigval :      966.13   986.45  1005.18  1020.77  1046.20  1076.98
eigval :     1080.49  1083.26  1084.13  1107.11  1121.91  1124.08
eigval :     1125.23  1141.46  1144.97  1178.24  1180.63  1180.72
eigval :     1185.23  1187.21  1194.74  1195.30  1198.58  1216.75
eigval :     1226.49  1231.18  1237.82  1246.01  1272.23  1278.35
eigval :     1280.38  1282.19  1294.68  1314.60  1319.24  1320.37
eigval :     1327.08  1328.12  1331.70  1358.57  1369.28  1383.09
eigval :     1398.11  1417.59  1418.48  1434.32  1436.35  1440.18
eigval :     1443.67  1471.98  1475.97  1478.03  1487.54  1513.55
eigval :     1513.89  1521.20  1552.18  1577.13  1581.09  1581.16
eigval :     1592.72  1594.39  1598.69  1600.33  1615.42  3072.40
eigval :     3073.82  3075.60  3076.45  3076.84  3077.37  3077.88
eigval :     3080.23  3081.81  3083.48  3086.14  3086.40  3087.29
eigval :     3089.39  3090.37  3091.95  3093.19  3096.05  3097.88
eigval :     3098.50  3099.13  3099.87

   temp. (K)  partition function   enthalpy   heat capacity  entropy
                                   cal/mol     cal/K/mol   cal/K/mol   J/K/mol
 298.15  VIB  0.235E+13            16791.347    110.478    102.741
         ROT  0.597E+08              888.752      2.981     38.563
         INT  0.140E+21            17680.099    113.459    141.304
         TR   0.108E+29             1481.254      4.968     44.487
         TOT                       19161.3528   118.4269   185.7904   777.3472

       T/K    H(0)-H(T)+PV         H(T)/Eh          T*S/Eh         G(T)/Eh
   ------------------------------------------------------------------------
    298.15    0.305356E-01    0.488510E+00    0.882750E-01    0.400235E+00
   ------------------------------------------------------------------------

         :::::::::::::::::::::::::::::::::::::::::::::::::::::
         ::                  THERMODYNAMIC                  ::
         :::::::::::::::::::::::::::::::::::::::::::::::::::::
         :: total free energy         -97.437263178735 Eh   ::
         ::.................................................::
         :: total energy              -97.837498476121 Eh   ::
         :: zero point energy           0.457974769222 Eh   ::
         :: G(RRHO) w/o ZPVE           -0.057739471837 Eh   ::
         :: G(RRHO) contrib.            0.400235297386 Eh   ::
         :::::::::::::::::::::::::::::::::::::::::::::::::::::

           -------------------------------------------------
          | TOTAL ENERGY              -97.837498476121 Eh   |
          | TOTAL ENTHALPY            -97.348988147549 Eh   |
          | TOTAL FREE ENERGY         -97.437263178735 Eh   |
          | GRADIENT NORM               0.000046490890 Eh/α |
           -------------------------------------------------

 * finished run on 2025/08/23 at 01:12:31.602
