   * xtb version 6.7.1 (edcfbbe) compiled by 'albert@albert-system' on 2024-07-22

   ID    Z sym.   atoms
    1    6 C      1-4, 6-17, 19, 21, 22, 24-39
    2    7 N      5, 18, 20, 23
    3    1 H      40-61

          program call               : xtb data2507/gas/TPA-APy/TPA-APy.xyz --gfn 2 --ohess vtight --parallel 40 --molden --ceasefiles --namespace data2507/gas/TPA-APy/TPA-APy_gas_S0_preOpt
          :  Hamiltonian                  GFN2-xTB          :
 * total energy  :   -97.8523158 Eh     change       -0.9092247E-09 Eh
 * total energy  :   -97.8671287 Eh     change       -0.1481288E-01 Eh
 * total energy  :   -97.8721402 Eh     change       -0.5011467E-02 Eh
 * total energy  :   -97.8732374 Eh     change       -0.1097258E-02 Eh
 * total energy  :   -97.8738769 Eh     change       -0.6395062E-03 Eh
 * total energy  :   -97.8740876 Eh     change       -0.2106377E-03 Eh
 * total energy  :   -97.8742385 Eh     change       -0.1509274E-03 Eh
 * total energy  :   -97.8743396 Eh     change       -0.1010506E-03 Eh
 * total energy  :   -97.8743937 Eh     change       -0.5410346E-04 Eh
 * total energy  :   -97.8744219 Eh     change       -0.2822756E-04 Eh
 * total energy  :   -97.8745404 Eh     change       -0.5429735E-05 Eh
 * total energy  :   -97.8745445 Eh     change       -0.4076089E-05 Eh
 * total energy  :   -97.8745457 Eh     change       -0.1215694E-05 Eh
 * total energy  :   -97.8745461 Eh     change       -0.4308160E-06 Eh
 * total energy  :   -97.8745465 Eh     change       -0.3185090E-06 Eh
 * total energy  :   -97.8745467 Eh     change       -0.2845090E-06 Eh
 * total energy  :   -97.8745469 Eh     change       -0.1487883E-06 Eh
 * total energy  :   -97.8745470 Eh     change       -0.1328898E-06 Eh
 * total energy  :   -97.8745470 Eh     change       -0.2245685E-08 Eh
   *** GEOMETRY OPTIMIZATION CONVERGED AFTER 44 ITERATIONS ***

 final structure:
================
61
 xtb: 6.7.1 (edcfbbe)
C           -7.61954366296580        3.03791746779000        0.16421552435743
C           -6.45413331494993        3.16598033612911       -0.57360878235793
C           -5.54557266752752        2.12717766222602       -0.63285589492468
C           -5.78982921490962        0.94119282407708        0.05853581831055
N           -4.87227064069951       -0.11677336783397        0.00319501863110
C           -5.34242513002480       -1.43531945603333       -0.05882355789196
C           -6.47725029146894       -1.74415573210227       -0.80779915685275
C           -6.94340925228994       -3.04340396383511       -0.86015853653269
C           -6.28549662553588       -4.05317207754965       -0.17717627078036
C           -5.15600481001143       -3.75175170279907        0.56603203876038
C           -4.68690369558255       -2.45416128721381        0.63158694309366
C           -3.50324092166851        0.14147355255334        0.00713505254549
C           -2.98240994700260        1.21627837221572        0.73140568579794
C           -1.62950844932844        1.47581296737006        0.72543299151823
C           -0.74500416707558        0.66577452902755        0.01225654863917
C            0.69216509878077        0.93854059665106        0.00877360017604
C            1.17742258846408        2.26923081089772        0.00072300066023
N            2.43473194532546        2.60413096634927       -0.00256332089946
C            3.36140005704631        1.63346722810107       -0.00063994249751
N            4.65591668409325        2.02570852432165        0.00039548385313
C            5.53156515217394        1.06219188963674        0.00028229346581
C            5.16156528864922       -0.34133063292321       -0.00098564596570
N            3.92255322687290       -0.74159381361477       -0.00330989499074
C            2.99516955663549        0.25173629317641       -0.00320666883478
C            1.63117086498070       -0.07310672271796        0.00358230366660
C            6.38472099037659       -1.13045536067291       -0.00157339600353
C            6.68464270016120       -2.46929088033501       -0.00255469279615
C            8.04032646033233       -2.84835652371269       -0.00318710261897
C            9.06911025482736       -1.93672451039188       -0.00293749015826
C            8.79567006592788       -0.55006062315577       -0.00192958890653
C            9.71726123484448        0.52171133018806       -0.00182720704596
C            9.27154571700879        1.82213988705478       -0.00100058204256
C            7.90524702053321        2.16106929699620       -0.00015887809404
C            6.98451402839816        1.14378893513106       -0.00022285672690
C            7.44469216195949       -0.19376058425597       -0.00114717958162
C           -1.26870437856523       -0.41236841123895       -0.70237931758029
C           -2.62202211737355       -0.66808805093154       -0.71351556641288
C           -6.96290110867031        0.81799134972118        0.80196653882024
C           -7.86927127854227        1.85940229006306        0.84807819854188
H           -8.32852984452314        3.85071834853021        0.20540026307184
H           -6.25425743349581        4.07879574720888       -1.11520876786288
H           -4.64284179213556        2.22483311469442       -1.21804790239351
H           -6.98653602182836       -0.95951193947846       -1.34801389657765
H           -7.82232771192782       -3.26989841656398       -1.44559554352518
H           -6.65084466807027       -5.06778357550135       -0.22317906467820
H           -4.64046877791527       -4.53159572127656        1.10701021109231
H           -3.81276253152434       -2.21931847292524        1.22119243102520
H           -3.64970327444384        1.84155796466985        1.30606198339312
H           -1.24722439390212        2.29812494517421        1.31170996576342
H            0.47842737373219        3.09593293297113       -0.02394779962738
H            1.35027302750270       -1.11569600236571        0.02773516745324
H            5.90842749887284       -3.21873484287421       -0.00277447572060
H            8.27497677168498       -3.90329882334701       -0.00390669122777
H           10.09509686887878       -2.27590753902413       -0.00354412795851
H           10.77705020226313        0.31060886648783       -0.00252804335719
H            9.99607650541304        2.62397461586767       -0.00105698483678
H            7.59687933796102        3.19477462083961        0.00045866828137
H           -0.60740018101124       -1.03713499029275       -1.28421934573210
H           -3.01141167799237       -1.49450339227243       -1.28968640699209
H           -7.15511363439205       -0.09715767116646        1.34276760407780
H           -8.77327106634387        1.75237682229160        1.42933624598863

          :  Hamiltonian                  GFN2-xTB          :
         :: gradient norm              0.000034197181 Eh/a0 ::
         :: HOMO-LUMO gap              1.179224804605 eV    ::
         :: SCC energy               -99.673377592035 Eh    ::
         :: -> dispersion             -0.082640590670 Eh    ::
         :: repulsion energy           1.798830564361 Eh    ::

    * Orbital Energies and Occupations

         #    Occupation            Energy/Eh            Energy/eV
      -------------------------------------------------------------
         1        2.0000           -0.6758433             -18.3906
       ...           ...                  ...                  ...
        79        2.0000           -0.4224172             -11.4946
        80        2.0000           -0.4154336             -11.3045
        81        2.0000           -0.4146417             -11.2830
        82        2.0000           -0.4122871             -11.2189
        83        2.0000           -0.4105957             -11.1729
        84        2.0000           -0.4097094             -11.1488
        85        2.0000           -0.4078226             -11.0974
        86        2.0000           -0.4071130             -11.0781
        87        2.0000           -0.3962069             -10.7813
        88        2.0000           -0.3920234             -10.6675
        89        2.0000           -0.3811807             -10.3725
        90        2.0000           -0.3526511              -9.5961
        91        2.0000           -0.3406073              -9.2684 (HOMO)
        92                         -0.2972716              -8.0892 (LUMO)
        93                         -0.2961264              -8.0580
        94                         -0.2489707              -6.7748
        95                         -0.2397017              -6.5226
        96                         -0.2332686              -6.3476
        97                         -0.2306608              -6.2766
        98                         -0.2273209              -6.1857
        99                         -0.2252426              -6.1292
       100                         -0.2244824              -6.1085
       101                         -0.2181847              -5.9371
       102                         -0.1972156              -5.3665
       ...                                ...                  ...
       178                          0.7234956              19.6873
      -------------------------------------------------------------
                  HL-Gap            0.0433357 Eh            1.1792 eV

     #   Z          covCN         q      C6AA      α(0)
     1   6 C        2.919    -0.037    28.927     8.820
     2   6 C        2.920    -0.029    28.720     8.788
     3   6 C        2.922    -0.047    29.161     8.856
     4   6 C        2.925     0.065    26.552     8.450
     5   7 N        2.752    -0.073    22.648     7.068
     6   6 C        2.925     0.065    26.550     8.450
     7   6 C        2.922    -0.047    29.160     8.855
     8   6 C        2.920    -0.029    28.720     8.788
     9   6 C        2.919    -0.037    28.930     8.820
    10   6 C        2.920    -0.029    28.722     8.789
    11   6 C        2.922    -0.047    29.164     8.856
    12   6 C        2.923     0.066    26.521     8.445
    13   6 C        2.920    -0.048    29.198     8.861
    14   6 C        2.923    -0.033    28.833     8.806
    15   6 C        2.975    -0.001    28.039     8.686
    16   6 C        2.970    -0.000    28.032     8.685
    17   6 C        2.911     0.061    26.638     8.463
    18   7 N        1.842    -0.225    26.764     7.667
    19   6 C        2.981     0.154    24.663     8.146
    20   7 N        1.842    -0.226    26.781     7.669
    21   6 C        3.062     0.085    26.045     8.369
    22   6 C        3.060     0.085    26.040     8.368
    23   7 N        1.837    -0.240    27.122     7.718
    24   6 C        2.988     0.067    26.495     8.444
    25   6 C        2.929    -0.032    28.788     8.799
    26   6 C        3.026    -0.004    28.091     8.694
    27   6 C        2.913    -0.019    28.475     8.750
    28   6 C        2.919    -0.028    28.698     8.785
    29   6 C        2.918    -0.029    28.722     8.788
    30   6 C        2.976     0.017    27.635     8.623
    31   6 C        2.918    -0.029    28.726     8.789
    32   6 C        2.919    -0.027    28.679     8.782
    33   6 C        2.913    -0.018    28.450     8.746
    34   6 C        3.027    -0.003    28.061     8.689
    35   6 C        3.139    -0.006    27.937     8.650
    36   6 C        2.924    -0.033    28.812     8.802
    37   6 C        2.920    -0.048    29.204     8.862
    38   6 C        2.922    -0.047    29.158     8.855
    39   6 C        2.920    -0.029    28.720     8.788
    40   1 H        0.926     0.032     2.560     2.502
    41   1 H        0.926     0.033     2.540     2.492
    42   1 H        0.926     0.033     2.549     2.497
    43   1 H        0.926     0.032     2.553     2.498
    44   1 H        0.926     0.033     2.548     2.496
    45   1 H        0.926     0.032     2.564     2.504
    46   1 H        0.926     0.033     2.545     2.495
    47   1 H        0.926     0.033     2.550     2.497
    48   1 H        0.926     0.035     2.515     2.480
    49   1 H        0.926     0.036     2.501     2.473
    50   1 H        0.925     0.047     2.359     2.402
    51   1 H        0.926     0.052     2.290     2.366
    52   1 H        0.926     0.051     2.313     2.378
    53   1 H        0.926     0.040     2.447     2.446
    54   1 H        0.926     0.040     2.453     2.449
    55   1 H        0.926     0.040     2.451     2.448
    56   1 H        0.926     0.041     2.433     2.439
    57   1 H        0.926     0.055     2.259     2.350
    58   1 H        0.926     0.037     2.492     2.469
    59   1 H        0.926     0.035     2.517     2.481
    60   1 H        0.926     0.032     2.553     2.499
    61   1 H        0.926     0.033     2.547     2.496

molecular dipole:
                 x           y           z       tot (Debye)
 q only:        0.010      -0.673      -0.001
   full:       -0.050      -1.034       0.003       2.632

 projected vibrational frequencies (cm⁻¹)
eigval :       -0.00    -0.00     0.00     0.00     0.00     0.00
eigval :       13.44    16.15    20.40    39.32    47.26    50.52
eigval :       65.89    68.08    75.19    85.89   106.08   133.98
eigval :      144.64   151.97   155.57   176.96   202.31   216.81
eigval :      234.17   256.39   281.23   294.32   306.72   316.43
eigval :      339.77   363.59   374.22   378.28   380.28   383.03
eigval :      393.62   402.26   422.20   423.99   449.50   454.27
eigval :      463.89   479.82   489.88   492.32   511.18   540.33
eigval :      563.16   572.54   573.83   582.54   584.68   591.19
eigval :      591.85   593.88   605.35   623.93   646.29   660.23
eigval :      666.96   679.17   686.66   694.13   713.28   734.76
eigval :      744.36   757.57   762.35   765.05   787.00   789.97
eigval :      809.99   814.88   816.21   853.44   868.46   875.16
eigval :      876.37   889.24   893.08   893.56   895.07   898.32
eigval :      907.46   910.23   913.58   918.05   923.10   926.93
eigval :      928.00   929.28   929.55   929.65   930.59   943.93
eigval :      972.27   987.17  1005.27  1020.44  1057.66  1074.91
eigval :     1079.63  1083.05  1084.04  1120.80  1121.77  1123.83
eigval :     1126.26  1144.60  1177.94  1180.62  1180.72  1187.14
eigval :     1189.11  1195.29  1197.25  1206.25  1216.83  1217.78
eigval :     1227.67  1233.07  1250.63  1272.24  1278.39  1279.72
eigval :     1284.34  1305.38  1314.14  1318.29  1326.30  1327.73
eigval :     1328.79  1333.79  1354.47  1365.17  1395.03  1399.32
eigval :     1410.44  1421.75  1435.95  1438.16  1442.90  1454.59
eigval :     1471.37  1475.32  1477.85  1484.02  1495.39  1544.25
eigval :     1553.75  1566.50  1577.78  1581.69  1584.38  1591.38
eigval :     1594.67  1599.98  1605.81  1609.75  1615.19  3049.92
eigval :     3072.65  3074.38  3076.74  3077.13  3077.68  3078.18
eigval :     3079.93  3082.19  3083.69  3084.13  3086.00  3086.49
eigval :     3087.17  3089.50  3090.32  3092.59  3093.85  3098.12
eigval :     3098.54  3101.30  3105.02

   temp. (K)  partition function   enthalpy   heat capacity  entropy
                                   cal/mol     cal/K/mol   cal/K/mol   J/K/mol
 298.15  VIB  0.220E+13            16670.973    109.373    102.188
         ROT  0.593E+08              888.752      2.981     38.550
         INT  0.131E+21            17559.725    112.354    140.739
         TR   0.108E+29             1481.254      4.968     44.487
         TOT                       19040.9793   117.3223   185.2253   774.9826

       T/K    H(0)-H(T)+PV         H(T)/Eh          T*S/Eh         G(T)/Eh
   ------------------------------------------------------------------------
    298.15    0.303437E-01    0.490740E+00    0.880065E-01    0.402733E+00
   ------------------------------------------------------------------------

         :::::::::::::::::::::::::::::::::::::::::::::::::::::
         ::                  THERMODYNAMIC                  ::
         :::::::::::::::::::::::::::::::::::::::::::::::::::::
         :: total free energy         -97.471813707765 Eh   ::
         ::.................................................::
         :: total energy              -97.874547027673 Eh   ::
         :: zero point energy           0.460396096608 Eh   ::
         :: G(RRHO) w/o ZPVE           -0.057662776700 Eh   ::
         :: G(RRHO) contrib.            0.402733319908 Eh   ::
         :::::::::::::::::::::::::::::::::::::::::::::::::::::

           -------------------------------------------------
          | TOTAL ENERGY              -97.874547027673 Eh   |
          | TOTAL ENTHALPY            -97.383807199098 Eh   |
          | TOTAL FREE ENERGY         -97.471813707765 Eh   |
          | GRADIENT NORM               0.000034192165 Eh/α |
          | HOMO-LUMO GAP               1.179224644203 eV   |
           -------------------------------------------------

 * finished run on 2025/08/23 at 01:06:37.426
