   * xtb version 6.7.1 (edcfbbe) compiled by 'albert@albert-system' on 2024-07-22

   ID    Z sym.   atoms
    1    6 C      1-4, 6-17, 19, 21, 22, 24-39
    2    7 N      5, 18, 20, 23
    3    1 H      40-61

          program call               : xtb data2507/gas/TPA-APy/TPA-APy_gas_S0_finalOpt.xtbopt.xyz --gfn 2 --spinpol --tblite --uhf 2 --ohess vtight --parallel 40 --molden --ceasefiles --namespace data2507/gas/TPA-APy/TPA-APy_gas_T1_preOpt
 * total energy  :   -97.8299148 Eh     change       -0.7263495E-08 Eh
 * total energy  :   -97.8350137 Eh     change       -0.5098881E-02 Eh
 * total energy  :   -97.8371418 Eh     change       -0.2128108E-02 Eh
 * total energy  :   -97.8373804 Eh     change       -0.2385374E-03 Eh
 * total energy  :   -97.8374724 Eh     change       -0.9204286E-04 Eh
 * total energy  :   -97.8374781 Eh     change       -0.5656620E-05 Eh
 * total energy  :   -97.8374804 Eh     change       -0.2398114E-05 Eh
 * total energy  :   -97.8374830 Eh     change       -0.2596912E-05 Eh
 * total energy  :   -97.8374846 Eh     change       -0.1569856E-05 Eh
 * total energy  :   -97.8374859 Eh     change       -0.1332269E-05 Eh
 * total energy  :   -97.8374882 Eh     change       -0.6212524E-06 Eh
 * total energy  :   -97.8374888 Eh     change       -0.5816252E-06 Eh
 * total energy  :   -97.8374893 Eh     change       -0.5031458E-06 Eh
 * total energy  :   -97.8374899 Eh     change       -0.5630678E-06 Eh
 * total energy  :   -97.8374905 Eh     change       -0.5795030E-06 Eh
 * total energy  :   -97.8374911 Eh     change       -0.6785558E-06 Eh
 * total energy  :   -97.8374920 Eh     change       -0.8777948E-06 Eh
 * total energy  :   -97.8374928 Eh     change       -0.7926789E-06 Eh
 * total energy  :   -97.8374928 Eh     change       -0.1469232E-08 Eh
   *** GEOMETRY OPTIMIZATION CONVERGED AFTER 22 ITERATIONS ***

 final structure:
================
61
 xtb: 6.7.1 (edcfbbe)
C           -8.06030933757689        3.01856627474468        0.03405236971285
C           -6.88877698734207        3.11132100181377       -0.69941298657802
C           -5.98918041878557        2.06332913440023       -0.71705083723635
C           -6.24844928166823        0.90320854561043        0.01208188694425
N           -5.33842481330853       -0.16186093633733        0.00097111773360
C           -5.81417974364317       -1.47882619062063       -0.01568927825935
C           -6.95111980705296       -1.80839940010065       -0.75303422621033
C           -7.42231643266859       -3.10674778580341       -0.76196132704249
C           -6.76763460861360       -4.09610920728248       -0.04672921021771
C           -5.63616379603531       -3.77444587458070        0.68494682005874
C           -5.16197653852191       -2.47731096292877        0.70720722839695
C           -3.96674159310315        0.09089028360648        0.00550075782201
C           -3.44636432827031        1.18322380709134        0.70299705570507
C           -2.09272156874336        1.43740448883641        0.69806843625630
C           -1.20530497102355        0.60707078592809        0.01122296048352
C            0.22991584454084        0.88007636185718        0.00700795838239
C            0.71800348263575        2.17945154983354       -0.01110442822668
N            2.00933016347784        2.46476964715698       -0.02299343797441
C            2.94176624720923        1.54215737853802       -0.01773973254751
N            4.22859994000954        1.85004754598197       -0.02060652747766
C            5.14148095542655        0.89106776866240       -0.01223480874217
C            4.75314388407358       -0.48145828587086        0.00067144664757
N            3.48181116851192       -0.81655737859452       -0.00027785077362
C            2.53893711212947        0.12619736173510       -0.00765796952152
C            1.18315395831425       -0.15198878166528        0.00596182632631
C            5.95279394127273       -1.29733398679366        0.00930898833862
C            6.22596428992900       -2.64221845860136        0.02393568164725
C            7.57555773904514       -3.04576444472931        0.02903699859902
C            8.62257091139525       -2.15583140216174        0.02000094234104
C            8.37472774757549       -0.76309922897365        0.00496614754245
C            9.31497261941241        0.29568479689414       -0.00583652127755
C            8.88400901466511        1.60054913656906       -0.01967195214803
C            7.52294857757943        1.96187330820596       -0.02375887810496
C            6.58420723111003        0.95797346948899       -0.01356938220782
C            7.03481810442720       -0.38594841673635        0.00035458173562
C           -1.72996723989280       -0.48839156662153       -0.67670894369101
C           -3.08426413955485       -0.74053302405603       -0.68714677248596
C           -7.42792730803864        0.81566328897425        0.75077467313509
C           -8.32512308777352        1.86591464458047        0.75534985841370
H           -8.76214215749884        3.83857069520815        0.04305076591217
H           -6.67705455687546        4.00356503187313       -1.27009575019278
H           -5.08136072384448        2.13338918447400       -1.29830591614045
H           -7.45794156001053       -1.04038413720380       -1.31888334802055
H           -8.30273702796507       -3.34898250453868       -1.33886349542051
H           -7.13688852806397       -5.11029808174439       -0.05894417949269
H           -5.12300146796168       -4.53799559204234        1.25093029796819
H           -4.28627051725957       -2.22664053819146        1.28788348890272
H           -4.11487685038647        1.82623568730341        1.25642141345751
H           -1.71084867547142        2.27467811733161        1.26297110973838
H            0.05966815845810        3.03509130570580       -0.04416632723259
H            0.87698440940429       -1.18521629987304        0.04469595928371
H            5.43896659207931       -3.38078796326580        0.03171577655981
H            7.78814670665314       -4.10537581588520        0.04070063892362
H            9.64136275791712       -2.51571214090398        0.02445373192553
H           10.37158333025017        0.07074898200458       -0.00311295350984
H            9.61824137639957        2.39372900907256       -0.02774312658319
H            7.23667552268350        3.00215908144262       -0.03455992116457
H           -1.06922012830419       -1.13180041011986       -1.23837283769867
H           -3.47280412417401       -1.58222255999828       -1.24155989639457
H           -7.63192245208897       -0.07869411549158        1.32125111610105
H           -9.23382422332126        1.78661277448371        1.33378548195832

 projected vibrational frequencies (cm⁻¹)
eigval :       -0.00    -0.00     0.00     0.00     0.00     0.00
eigval :       13.28    16.34    20.90    39.54    47.43    50.50
eigval :       65.94    68.08    74.80    89.91   105.93   131.52
eigval :      146.66   152.58   154.87   178.97   201.05   215.30
eigval :      234.08   252.06   273.86   290.62   300.24   317.26
eigval :      339.35   363.72   378.16   379.60   382.48   392.85
eigval :      400.72   411.40   417.84   422.53   437.66   463.67
eigval :      469.06   478.72   487.54   492.86   507.27   536.07
eigval :      550.89   562.87   571.52   580.22   582.99   586.66
eigval :      589.73   593.65   596.00   618.31   639.67   648.59
eigval :      660.01   665.28   670.58   683.44   685.14   689.62
eigval :      724.88   731.26   757.33   761.27   771.85   785.75
eigval :      790.94   799.99   810.28   818.70   839.19   868.47
eigval :      874.87   876.30   878.51   884.07   886.91   891.55
eigval :      892.97   895.10   910.18   916.47   919.72   925.91
eigval :      925.93   927.81   929.33   929.37   929.95   932.28
eigval :      966.09   986.50  1005.18  1020.71  1046.10  1077.12
eigval :     1080.84  1083.37  1084.18  1107.20  1121.92  1124.08
eigval :     1125.39  1141.28  1145.28  1178.25  1180.67  1180.77
eigval :     1184.82  1187.07  1194.60  1195.28  1198.50  1216.52
eigval :     1226.33  1231.21  1237.51  1245.98  1272.10  1278.43
eigval :     1280.44  1282.13  1294.80  1314.47  1318.87  1320.46
eigval :     1327.01  1328.14  1331.62  1358.09  1369.37  1382.93
eigval :     1398.10  1417.72  1418.22  1434.31  1436.31  1440.16
eigval :     1443.62  1471.88  1475.85  1478.04  1487.26  1513.40
eigval :     1513.98  1521.38  1552.20  1577.12  1581.13  1581.15
eigval :     1592.65  1594.30  1598.64  1600.31  1615.38  3072.29
eigval :     3073.70  3075.38  3076.34  3076.76  3077.33  3077.83
eigval :     3080.07  3081.67  3083.40  3086.06  3086.33  3087.22
eigval :     3089.28  3090.25  3091.75  3093.06  3096.02  3097.82
eigval :     3098.47  3098.67  3099.81

   temp. (K)  partition function   enthalpy   heat capacity  entropy
                                   cal/mol     cal/K/mol   cal/K/mol   J/K/mol
 298.15  VIB  0.227E+13            16787.983    110.477    102.699
         ROT  0.597E+08              888.752      2.981     38.563
         INT  0.136E+21            17676.735    113.458    141.262
         TR   0.108E+29             1481.254      4.968     44.487
         TOT                       19157.9894   118.4257   185.7490   777.1738

       T/K    H(0)-H(T)+PV         H(T)/Eh          T*S/Eh         G(T)/Eh
   ------------------------------------------------------------------------
    298.15    0.305302E-01    0.488510E+00    0.882553E-01    0.400254E+00
   ------------------------------------------------------------------------

         :::::::::::::::::::::::::::::::::::::::::::::::::::::
         ::                  THERMODYNAMIC                  ::
         :::::::::::::::::::::::::::::::::::::::::::::::::::::
         :: total free energy         -97.437238413759 Eh   ::
         ::.................................................::
         :: total energy              -97.837492819952 Eh   ::
         :: zero point energy           0.457979546851 Eh   ::
         :: G(RRHO) w/o ZPVE           -0.057725140658 Eh   ::
         :: G(RRHO) contrib.            0.400254406193 Eh   ::
         :::::::::::::::::::::::::::::::::::::::::::::::::::::

           -------------------------------------------------
          | TOTAL ENERGY              -97.837492819952 Eh   |
          | TOTAL ENTHALPY            -97.348983073631 Eh   |
          | TOTAL FREE ENERGY         -97.437238413759 Eh   |
          | GRADIENT NORM               0.000064071815 Eh/α |
           -------------------------------------------------

 * finished run on 2025/08/23 at 01:09:17.948
