   * xtb version 6.7.1 (edcfbbe) compiled by 'albert@albert-system' on 2024-07-22

   ID    Z sym.   atoms
    1    6 C      1-4, 6-24, 26-38, 40-49
    2    7 N      5, 25, 39
    3    1 H      50-80

          program call               : xtb data2507/toluene/NIDPA-1/NIDPA-1_toluene_S0_crest.xyz --gfn 2 --gbsa toluene --ohess vtight --parallel 40 --molden --ceasefiles --namespace data2507/toluene/NIDPA-1/NIDPA-1_toluene_S0_finalOpt
      * Solvation model:               GBSA
        Solvent                        toluene
        Solvent mass                       9.2140E+01 g/mol
          :  Hamiltonian                  GFN2-xTB          :
 * total energy  :  -123.1847093 Eh     change       -0.9851817E-09 Eh
 * total energy  :  -123.1847503 Eh     change       -0.4101552E-04 Eh
 * total energy  :  -123.1847739 Eh     change       -0.2359011E-04 Eh
 * total energy  :  -123.1847855 Eh     change       -0.1161933E-04 Eh
 * total energy  :  -123.1848018 Eh     change       -0.1626860E-04 Eh
 * total energy  :  -123.1848120 Eh     change       -0.1016455E-04 Eh
 * total energy  :  -123.1848213 Eh     change       -0.9320616E-05 Eh
 * total energy  :  -123.1848307 Eh     change       -0.9444018E-05 Eh
 * total energy  :  -123.1848401 Eh     change       -0.9331574E-05 Eh
 * total energy  :  -123.1848484 Eh     change       -0.8306470E-05 Eh
 * total energy  :  -123.1848662 Eh     change       -0.2442288E-05 Eh
 * total energy  :  -123.1848678 Eh     change       -0.1609608E-05 Eh
 * total energy  :  -123.1848691 Eh     change       -0.1321681E-05 Eh
 * total energy  :  -123.1848698 Eh     change       -0.6790580E-06 Eh
 * total energy  :  -123.1848698 Eh     change       -0.2629342E-07 Eh
 * total energy  :  -123.1848702 Eh     change       -0.4209179E-06 Eh
 * total energy  :  -123.1848706 Eh     change       -0.4111431E-06 Eh
 * total energy  :  -123.1848709 Eh     change       -0.3094251E-06 Eh
 * total energy  :  -123.1848709 Eh     change       -0.9060457E-08 Eh
   *** GEOMETRY OPTIMIZATION CONVERGED AFTER 22 ITERATIONS ***

 final structure:
================
80
 xtb: 6.7.1 (edcfbbe)
C            8.39442236701128        2.66699428430811       -1.68171182432231
C            8.73802207430054        1.93241732166707       -0.55788246204625
C            7.84731155322531        1.02794925963883       -0.01294627927523
C            6.59363915432523        0.83680221817453       -0.59498768504316
N            5.68734976328436       -0.07752898430349       -0.04619077150696
C            6.14839677354926       -1.28586494033971        0.49099265791251
C            5.55643752648077       -1.82541466706840        1.63339761424757
C            6.01575312824141       -3.01741208850358        2.15944530079346
C            7.07361260861612       -3.68674465643589        1.56501409819719
C            7.66726927676047       -3.15410737675202        0.43199177881631
C            7.20899905212025       -1.96706482211831       -0.10670806047253
C            4.31737748119755        0.21156394542257       -0.05020820162084
C            3.87943844091676        1.53305302224497        0.17916372536704
C            2.54634737298538        1.82730047112661        0.18544106232909
C            1.56900230283488        0.83593438091938       -0.01946953072590
C            1.99830761520294       -0.51889592841819       -0.24670623711287
C            3.38295427446079       -0.77750824578901       -0.26322513308952
C            1.10244723390743       -1.60339676650404       -0.47531933352545
C           -0.25053834116942       -1.36449863457434       -0.44655738670921
C           -1.53725109200456       -2.02210494024798       -0.61042526887511
C           -1.86763283228010       -3.33360816693186       -0.90469673395486
C           -3.20633339615291       -3.68013117239247       -0.98102582084264
C           -4.19412020561544       -2.75119420106063       -0.70079861192862
C           -3.89671688672044       -1.42516656078866       -0.38019885199631
N           -4.93523065554980       -0.55398315613201        0.01107538294752
C           -6.11426426152524       -0.58392941002440       -0.75120219993856
C           -6.02097007434594       -0.52720285279363       -2.14158302261566
C           -7.16273325319797       -0.56567352078105       -2.91866099206396
C           -8.41117499813534       -0.65735563362199       -2.32466140082715
C           -8.50821801735993       -0.72435207288985       -0.94404024875856
C           -7.37134288212248       -0.69399488221443       -0.15881162546404
C           -4.89083939438550        0.04411419574982        1.27199770408669
C           -5.70192802242677        1.14512108151178        1.56222717849532
C           -5.63295099505987        1.76227638061073        2.79446443632493
C           -4.75125652893433        1.30808538625395        3.76216843343786
C           -3.94513522116674        0.21818398889386        3.48323390091764
C           -4.01470431902876       -0.41428268438876        2.25638751400229
C           -2.55816133006302       -1.03944479186046       -0.41162488770042
N           -1.94728702423430        0.19458056597153       -0.20111182670224
C           -2.10110785976660        1.56916315505514       -0.08992203060738
C           -3.22993195140614        2.36106838363287       -0.18632493617767
C           -3.08538488319964        3.73099151971442       -0.05350341699757
C           -1.83812947340525        4.30830944657339        0.15385182093678
C           -0.69434107051054        3.53328242365182        0.20082693762038
C           -0.80153498080968        2.15571194786282        0.06600331093302
C            0.17316687034914        1.08606760067565       -0.01473832114815
C           -0.60372580025708       -0.03572479367036       -0.19406530404789
C            6.25474182598122        1.57600721966950       -1.72888307533980
C            7.14887622664101        2.48523962033118       -2.26078370347333
H            9.09199596896023        3.37544119554876       -2.10273781845043
H            9.70464818415022        2.07123824106805       -0.09549486132026
H            8.11435163068348        0.46462327523596        0.86949733886521
H            4.73710218382954       -1.30232782009934        2.10485983921619
H            5.54931400258015       -3.42185745316526        3.04624079407502
H            7.43224297933368       -4.61617304364470        1.98137656181968
H            8.48864591304482       -3.67125842554594       -0.04272539683291
H            7.66835819289679       -1.55937827966923       -0.99565080933217
H            4.61243098403359        2.30606204256829        0.35780334931351
H            2.22223733472330        2.83981484889814        0.36847512836951
H            3.71584004234048       -1.79018921985787       -0.44270007406601
H            1.51555950496648       -2.58216584571438       -0.66778917599003
H           -1.09251190483880       -4.06638882394138       -1.06665102746176
H           -3.48858313442724       -4.69362549981859       -1.22273095767241
H           -5.23107593889484       -3.05417087893537       -0.70442634066829
H           -5.04700202144561       -0.45448740477550       -2.60424834663163
H           -7.07679653172731       -0.51732439071837       -3.99439610731182
H           -9.30237559255816       -0.68285132793797       -2.93353722940605
H           -9.47650595475203       -0.81238047397540       -0.47295324615685
H           -7.45031127964421       -0.76621935689686        0.91623306900394
H           -6.38239548933016        1.52185075545972        0.81221457628370
H           -6.26727148779507        2.61321479865986        2.99662607672860
H           -4.69488032728883        1.79789320474744        4.72252750958475
H           -3.25718262630135       -0.15231409477657        4.22968877025865
H           -3.39066867527260       -1.27494652473006        2.06506445226744
H           -4.19749147753325        1.92991317389334       -0.37674717643476
H           -3.95963428091516        4.36138260858740       -0.12140598848235
H           -1.76056808756518        5.38068957367640        0.25778929715736
H            0.27106385515844        3.99882504762084        0.32713908899486
H            5.28810146349606        1.43014231341374       -2.18900026020833
H            6.87338750483142        3.04958120336573       -3.14005459786726

          :  Hamiltonian                  GFN2-xTB          :
         :: gradient norm              0.000067702710 Eh/a0 ::
         :: HOMO-LUMO gap              1.894800424376 eV    ::
         :: SCC energy              -125.510371837517 Eh    ::
         :: -> dispersion             -0.119086722584 Eh    ::
         :: -> Gsolv                  -0.047617763630 Eh    ::
         :: repulsion energy           2.325500899576 Eh    ::

    * Orbital Energies and Occupations

         #    Occupation            Energy/Eh            Energy/eV
      -------------------------------------------------------------
         1        2.0000           -0.6862940             -18.6750
       ...           ...                  ...                  ...
       103        2.0000           -0.4123089             -11.2195
       104        2.0000           -0.4080831             -11.1045
       105        2.0000           -0.4070347             -11.0760
       106        2.0000           -0.4066382             -11.0652
       107        2.0000           -0.4058161             -11.0428
       108        2.0000           -0.4046629             -11.0114
       109        2.0000           -0.4035065             -10.9800
       110        2.0000           -0.4027745             -10.9601
       111        2.0000           -0.3898687             -10.6089
       112        2.0000           -0.3790175             -10.3136
       113        2.0000           -0.3703965             -10.0790
       114        2.0000           -0.3521007              -9.5811
       115        2.0000           -0.3454741              -9.4008 (HOMO)
       116                         -0.2758415              -7.5060 (LUMO)
       117                         -0.2399303              -6.5288
       118                         -0.2347914              -6.3890
       119                         -0.2307423              -6.2788
       120                         -0.2295373              -6.2460
       121                         -0.2270706              -6.1789
       122                         -0.2263773              -6.1600
       123                         -0.2248569              -6.1187
       124                         -0.2211606              -6.0181
       125                         -0.2208510              -6.0097
       126                         -0.2139536              -5.8220
       ...                                ...                  ...
       227                          0.7675733              20.8867
      -------------------------------------------------------------
                  HL-Gap            0.0696326 Eh            1.8948 eV

     #   Z          covCN         q      C6AA      α(0)
     1   6 C        2.919    -0.040    28.989     8.829
     2   6 C        2.919    -0.030    28.760     8.794
     3   6 C        2.922    -0.048    29.201     8.862
     4   6 C        2.923     0.066    26.524     8.446
     5   7 N        2.752    -0.080    22.799     7.092
     6   6 C        2.923     0.065    26.533     8.447
     7   6 C        2.922    -0.048    29.195     8.861
     8   6 C        2.919    -0.030    28.758     8.794
     9   6 C        2.919    -0.040    28.987     8.829
    10   6 C        2.919    -0.030    28.760     8.794
    11   6 C        2.922    -0.048    29.198     8.861
    12   6 C        2.918     0.063    26.598     8.457
    13   6 C        2.918    -0.045    29.122     8.849
    14   6 C        2.914    -0.037    28.927     8.819
    15   6 C        2.996     0.004    27.934     8.670
    16   6 C        2.982     0.004    27.937     8.670
    17   6 C        2.926    -0.057    29.412     8.894
    18   6 C        2.936    -0.041    29.011     8.834
    19   6 C        3.016    -0.014    28.351     8.734
    20   6 C        3.102    -0.013    28.200     8.702
    21   6 C        2.911    -0.039    28.957     8.824
    22   6 C        2.918    -0.039    28.963     8.825
    23   6 C        2.926    -0.049    29.223     8.865
    24   6 C        2.918     0.052    26.829     8.494
    25   7 N        2.750    -0.090    22.992     7.122
    26   6 C        2.925     0.066    26.529     8.447
    27   6 C        2.923    -0.047    29.177     8.858
    28   6 C        2.919    -0.030    28.742     8.792
    29   6 C        2.919    -0.038    28.949     8.823
    30   6 C        2.919    -0.030    28.752     8.793
    31   6 C        2.921    -0.048    29.189     8.860
    32   6 C        2.919     0.068    26.472     8.437
    33   6 C        2.923    -0.051    29.257     8.870
    34   6 C        2.920    -0.031    28.772     8.796
    35   6 C        2.918    -0.042    29.049     8.838
    36   6 C        2.920    -0.031    28.770     8.796
    37   6 C        2.922    -0.053    29.322     8.880
    38   6 C        3.072     0.041    27.012     8.522
    39   7 N        2.829    -0.037    21.955     6.959
    40   6 C        3.089     0.049    26.797     8.485
    41   6 C        2.909    -0.049    29.211     8.862
    42   6 C        2.923    -0.034    28.859     8.810
    43   6 C        2.918    -0.040    28.990     8.829
    44   6 C        2.912    -0.035    28.863     8.810
    45   6 C        3.119    -0.012    28.151     8.690
    46   6 C        3.020    -0.028    28.682     8.785
    47   6 C        3.447     0.036    22.448     7.176
    48   6 C        2.922    -0.048    29.203     8.862
    49   6 C        2.919    -0.030    28.760     8.794
    50   1 H        0.926     0.031     2.570     2.507
    51   1 H        0.926     0.033     2.550     2.497
    52   1 H        0.926     0.031     2.573     2.508
    53   1 H        0.926     0.031     2.570     2.507
    54   1 H        0.926     0.033     2.547     2.496
    55   1 H        0.926     0.031     2.567     2.505
    56   1 H        0.926     0.033     2.547     2.496
    57   1 H        0.926     0.031     2.571     2.507
    58   1 H        0.926     0.034     2.526     2.485
    59   1 H        0.926     0.039     2.463     2.454
    60   1 H        0.926     0.032     2.554     2.499
    61   1 H        0.926     0.037     2.492     2.468
    62   1 H        0.926     0.042     2.419     2.432
    63   1 H        0.926     0.039     2.456     2.451
    64   1 H        0.926     0.036     2.496     2.471
    65   1 H        0.926     0.029     2.596     2.519
    66   1 H        0.926     0.035     2.522     2.483
    67   1 H        0.926     0.033     2.537     2.491
    68   1 H        0.926     0.035     2.523     2.484
    69   1 H        0.926     0.033     2.538     2.491
    70   1 H        0.926     0.031     2.578     2.511
    71   1 H        0.926     0.032     2.563     2.503
    72   1 H        0.926     0.029     2.604     2.523
    73   1 H        0.926     0.029     2.605     2.524
    74   1 H        0.926     0.023     2.694     2.567
    75   1 H        0.926     0.037     2.490     2.468
    76   1 H        0.926     0.033     2.546     2.495
    77   1 H        0.926     0.032     2.556     2.500
    78   1 H        0.926     0.034     2.529     2.487
    79   1 H        0.926     0.031     2.572     2.508
    80   1 H        0.926     0.033     2.550     2.497

molecular dipole:
                 x           y           z       tot (Debye)
 q only:       -0.068      -0.184      -0.210
   full:       -0.183      -0.235      -0.183       0.889

 projected vibrational frequencies (cm⁻¹)
eigval :       -0.00    -0.00     0.00     0.00     0.00     0.00
eigval :       10.32    15.47    19.71    23.39    33.52    40.83
eigval :       51.02    53.93    56.72    61.89    70.11    76.42
eigval :       85.55    95.03   100.67   110.31   113.10   139.36
eigval :      149.98   152.77   184.85   204.02   217.48   232.09
eigval :      233.59   243.75   249.96   260.83   274.43   286.75
eigval :      292.04   313.78   320.78   330.90   368.17   376.25
eigval :      376.40   378.55   382.44   386.15   389.36   401.90
eigval :      410.10   418.33   436.68   444.80   454.51   479.60
eigval :      489.55   490.60   493.89   497.97   515.29   543.15
eigval :      552.62   564.44   570.27   582.18   584.00   588.45
eigval :      588.94   590.30   594.98   599.51   610.35   622.52
eigval :      633.60   654.84   656.91   659.76   664.64   666.61
eigval :      670.58   682.44   691.43   699.96   702.21   717.17
eigval :      718.95   752.46   756.37   758.21   759.83   770.41
eigval :      795.06   798.78   810.37   838.04   843.44   848.27
eigval :      864.38   867.36   872.28   874.08   874.42   877.43
eigval :      884.43   888.76   890.52   893.61   896.53   899.06
eigval :      906.88   908.14   912.91   914.58   916.65   920.22
eigval :      923.58   926.02   927.43   927.92   928.53   928.74
eigval :      929.20   931.67   937.20   969.50   974.26  1000.29
eigval :     1002.45  1005.46  1023.49  1075.19  1081.13  1081.76
eigval :     1082.65  1082.92  1087.85  1100.53  1114.74  1119.10
eigval :     1120.92  1122.97  1129.36  1148.52  1157.45  1166.40
eigval :     1177.79  1178.80  1178.86  1179.08  1179.32  1184.00
eigval :     1191.57  1192.37  1194.41  1198.60  1206.69  1212.05
eigval :     1222.08  1230.20  1244.51  1268.29  1274.81  1276.95
eigval :     1277.66  1280.31  1287.46  1299.18  1304.74  1311.80
eigval :     1314.01  1318.42  1319.12  1321.85  1325.02  1328.69
eigval :     1346.87  1353.19  1354.66  1370.64  1392.71  1403.76
eigval :     1414.66  1430.28  1433.26  1440.24  1441.22  1443.29
eigval :     1454.79  1469.84  1470.93  1473.18  1475.49  1479.35
eigval :     1485.01  1518.34  1563.27  1573.71  1574.44  1575.12
eigval :     1579.17  1580.42  1583.18  1591.14  1592.01  1592.80
eigval :     1596.22  1599.97  1601.88  1605.47  1635.80  3070.13
eigval :     3070.49  3070.83  3070.99  3071.09  3071.51  3071.89
eigval :     3072.47  3074.59  3074.72  3080.47  3080.86  3081.37
eigval :     3081.52  3081.90  3082.33  3083.36  3083.68  3083.91
eigval :     3084.12  3084.67  3085.29  3090.39  3092.66  3093.11
eigval :     3093.45  3093.93  3094.69  3100.59  3102.08  3133.66

   temp. (K)  partition function   enthalpy   heat capacity  entropy
                                   cal/mol     cal/K/mol   cal/K/mol   J/K/mol
 298.15  VIB  0.551E+17            22062.404    142.812    136.487
         ROT  0.844E+08              888.752      2.981     39.251
         INT  0.465E+25            22951.156    145.793    175.738
         TR   0.151E+29             1481.254      4.968     45.164
         TOT                       24432.4099   150.7612   220.9013   924.2511

       T/K    H(0)-H(T)+PV         H(T)/Eh          T*S/Eh         G(T)/Eh
   ------------------------------------------------------------------------
    298.15    0.389355E-01    0.656522E+00    0.104957E+00    0.551565E+00
   ------------------------------------------------------------------------

         :::::::::::::::::::::::::::::::::::::::::::::::::::::
         ::                  THERMODYNAMIC                  ::
         :::::::::::::::::::::::::::::::::::::::::::::::::::::
         :: total free energy        -122.633306172561 Eh   ::
         ::.................................................::
         :: total energy             -123.184870936303 Eh   ::
         :: zero point energy           0.617586583012 Eh   ::
         :: G(RRHO) w/o ZPVE           -0.066021819270 Eh   ::
         :: G(RRHO) contrib.            0.551564763742 Eh   ::
         :::::::::::::::::::::::::::::::::::::::::::::::::::::

           -------------------------------------------------
          | TOTAL ENERGY             -123.184870936303 Eh   |
          | TOTAL ENTHALPY           -122.528348829741 Eh   |
          | TOTAL FREE ENERGY        -122.633306172561 Eh   |
          | GRADIENT NORM               0.000067713373 Eh/α |
          | HOMO-LUMO GAP               1.894800223214 eV   |
           -------------------------------------------------

 * finished run on 2025/09/04 at 11:49:12.586
