   * xtb version 6.7.1 (edcfbbe) compiled by 'albert@albert-system' on 2024-07-22

   ID    Z sym.   atoms
    1    6 C      1-4, 6-24, 26-38, 40-49
    2    7 N      5, 25, 39
    3    1 H      50-80

          program call               : xtb data2507/toluene/NIDPA-1/NIDPA-1.xyz --gfn 2 --gbsa toluene --ohess vtight --parallel 40 --molden --ceasefiles --namespace data2507/toluene/NIDPA-1/NIDPA-1_toluene_S0_preOpt
      * Solvation model:               GBSA
        Solvent                        toluene
        Solvent mass                       9.2140E+01 g/mol
          :  Hamiltonian                  GFN2-xTB          :
 * total energy  :  -123.1451762 Eh     change       -0.2402658E-08 Eh
 * total energy  :  -123.1694887 Eh     change       -0.2431247E-01 Eh
 * total energy  :  -123.1784929 Eh     change       -0.9004254E-02 Eh
 * total energy  :  -123.1816397 Eh     change       -0.3146829E-02 Eh
 * total energy  :  -123.1831445 Eh     change       -0.1504724E-02 Eh
 * total energy  :  -123.1836995 Eh     change       -0.5550589E-03 Eh
 * total energy  :  -123.1839369 Eh     change       -0.2373286E-03 Eh
 * total energy  :  -123.1841014 Eh     change       -0.1645881E-03 Eh
 * total energy  :  -123.1842357 Eh     change       -0.1342844E-03 Eh
 * total energy  :  -123.1843414 Eh     change       -0.1056478E-03 Eh
 * total energy  :  -123.1848845 Eh     change       -0.5871164E-06 Eh
 * total energy  :  -123.1848850 Eh     change       -0.5097327E-06 Eh
 * total energy  :  -123.1848855 Eh     change       -0.5175495E-06 Eh
 * total energy  :  -123.1848861 Eh     change       -0.5651674E-06 Eh
 * total energy  :  -123.1848867 Eh     change       -0.6295338E-06 Eh
 * total energy  :  -123.1848873 Eh     change       -0.6476319E-06 Eh
 * total energy  :  -123.1848880 Eh     change       -0.6313389E-06 Eh
 * total energy  :  -123.1848886 Eh     change       -0.6254399E-06 Eh
 * total energy  :  -123.1848886 Eh     change       -0.2998490E-08 Eh
   *** GEOMETRY OPTIMIZATION CONVERGED AFTER 68 ITERATIONS ***

 final structure:
================
80
 xtb: 6.7.1 (edcfbbe)
C            7.08906286231230       -3.84887293844329       -0.80906841432126
C            6.03321231937863       -3.31794866951658       -1.53278885042338
C            5.55849637365632       -2.05129382792887       -1.25246564909242
C            6.13224521017873       -1.29466666278628       -0.23011260420719
N            5.65107253671778       -0.01166365503700        0.05774065090951
C            6.53341383469603        1.00305185815780        0.44370670015827
C            6.15630975703003        1.93989294885650        1.40675208165200
C            7.02741667613049        2.94553648367707        1.77941693674210
C            8.28763631770218        3.03034678872179        1.20990633208930
C            8.66880209034622        2.10074176032904        0.25530202775506
C            7.80114987291684        1.09786950381303       -0.13170745001831
C            4.27641169224745        0.24977130422943       -0.00917169384453
C            3.82202722505224        1.48628967525735       -0.51385873245131
C            2.48471481658307        1.74978286306665       -0.59271567499414
C            1.52009865058268        0.80843206111772       -0.18823838175011
C            1.96699429242854       -0.46026801886363        0.32396752108907
C            3.35498615630945       -0.68800841187966        0.40048306308402
C            1.08561586192215       -1.48198974619112        0.78212318832832
C           -0.27039142035966       -1.27187746583647        0.70789836996107
C           -1.54754403933423       -1.88916511766039        1.02791876846158
C           -1.86004930483199       -3.10485994953944        1.61119889634564
C           -3.19371936041400       -3.43454826247822        1.78647103668670
C           -4.19537748901540       -2.59766923678362        1.32420513710723
C           -3.91608675400239       -1.37528541993917        0.71052548656531
N           -4.97020780820196       -0.61883025513769        0.15387067645938
C           -4.96203222034731       -0.34315962706726       -1.21469357206601
C           -4.11338047927338       -1.03387844481560       -2.08075801683683
C           -4.07589321945987       -0.71946336511235       -3.42594219577010
C           -4.88837609974346        0.27574514913982       -3.94080904547358
C           -5.74169592082757        0.95946077125021       -3.08969958393943
C           -5.77813943682844        0.66141312775351       -1.74274419850136
C           -6.11861517669169       -0.45003274208004        0.94263308986403
C           -5.96883546433209       -0.08244491084808        2.27990004761099
C           -7.07825153166795        0.08192514370971        3.08663099654428
C           -8.35092912810883       -0.11437309954117        2.57525609832057
C           -8.50456434936297       -0.48950771003023        1.25027073085678
C           -7.40037341648075       -0.66355461800833        0.43745256322752
C           -2.58158386278187       -0.98371308845353        0.63010018215124
N           -1.98744080529656        0.17742014868303        0.14174673421970
C           -2.15898098220143        1.49330299067124       -0.26417973680737
C           -3.29789615854194        2.27309320116498       -0.33739817400696
C           -3.17169367822530        3.58232948680988       -0.76772840159795
C           -1.93246674685247        4.11548424671674       -1.10246246248682
C           -0.77881625278601        3.36254123916930       -0.98614169003917
C           -0.86771299273253        2.04661141732604       -0.55281026084140
C            0.12087683911106        1.03114289494997       -0.24852153556482
C           -0.64121332915088       -0.03498133066252        0.17223934392096
C            7.19100328302897       -1.83646655666735        0.49896055848049
C            7.66454865139983       -3.10101237358813        0.20550500917039
H            7.45981419547909       -4.83777632448003       -1.03372533639724
H            5.58031860455919       -3.89131268454269       -2.32880961417014
H            4.74019092530337       -1.63777091606828       -1.82395435515311
H            5.17870537217785        1.87026812018232        1.86161973519970
H            6.72234967980957        3.66279054205271        2.52770570327623
H            8.96725107258485        3.81485685636785        1.50731402529897
H            9.64700476501147        2.16238538408018       -0.19943407729155
H            8.09769931404894        0.38145327206398       -0.88412031514943
H            4.54596913839563        2.21676770011018       -0.84408748382469
H            2.14753358966163        2.69511629961080       -0.98813226561565
H            3.70144447138378       -1.63490212791954        0.79029553532995
H            1.51163289086766       -2.38975865744780        1.18228655536435
H           -1.07492180899445       -3.77733851059024        1.92000016391179
H           -3.46149550215252       -4.37040290663264        2.25306125206445
H           -5.22927608086527       -2.89760984625799        1.41473818361998
H           -3.48444673528943       -1.82593772458787       -1.70140784558805
H           -3.40891474174760       -1.26593630612228       -4.07728479035567
H           -4.85804972619768        0.51641059230676       -4.99276308897902
H           -6.38006238803689        1.74072664501658       -3.47632299737735
H           -6.43677841005639        1.21595573751492       -1.09015927115438
H           -4.97602673412213        0.07069703173389        2.67846477997386
H           -6.94750891111063        0.37082735703785        4.11931661776052
H           -9.21689536868153        0.01900928406456        3.20609499404546
H           -9.49234613395671       -0.65999491406402        0.84707070447815
H           -7.52517677789485       -0.97639774855205       -0.58899713069890
H           -4.25915725092955        1.88151886248023       -0.05310715264319
H           -4.05391946842538        4.20162224595860       -0.83490607646795
H           -1.86895676742438        5.14010836804172       -1.43855263176208
H            0.18001413804995        3.80041212239388       -1.21753325075492
H            7.63622350304878       -1.26015033026884        1.29705780420243
H            8.48395125361653       -3.50828798315793        0.78010972611200

          :  Hamiltonian                  GFN2-xTB          :
         :: gradient norm              0.000045282163 Eh/a0 ::
         :: HOMO-LUMO gap              1.891351017560 eV    ::
         :: SCC energy              -125.510417451641 Eh    ::
         :: -> dispersion             -0.118914079985 Eh    ::
         :: -> Gsolv                  -0.047667397550 Eh    ::
         :: repulsion energy           2.325528849501 Eh    ::

    * Orbital Energies and Occupations

         #    Occupation            Energy/Eh            Energy/eV
      -------------------------------------------------------------
         1        2.0000           -0.6865794             -18.6828
       ...           ...                  ...                  ...
       103        2.0000           -0.4125265             -11.2254
       104        2.0000           -0.4078252             -11.0975
       105        2.0000           -0.4071225             -11.0784
       106        2.0000           -0.4064712             -11.0606
       107        2.0000           -0.4057835             -11.0419
       108        2.0000           -0.4045814             -11.0092
       109        2.0000           -0.4034256             -10.9778
       110        2.0000           -0.4027910             -10.9605
       111        2.0000           -0.3901224             -10.6158
       112        2.0000           -0.3790745             -10.3151
       113        2.0000           -0.3704843             -10.0814
       114        2.0000           -0.3521483              -9.5824
       115        2.0000           -0.3456443              -9.4055 (HOMO)
       116                         -0.2761385              -7.5141 (LUMO)
       117                         -0.2402161              -6.5366
       118                         -0.2350070              -6.3949
       119                         -0.2305809              -6.2744
       120                         -0.2294028              -6.2424
       121                         -0.2271657              -6.1815
       122                         -0.2261392              -6.1536
       123                         -0.2247130              -6.1148
       124                         -0.2211843              -6.0187
       125                         -0.2207540              -6.0070
       126                         -0.2141561              -5.8275
       ...                                ...                  ...
       227                          0.7672581              20.8782
      -------------------------------------------------------------
                  HL-Gap            0.0695059 Eh            1.8914 eV

     #   Z          covCN         q      C6AA      α(0)
     1   6 C        2.919    -0.040    28.989     8.829
     2   6 C        2.919    -0.030    28.759     8.794
     3   6 C        2.922    -0.048    29.198     8.861
     4   6 C        2.923     0.065    26.533     8.447
     5   7 N        2.752    -0.080    22.804     7.092
     6   6 C        2.923     0.066    26.524     8.446
     7   6 C        2.922    -0.049    29.209     8.863
     8   6 C        2.919    -0.030    28.760     8.794
     9   6 C        2.919    -0.040    28.992     8.830
    10   6 C        2.919    -0.030    28.761     8.794
    11   6 C        2.922    -0.049    29.205     8.862
    12   6 C        2.918     0.063    26.597     8.457
    13   6 C        2.918    -0.045    29.114     8.848
    14   6 C        2.914    -0.037    28.925     8.819
    15   6 C        2.996     0.004    27.929     8.669
    16   6 C        2.982     0.004    27.935     8.670
    17   6 C        2.926    -0.056    29.400     8.892
    18   6 C        2.937    -0.041    29.007     8.833
    19   6 C        3.016    -0.014    28.348     8.734
    20   6 C        3.102    -0.013    28.199     8.702
    21   6 C        2.911    -0.038    28.949     8.823
    22   6 C        2.918    -0.039    28.962     8.825
    23   6 C        2.925    -0.049    29.211     8.863
    24   6 C        2.918     0.052    26.827     8.494
    25   7 N        2.750    -0.090    22.990     7.121
    26   6 C        2.919     0.068    26.474     8.438
    27   6 C        2.923    -0.053    29.327     8.881
    28   6 C        2.920    -0.031    28.770     8.796
    29   6 C        2.918    -0.042    29.050     8.839
    30   6 C        2.920    -0.031    28.773     8.796
    31   6 C        2.923    -0.051    29.261     8.871
    32   6 C        2.925     0.066    26.530     8.447
    33   6 C        2.924    -0.048    29.186     8.860
    34   6 C        2.919    -0.030    28.744     8.792
    35   6 C        2.919    -0.038    28.957     8.824
    36   6 C        2.919    -0.030    28.754     8.793
    37   6 C        2.921    -0.048    29.201     8.862
    38   6 C        3.072     0.041    27.006     8.521
    39   7 N        2.829    -0.037    21.952     6.959
    40   6 C        3.088     0.049    26.798     8.485
    41   6 C        2.909    -0.049    29.211     8.862
    42   6 C        2.923    -0.034    28.856     8.809
    43   6 C        2.918    -0.040    28.988     8.829
    44   6 C        2.912    -0.035    28.861     8.809
    45   6 C        3.119    -0.012    28.149     8.690
    46   6 C        3.020    -0.028    28.679     8.785
    47   6 C        3.446     0.036    22.466     7.181
    48   6 C        2.922    -0.048    29.202     8.862
    49   6 C        2.919    -0.030    28.761     8.794
    50   1 H        0.926     0.031     2.569     2.506
    51   1 H        0.926     0.033     2.548     2.496
    52   1 H        0.926     0.031     2.573     2.509
    53   1 H        0.926     0.031     2.577     2.510
    54   1 H        0.926     0.032     2.552     2.498
    55   1 H        0.926     0.031     2.573     2.508
    56   1 H        0.926     0.032     2.551     2.498
    57   1 H        0.926     0.031     2.572     2.508
    58   1 H        0.926     0.035     2.523     2.484
    59   1 H        0.926     0.039     2.459     2.452
    60   1 H        0.926     0.032     2.552     2.498
    61   1 H        0.926     0.037     2.488     2.467
    62   1 H        0.926     0.043     2.414     2.430
    63   1 H        0.926     0.040     2.452     2.448
    64   1 H        0.926     0.037     2.492     2.469
    65   1 H        0.926     0.023     2.694     2.567
    66   1 H        0.926     0.029     2.605     2.524
    67   1 H        0.926     0.029     2.605     2.524
    68   1 H        0.926     0.032     2.564     2.504
    69   1 H        0.926     0.031     2.575     2.509
    70   1 H        0.926     0.029     2.604     2.523
    71   1 H        0.926     0.034     2.528     2.486
    72   1 H        0.926     0.033     2.543     2.494
    73   1 H        0.926     0.034     2.527     2.486
    74   1 H        0.926     0.034     2.537     2.491
    75   1 H        0.926     0.037     2.486     2.466
    76   1 H        0.926     0.033     2.544     2.494
    77   1 H        0.926     0.032     2.555     2.499
    78   1 H        0.926     0.034     2.527     2.486
    79   1 H        0.926     0.031     2.571     2.507
    80   1 H        0.926     0.033     2.548     2.496

molecular dipole:
                 x           y           z       tot (Debye)
 q only:       -0.059      -0.133       0.245
   full:       -0.175      -0.189       0.239       0.892

 projected vibrational frequencies (cm⁻¹)
eigval :       -0.00    -0.00     0.00     0.00     0.00     0.00
eigval :        8.88    12.89    17.84    21.31    32.10    38.96
eigval :       49.52    52.46    54.47    61.81    69.69    75.32
eigval :       84.17    93.16    99.94   109.94   110.97   139.09
eigval :      148.23   153.29   182.56   203.69   216.49   229.65
eigval :      233.86   243.81   248.87   261.42   273.98   287.66
eigval :      290.94   313.15   321.07   331.30   367.23   375.11
eigval :      376.68   376.87   384.12   387.41   389.94   403.40
eigval :      409.90   418.72   437.10   444.92   454.23   477.72
eigval :      488.99   490.01   493.20   498.15   513.67   542.86
eigval :      552.45   563.84   569.94   582.27   583.88   588.37
eigval :      589.21   590.69   595.33   599.65   610.40   623.38
eigval :      633.74   654.56   656.24   659.10   664.41   666.92
eigval :      670.77   682.40   694.04   702.01   702.86   717.07
eigval :      718.86   753.00   753.23   758.76   760.49   767.09
eigval :      794.78   796.99   811.23   838.00   847.82   848.71
eigval :      864.68   868.98   871.26   874.44   875.72   878.97
eigval :      883.67   888.26   888.91   894.27   894.89   898.86
eigval :      907.10   908.16   912.43   913.05   913.29   917.19
eigval :      923.61   925.03   925.08   926.90   927.56   928.64
eigval :      932.34   932.98   941.06   969.55   974.19  1000.67
eigval :     1002.63  1005.37  1022.90  1074.86  1081.09  1081.77
eigval :     1082.55  1083.39  1087.65  1100.34  1114.11  1119.78
eigval :     1121.37  1123.51  1128.84  1148.35  1157.17  1166.03
eigval :     1178.07  1178.41  1179.88  1181.31  1182.20  1183.94
eigval :     1191.34  1193.67  1193.90  1198.60  1206.46  1212.30
eigval :     1221.91  1229.02  1244.25  1267.56  1274.61  1276.12
eigval :     1278.08  1280.08  1287.75  1299.37  1304.53  1312.60
eigval :     1314.34  1318.47  1319.45  1322.05  1325.06  1328.57
eigval :     1346.68  1352.91  1354.59  1370.31  1392.89  1403.65
eigval :     1414.44  1430.29  1433.45  1440.22  1441.26  1443.35
eigval :     1454.44  1469.96  1470.94  1473.14  1475.59  1479.17
eigval :     1484.55  1517.96  1563.31  1573.75  1574.32  1574.81
eigval :     1579.03  1580.24  1583.16  1591.16  1592.07  1592.82
eigval :     1596.46  1600.13  1602.05  1605.48  1635.57  3070.24
eigval :     3070.30  3070.71  3071.08  3071.15  3072.14  3072.27
eigval :     3073.58  3074.05  3074.39  3080.62  3080.88  3081.17
eigval :     3081.47  3081.80  3082.35  3083.14  3083.62  3084.04
eigval :     3084.11  3084.51  3085.34  3089.73  3092.56  3092.57
eigval :     3093.25  3093.94  3094.80  3100.39  3102.44  3133.26

   temp. (K)  partition function   enthalpy   heat capacity  entropy
                                   cal/mol     cal/K/mol   cal/K/mol   J/K/mol
 298.15  VIB  0.119E+18            22103.859    142.626    137.229
         ROT  0.846E+08              888.752      2.981     39.254
         INT  0.101E+26            22992.611    145.607    176.484
         TR   0.151E+29             1481.254      4.968     45.164
         TOT                       24473.8651   150.5754   221.6472   927.3720

       T/K    H(0)-H(T)+PV         H(T)/Eh          T*S/Eh         G(T)/Eh
   ------------------------------------------------------------------------
    298.15    0.390016E-01    0.656505E+00    0.105312E+00    0.551193E+00
   ------------------------------------------------------------------------

         :::::::::::::::::::::::::::::::::::::::::::::::::::::
         ::                  THERMODYNAMIC                  ::
         :::::::::::::::::::::::::::::::::::::::::::::::::::::
         :: total free energy        -122.633695406295 Eh   ::
         ::.................................................::
         :: total energy             -123.184888608780 Eh   ::
         :: zero point energy           0.617503370522 Eh   ::
         :: G(RRHO) w/o ZPVE           -0.066310168037 Eh   ::
         :: G(RRHO) contrib.            0.551193202485 Eh   ::
         :::::::::::::::::::::::::::::::::::::::::::::::::::::

           -------------------------------------------------
          | TOTAL ENERGY             -123.184888608780 Eh   |
          | TOTAL ENTHALPY           -122.528383651716 Eh   |
          | TOTAL FREE ENERGY        -122.633695406295 Eh   |
          | GRADIENT NORM               0.000045279119 Eh/α |
          | HOMO-LUMO GAP               1.891350898998 eV   |
           -------------------------------------------------

 * finished run on 2025/09/04 at 11:43:21.352
