   * xtb version 6.7.1 (edcfbbe) compiled by 'albert@albert-system' on 2024-07-22

   ID    Z sym.   atoms
    1    6 C      1-4, 6-24, 26-38, 40-49
    2    7 N      5, 25, 39
    3    1 H      50-80

          program call               : xtb data2507/toluene/NIDPA-1/NIDPA-1_toluene_T1_crest.xyz --gfn 2 --uhf 2 --gbsa toluene --ohess vtight --parallel 40 --molden --ceasefiles --namespace data2507/toluene/NIDPA-1/NIDPA-1_toluene_T1_finalOpt
      * Solvation model:               GBSA
        Solvent                        toluene
        Solvent mass                       9.2140E+01 g/mol
          :  Hamiltonian                  GFN2-xTB          :
 * total energy  :  -123.1098327 Eh     change       -0.1190350E-07 Eh
 * total energy  :  -123.1098788 Eh     change       -0.4612128E-04 Eh
 * total energy  :  -123.1099011 Eh     change       -0.2225716E-04 Eh
 * total energy  :  -123.1099118 Eh     change       -0.1072180E-04 Eh
 * total energy  :  -123.1099245 Eh     change       -0.1272100E-04 Eh
 * total energy  :  -123.1099344 Eh     change       -0.9802474E-05 Eh
 * total energy  :  -123.1099403 Eh     change       -0.5905271E-05 Eh
 * total energy  :  -123.1099453 Eh     change       -0.5020470E-05 Eh
 * total energy  :  -123.1099494 Eh     change       -0.4129215E-05 Eh
 * total energy  :  -123.1099525 Eh     change       -0.3121139E-05 Eh
 * total energy  :  -123.1099776 Eh     change       -0.3847681E-06 Eh
 * total energy  :  -123.1099780 Eh     change       -0.4025737E-06 Eh
 * total energy  :  -123.1099783 Eh     change       -0.3359964E-06 Eh
 * total energy  :  -123.1099785 Eh     change       -0.2440976E-06 Eh
 * total energy  :  -123.1099787 Eh     change       -0.1729389E-06 Eh
 * total energy  :  -123.1099789 Eh     change       -0.1858733E-06 Eh
 * total energy  :  -123.1099791 Eh     change       -0.2218300E-06 Eh
 * total energy  :  -123.1099794 Eh     change       -0.2376890E-06 Eh
 * total energy  :  -123.1099794 Eh     change       -0.1176303E-08 Eh
   *** GEOMETRY OPTIMIZATION CONVERGED AFTER 44 ITERATIONS ***

 final structure:
================
80
 xtb: 6.7.1 (edcfbbe)
C            6.99832956236796       -3.72129440810276       -1.50880668725847
C            5.94028082075050       -3.05031870852847       -2.10198455380636
C            5.50380313112784       -1.84286008094676       -1.59236184884640
C            6.12175628098641       -1.29258632833756       -0.46718669040557
N            5.68003148579560       -0.07386039079619        0.05714276406257
C            6.61655770427007        0.83796491891645        0.55957613315801
C            6.33486147145335        1.57759775226552        1.70906921951395
C            7.26348371764144        2.47396672963932        2.20108058556874
C            8.48185521734820        2.64460370557069        1.56149064205759
C            8.76736377151479        1.90926629206280        0.42178388972462
C            7.84461562457203        1.01198031153114       -0.08041282698576
C            4.32546111459798        0.23835242128687        0.05770252490550
C            3.89281491278998        1.55208679848004       -0.10852968706186
C            2.53379022455957        1.82683656435720       -0.11393450149292
C            1.57097448908458        0.83033276381182        0.05126802778608
C            1.99813938323035       -0.54222145869776        0.23955721985182
C            3.37930377619787       -0.78549021986232        0.23668278222446
C            1.11311434051683       -1.63665197252794        0.42782613442376
C           -0.27488016690140       -1.40121363449277        0.39867561682469
C           -1.53975979464056       -2.05785726179136        0.53796456488724
C           -1.89481577714628       -3.37816023112660        0.79909405556115
C           -3.23199220882184       -3.71305289925532        0.86402175468603
C           -4.22487505318775       -2.77023752058030        0.61411820910010
C           -3.91534626963639       -1.44002941576581        0.32619143580890
N           -4.95076646205926       -0.55732433064399       -0.04860319503669
C           -4.88700593375028        0.09424772192512       -1.27866678626674
C           -4.01582159861850       -0.34604387246777       -2.27745257677372
C           -3.92627520719214        0.33199614355236       -3.47738230993868
C           -4.70803827889323        1.44994245294912       -3.71648269537006
C           -5.58501964576132        1.88605831964209       -2.73619224346235
C           -5.67347369602134        1.22375572228422       -1.52886312790628
C           -6.12561635559348       -0.58741831743295        0.71407501213240
C           -6.02807691919178       -0.60401339951565        2.10617881446666
C           -7.16908453085012       -0.64552459863914        2.88347234110803
C           -8.42098764819142       -0.66982680595194        2.28927532667617
C           -8.52282243607318       -0.66411081781246        0.90715823852530
C           -7.38738289270045       -0.62818096171024        0.12056099937451
C           -2.57603456286687       -1.05808019248537        0.36711009035562
N           -1.95188204044196        0.16411744087302        0.20084509569543
C           -2.10413413331194        1.55311705848121        0.13978338291259
C           -3.22488305927612        2.33475838619401        0.27589518389875
C           -3.08427342264707        3.71947888544658        0.18902545764856
C           -1.83920511357420        4.29763236492745       -0.00870691866420
C           -0.69314211534461        3.52451016534419       -0.08736269894324
C           -0.79449788781196        2.13751426379940        0.00408598099514
C            0.16926136278207        1.07611603175986        0.05055262392526
C           -0.61404338933190       -0.07328829535583        0.19346225941695
C            7.18688578163347       -1.97234988321967        0.12684438737070
C            7.61902967735335       -3.17576977686727       -0.39520006870379
H            7.33791047960668       -4.66323058872784       -1.91207475645004
H            5.45639879993648       -3.46515744338471       -2.97390284156798
H            4.68980607005815       -1.31158278473741       -2.06315239531163
H            5.38997812516218        1.43528520698561        2.21227787443144
H            7.03720428223373        3.03782431739201        3.09398274063673
H            9.20434016308086        3.34637453373904        1.94969973562267
H            9.71190310464240        2.04082041348629       -0.08497542645550
H            8.06192803656982        0.44836672161181       -0.97582317745121
H            4.60891426233044        2.34552018399149       -0.25772058997246
H            2.20610829362541        2.84237595781934       -0.27217370467041
H            3.72768519606796       -1.79295424670138        0.41248024067965
H            1.52401948658587       -2.62309031424241        0.57599039754664
H           -1.12761961850237       -4.12379113766205        0.94403672231532
H           -3.52263982409575       -4.73271608817907        1.07066568957387
H           -5.26137218180525       -3.07282061095204        0.60484487417987
H           -3.41449843979672       -1.22815481357364       -2.11410891114375
H           -3.24395867137291       -0.02435507707331       -4.23550522011019
H           -4.63590796428943        1.97522745018431       -4.65667969690326
H           -6.19874857203231        2.75827602955861       -2.90786114822366
H           -6.34662170898268        1.58807503914861       -0.76641609146664
H           -5.05098845851859       -0.58390134278251        2.56734598856309
H           -7.07985181075849       -0.65357674010878        3.95986661296478
H           -9.31132579471242       -0.69933014007307        2.89905255825398
H           -9.49408812490057       -0.69955726048316        0.43566629530178
H           -7.47001291358220       -0.64834217283997       -0.95630300363071
H           -4.19198946214703        1.90076918259558        0.46387561475454
H           -3.95958678544801        4.34415751723956        0.28362404545143
H           -1.75928710186111        5.37301065389874       -0.07972347616281
H            0.27045285296082        3.99625096736220       -0.20456556248179
H            7.66069299262744       -1.55548317168329        1.00343458416392
H            8.43992799077629       -3.69592665089517        0.07581074683090

          :  Hamiltonian                  GFN2-xTB          :
         :: gradient norm              0.000027101785 Eh/a0 ::
         :: HOMO-LUMO gap              0.831343188444 eV    ::
         :: SCC energy              -125.420653318929 Eh    ::
         :: -> dispersion             -0.119296295425 Eh    ::
         :: -> Gsolv                  -0.049124515622 Eh    ::
         :: repulsion energy           2.310673955527 Eh    ::

    * Orbital Energies and Occupations

         #    Occupation            Energy/Eh            Energy/eV
      -------------------------------------------------------------
         1        2.0000           -0.6771447             -18.4260
       ...           ...                  ...                  ...
       104        2.0000           -0.4104513             -11.1689
       105        2.0000           -0.4097611             -11.1502
       106        2.0000           -0.4082434             -11.1089
       107        2.0000           -0.4065881             -11.0638
       108        2.0000           -0.4053365             -11.0298
       109        2.0000           -0.4034948             -10.9797
       110        2.0000           -0.4009286             -10.9098
       111        2.0000           -0.3803750             -10.3505
       112        2.0000           -0.3735544             -10.1649
       113        2.0000           -0.3623107              -9.8590
       114        1.9749           -0.3520915              -9.5809
       115        1.0251           -0.3451419              -9.3918
       116        1.0000           -0.2692439              -7.3265 (HOMO)
       117        0.0000           -0.2386927              -6.4952 (LUMO)
       118                         -0.2346460              -6.3850
       119                         -0.2332816              -6.3479
       120                         -0.2328912              -6.3373
       121                         -0.2297991              -6.2532
       122                         -0.2289127              -6.2290
       123                         -0.2280914              -6.2067
       124                         -0.2245262              -6.1097
       125                         -0.2223799              -6.0513
       126                         -0.2093723              -5.6973
       127                         -0.2011797              -5.4744
       ...                                ...                  ...
       227                          0.7736227              21.0513
      -------------------------------------------------------------
                  HL-Gap            0.0305511 Eh            0.8313 eV

     #   Z          covCN         q      C6AA      α(0)
     1   6 C        2.919    -0.032    28.810     8.802
     2   6 C        2.919    -0.027    28.677     8.782
     3   6 C        2.921    -0.041    29.014     8.833
     4   6 C        2.926     0.065    26.534     8.448
     5   7 N        2.754    -0.042    22.052     6.974
     6   6 C        2.926     0.065    26.540     8.448
     7   6 C        2.921    -0.041    29.007     8.832
     8   6 C        2.919    -0.027    28.679     8.782
     9   6 C        2.919    -0.032    28.807     8.802
    10   6 C        2.919    -0.027    28.682     8.782
    11   6 C        2.921    -0.043    29.058     8.840
    12   6 C        2.919     0.063    26.584     8.455
    13   6 C        2.914    -0.067    29.660     8.931
    14   6 C        2.915    -0.043    29.065     8.841
    15   6 C        2.987    -0.002    28.071     8.691
    16   6 C        2.973     0.004    27.923     8.668
    17   6 C        2.926    -0.061    29.529     8.911
    18   6 C        2.934    -0.068    29.689     8.936
    19   6 C        3.018    -0.036    28.870     8.814
    20   6 C        3.117    -0.024    28.425     8.733
    21   6 C        2.908    -0.045    29.127     8.850
    22   6 C        2.916    -0.042    29.035     8.836
    23   6 C        2.923    -0.064    29.596     8.921
    24   6 C        2.916     0.050    26.867     8.500
    25   7 N        2.751    -0.075    22.696     7.076
    26   6 C        2.919     0.070    26.442     8.432
    27   6 C        2.922    -0.050    29.230     8.866
    28   6 C        2.919    -0.029    28.733     8.790
    29   6 C        2.918    -0.039    28.965     8.826
    30   6 C        2.919    -0.030    28.744     8.792
    31   6 C        2.923    -0.048    29.188     8.860
    32   6 C        2.926     0.067    26.499     8.442
    33   6 C        2.923    -0.045    29.106     8.847
    34   6 C        2.919    -0.029    28.717     8.788
    35   6 C        2.919    -0.036    28.899     8.816
    36   6 C        2.919    -0.029    28.731     8.790
    37   6 C        2.921    -0.046    29.154     8.854
    38   6 C        3.078     0.029    27.263     8.560
    39   7 N        2.830    -0.030    21.825     6.938
    40   6 C        3.078     0.043    26.959     8.513
    41   6 C        2.908    -0.047    29.166     8.856
    42   6 C        2.922    -0.043    29.073     8.842
    43   6 C        2.916    -0.039    28.977     8.827
    44   6 C        2.911    -0.039    28.960     8.824
    45   6 C        3.103    -0.017    28.293     8.716
    46   6 C        3.018    -0.033    28.807     8.804
    47   6 C        3.439     0.041    22.507     7.209
    48   6 C        2.921    -0.043    29.064     8.841
    49   6 C        2.919    -0.027    28.685     8.783
    50   1 H        0.926     0.040     2.443     2.444
    51   1 H        0.926     0.041     2.437     2.441
    52   1 H        0.926     0.041     2.439     2.442
    53   1 H        0.926     0.040     2.443     2.444
    54   1 H        0.926     0.041     2.431     2.438
    55   1 H        0.926     0.041     2.439     2.442
    56   1 H        0.926     0.042     2.421     2.433
    57   1 H        0.926     0.040     2.451     2.448
    58   1 H        0.926     0.024     2.675     2.558
    59   1 H        0.926     0.028     2.614     2.528
    60   1 H        0.926     0.027     2.623     2.533
    61   1 H        0.926     0.015     2.816     2.624
    62   1 H        0.926     0.028     2.608     2.525
    63   1 H        0.926     0.028     2.621     2.532
    64   1 H        0.926     0.024     2.666     2.553
    65   1 H        0.926     0.027     2.622     2.532
    66   1 H        0.926     0.032     2.552     2.498
    67   1 H        0.926     0.033     2.542     2.493
    68   1 H        0.926     0.036     2.509     2.477
    69   1 H        0.926     0.034     2.529     2.487
    70   1 H        0.926     0.032     2.561     2.503
    71   1 H        0.926     0.037     2.488     2.466
    72   1 H        0.926     0.037     2.494     2.469
    73   1 H        0.926     0.038     2.480     2.462
    74   1 H        0.926     0.036     2.500     2.472
    75   1 H        0.926     0.032     2.562     2.503
    76   1 H        0.926     0.027     2.625     2.534
    77   1 H        0.926     0.028     2.622     2.532
    78   1 H        0.926     0.028     2.615     2.529
    79   1 H        0.926     0.040     2.450     2.448
    80   1 H        0.926     0.042     2.423     2.434

molecular dipole:
                 x           y           z       tot (Debye)
 q only:        1.652       0.013      -0.055
   full:        1.497      -0.019      -0.068       3.808

 projected vibrational frequencies (cm⁻¹)
eigval :       -0.00    -0.00     0.00     0.00     0.00     0.00
eigval :        7.31    14.26    20.44    24.64    34.54    38.48
eigval :       45.51    54.27    57.14    62.00    71.05    76.70
eigval :       85.23    94.97   100.14   110.12   113.45   141.03
eigval :      148.61   151.87   185.51   204.84   218.60   229.85
eigval :      233.70   243.12   244.31   254.87   276.23   284.39
eigval :      289.35   312.69   317.75   325.40   367.02   375.04
eigval :      377.11   377.37   381.30   383.96   387.09   399.70
eigval :      407.67   418.65   420.37   436.65   450.90   475.33
eigval :      485.06   488.13   490.43   503.28   507.41   537.78
eigval :      549.65   553.06   561.50   578.62   581.20   586.03
eigval :      586.87   588.04   592.13   596.47   611.31   614.91
eigval :      630.23   647.29   651.37   656.52   660.11   664.49
eigval :      667.13   673.70   679.47   683.23   693.23   699.79
eigval :      715.10   724.32   751.86   756.09   757.66   759.17
eigval :      760.02   779.31   788.26   798.48   804.25   834.69
eigval :      841.97   845.73   855.18   862.73   868.12   872.32
eigval :      872.94   875.21   883.63   889.87   895.79   897.70
eigval :      897.96   899.68   900.83   906.43   907.37   909.58
eigval :      917.68   923.33   925.80   927.52   928.42   930.09
eigval :      930.46   932.13   937.39   964.73   973.71   994.72
eigval :     1001.05  1002.13  1023.53  1064.98  1073.26  1079.95
eigval :     1080.13  1081.02  1085.15  1097.67  1105.38  1118.36
eigval :     1120.40  1122.63  1126.69  1136.42  1149.28  1165.66
eigval :     1171.72  1177.36  1177.44  1177.61  1178.55  1179.91
eigval :     1188.07  1191.41  1191.56  1192.20  1200.55  1210.82
eigval :     1220.89  1232.24  1240.36  1266.90  1270.71  1274.54
eigval :     1275.42  1276.53  1285.21  1294.61  1297.98  1307.57
eigval :     1315.71  1316.70  1318.61  1320.96  1323.81  1327.68
eigval :     1333.68  1339.24  1365.78  1366.22  1378.48  1389.76
eigval :     1398.71  1409.79  1430.72  1431.51  1437.36  1440.52
eigval :     1447.95  1454.95  1459.55  1460.66  1465.44  1466.97
eigval :     1468.47  1478.97  1497.41  1500.96  1512.35  1542.24
eigval :     1551.97  1567.90  1570.92  1572.39  1576.10  1580.71
eigval :     1583.21  1587.16  1587.74  1595.04  1601.28  3069.94
eigval :     3072.40  3072.84  3072.98  3073.16  3074.78  3076.06
eigval :     3078.20  3078.44  3079.31  3079.88  3082.12  3082.70
eigval :     3083.97  3084.28  3085.59  3086.06  3086.49  3087.12
eigval :     3087.26  3088.43  3090.80  3091.45  3091.71  3093.72
eigval :     3095.13  3095.83  3098.29  3098.43  3101.26  3128.07

   temp. (K)  partition function   enthalpy   heat capacity  entropy
                                   cal/mol     cal/K/mol   cal/K/mol   J/K/mol
 298.15  VIB  0.100E+18            22253.215    144.086    137.756
         ROT  0.842E+08              888.752      2.981     39.247
         INT  0.844E+25            23141.967    147.067    177.002
         TR   0.151E+29             1481.254      4.968     45.164
         TOT                       24623.2211   152.0353   222.1659   929.5423

       T/K    H(0)-H(T)+PV         H(T)/Eh          T*S/Eh         G(T)/Eh
   ------------------------------------------------------------------------
    298.15    0.392396E-01    0.653669E+00    0.105558E+00    0.548111E+00
   ------------------------------------------------------------------------

         :::::::::::::::::::::::::::::::::::::::::::::::::::::
         ::                  THERMODYNAMIC                  ::
         :::::::::::::::::::::::::::::::::::::::::::::::::::::
         :: total free energy        -122.561868597488 Eh   ::
         ::.................................................::
         :: total energy             -123.109979364102 Eh   ::
         :: zero point energy           0.614429376434 Eh   ::
         :: G(RRHO) w/o ZPVE           -0.066318609820 Eh   ::
         :: G(RRHO) contrib.            0.548110766614 Eh   ::
         :::::::::::::::::::::::::::::::::::::::::::::::::::::

           -------------------------------------------------
          | TOTAL ENERGY             -123.109979364102 Eh   |
          | TOTAL ENTHALPY           -122.456310387125 Eh   |
          | TOTAL FREE ENERGY        -122.561868597488 Eh   |
          | GRADIENT NORM               0.000027129876 Eh/α |
          | HOMO-LUMO GAP               0.831338709469 eV   |
           -------------------------------------------------

 * finished run on 2025/09/04 at 11:57:12.140
