   * xtb version 6.7.1 (edcfbbe) compiled by 'albert@albert-system' on 2024-07-22

   ID    Z sym.   atoms
    1    6 C      1-4, 6-24, 26-38, 40-49
    2    7 N      5, 25, 39
    3    1 H      50-80

          program call               : xtb data2507/toluene/NIDPA-1/NIDPA-1_toluene_S0_finalOpt.xtbopt.xyz --gfn 2 --uhf 2 --gbsa toluene --ohess vtight --parallel 40 --molden --ceasefiles --namespace data2507/toluene/NIDPA-1/NIDPA-1_toluene_T1_preOpt
      * Solvation model:               GBSA
        Solvent                        toluene
        Solvent mass                       9.2140E+01 g/mol
          :  Hamiltonian                  GFN2-xTB          :
 * total energy  :  -123.1061882 Eh     change       -0.1190959E-07 Eh
 * total energy  :  -123.1090412 Eh     change       -0.2853029E-02 Eh
 * total energy  :  -123.1098210 Eh     change       -0.7797439E-03 Eh
 * total energy  :  -123.1098745 Eh     change       -0.5354861E-04 Eh
 * total energy  :  -123.1099034 Eh     change       -0.2886003E-04 Eh
 * total energy  :  -123.1099170 Eh     change       -0.1359685E-04 Eh
 * total energy  :  -123.1099153 Eh     change        0.1629682E-05 Eh
 * total energy  :  -123.1099262 Eh     change       -0.1084024E-04 Eh
 * total energy  :  -123.1099389 Eh     change       -0.1274443E-04 Eh
 * total energy  :  -123.1099448 Eh     change       -0.5923297E-05 Eh
 * total energy  :  -123.1099822 Eh     change       -0.1970407E-06 Eh
 * total energy  :  -123.1099824 Eh     change       -0.2096663E-06 Eh
 * total energy  :  -123.1099826 Eh     change       -0.1519539E-06 Eh
 * total energy  :  -123.1099827 Eh     change       -0.1071480E-06 Eh
 * total energy  :  -123.1099828 Eh     change       -0.1193140E-06 Eh
 * total energy  :  -123.1099830 Eh     change       -0.1664689E-06 Eh
 * total energy  :  -123.1099831 Eh     change       -0.1689771E-06 Eh
 * total energy  :  -123.1099833 Eh     change       -0.1379404E-06 Eh
 * total energy  :  -123.1099834 Eh     change       -0.9691315E-07 Eh
   *** GEOMETRY OPTIMIZATION CONVERGED AFTER 39 ITERATIONS ***

 final structure:
================
80
 xtb: 6.7.1 (edcfbbe)
C            8.44679445765068        2.69589104352719       -1.59281907775685
C            8.75344607902761        1.95284990353770       -0.46364511466220
C            7.84309378029259        1.04674626059395        0.04531077430546
C            6.60631211256563        0.87142266580844       -0.57730384939685
N            5.68220154461152       -0.04968488158949       -0.06929718974757
C            6.13631898637808       -1.26960785798730        0.44087308847792
C            5.53161012043583       -1.83245270163815        1.56706403421242
C            5.98039713488105       -3.04071810960184        2.06388277461302
C            7.03786272363634       -3.70009927566802        1.45680652560268
C            7.64505718393445       -3.14240479071690        0.34176595378240
C            7.20037497687389       -1.93817520684490       -0.16770289812121
C            4.32570028189274        0.25465118301354       -0.05253826060173
C            3.88797507812497        1.56362529708601        0.13567156647952
C            2.52762902892408        1.83130773492405        0.15557070007871
C            1.56872198180273        0.83262773437807       -0.01871527386424
C            2.00125602731325       -0.53477494391473       -0.23048321792963
C            3.38356984963384       -0.77162134562523       -0.23811751734450
C            1.12033979944654       -1.62979688489438       -0.43375921401878
C           -0.26861515118083       -1.40074641670345       -0.39786114955860
C           -1.53075477620958       -2.05920075395563       -0.55226501354287
C           -1.88049692177653       -3.37499242298862       -0.84216490637414
C           -3.21620390716616       -3.71258915411223       -0.92128662111619
C           -4.21339047035596       -2.77773953366677       -0.65845218999114
C           -3.90921583999630       -1.45327071410047       -0.34098372321464
N           -4.95028469838529       -0.58097361831659        0.04377229565817
C           -6.11196164093215       -0.58531858407913       -0.73898042950344
C           -5.99071200573862       -0.56074148050838       -2.12913077437367
C           -7.11837372834924       -0.57312038379667       -2.92657274273427
C           -8.38035294065511       -0.60958333603264       -2.35475656558710
C           -8.50573877703939       -0.64651259052228       -0.97505215195021
C           -7.38382023811474       -0.63926967299575       -0.16850183087715
C           -4.90296576407920        0.03400291071194        1.29296274874341
C           -5.69080600454265        1.15714093930210        1.56632629063049
C           -5.61621136292011        1.78347549315804        2.79363293073465
C           -4.75259927543900        1.31680460325814        3.77170963261841
C           -3.97022562008562        0.20434141624111        3.50997786134693
C           -4.04550358871001       -0.43758069757770        2.28941835268547
C           -2.57096570822267       -1.06665798646508       -0.36452033648204
N           -1.95180975298261        0.15415589714580       -0.17156314206407
C           -2.10947879140150        1.54135948327263       -0.08722262240816
C           -3.23384691757587        2.32053675871331       -0.20679212518093
C           -3.09834878473968        3.70439201621929       -0.10004447487300
C           -1.85486237789910        4.28448831786672        0.10194919670102
C           -0.70571944268602        3.51470737016769        0.16674703760348
C           -0.80193558359159        2.12873130313255        0.05553687568080
C            0.16589138737953        1.07196000384366       -0.00807939900295
C           -0.61302881047692       -0.07825479165353       -0.16765511578680
C            6.30291475988777        1.61955927499163       -1.71580410901648
C            7.21931367167669        2.52464502531527       -2.21462497783033
H            9.15980852371335        3.40424664003433       -1.98653042179380
H            9.70503615033760        2.08509982872870        0.02956995391558
H            8.07692940450127        0.47720581255740        0.93276511503113
H            4.71835520080020       -1.30992852565603        2.04882481648816
H            5.50681904350120       -3.46520258301323        2.93682809589526
H            7.38744815885923       -4.64246748382401        1.85040959828164
H            8.46528105410893       -3.65359570757299       -0.14013495027266
H            7.66352895146545       -1.51204132772159       -1.04552340124383
H            4.60138530581850        2.35849052586831        0.29002349974024
H            2.19602602528122        2.84262824949602        0.33155889621484
H            3.73595800926224       -1.77478177528003       -0.42991534385596
H            1.53500968473721       -2.61175591373521       -0.60006608403940
H           -1.11021501641703       -4.11502265392211       -0.99901352251780
H           -3.50246916911564       -4.72860164435727       -1.15077001855313
H           -5.24931711249611       -3.08251488800942       -0.66286549983335
H           -5.00587242433342       -0.53087885601435       -2.57286308064246
H           -7.01056633797946       -0.54867016995286       -4.00100897450937
H           -9.26022945954855       -0.61595462637016       -2.98019265963531
H           -9.48507566553869       -0.69245929559343       -0.52151215676660
H           -7.48499799244150       -0.69187918478827        0.90568119680997
H           -6.35410480137751        1.54497324179090        0.80687287795270
H           -6.23054563052500        2.65156362715604        2.98319812044463
H           -4.69144522739003        1.81411581641126        4.72777629096890
H           -3.29848660301771       -0.17577000735391        4.26598923270703
H           -3.44410665757199       -1.31599968936443        2.10747787123622
H           -4.19988611104484        1.88570853393469       -0.39771761372013
H           -3.97643913877671        4.32690106081876       -0.18245043370808
H           -1.77881482821412        5.35906490367772        0.18788012195133
H            0.25631493007935        3.98844171897826        0.28860902999966
H            5.35070954583545        1.47702593555819       -2.20506408113350
H            6.97637725460620        3.09475510184366       -3.09913942101355

          :  Hamiltonian                  GFN2-xTB          :
         :: gradient norm              0.000028195038 Eh/a0 ::
         :: HOMO-LUMO gap              0.833328985903 eV    ::
         :: SCC energy              -125.420714845590 Eh    ::
         :: -> dispersion             -0.119198381858 Eh    ::
         :: -> Gsolv                  -0.049137057850 Eh    ::
         :: repulsion energy           2.310731465091 Eh    ::

    * Orbital Energies and Occupations

         #    Occupation            Energy/Eh            Energy/eV
      -------------------------------------------------------------
         1        2.0000           -0.6771815             -18.4270
       ...           ...                  ...                  ...
       104        2.0000           -0.4104579             -11.1691
       105        2.0000           -0.4097133             -11.1489
       106        2.0000           -0.4082221             -11.1083
       107        2.0000           -0.4066057             -11.0643
       108        2.0000           -0.4053986             -11.0315
       109        2.0000           -0.4035259             -10.9805
       110        2.0000           -0.4009781             -10.9112
       111        2.0000           -0.3803862             -10.3508
       112        2.0000           -0.3735144             -10.1638
       113        2.0000           -0.3623300              -9.8595
       114        1.9746           -0.3521746              -9.5832
       115        1.0254           -0.3452445              -9.3946
       116        1.0000           -0.2693198              -7.3286 (HOMO)
       117                         -0.2386955              -6.4952 (LUMO)
       118                         -0.2346511              -6.3852
       119                         -0.2332512              -6.3471
       120                         -0.2328785              -6.3369
       121                         -0.2297829              -6.2527
       122                         -0.2289022              -6.2287
       123                         -0.2280281              -6.2050
       124                         -0.2244797              -6.1084
       125                         -0.2224265              -6.0525
       126                         -0.2093793              -5.6975
       127                         -0.2012007              -5.4749
       ...                                ...                  ...
       227                          0.7735214              21.0486
      -------------------------------------------------------------
                  HL-Gap            0.0306242 Eh            0.8333 eV

     #   Z          covCN         q      C6AA      α(0)
     1   6 C        2.919    -0.032    28.808     8.802
     2   6 C        2.919    -0.027    28.682     8.782
     3   6 C        2.921    -0.043    29.059     8.840
     4   6 C        2.926     0.065    26.539     8.448
     5   7 N        2.754    -0.042    22.051     6.974
     6   6 C        2.926     0.065    26.534     8.447
     7   6 C        2.921    -0.041    29.014     8.833
     8   6 C        2.919    -0.027    28.677     8.781
     9   6 C        2.919    -0.032    28.810     8.802
    10   6 C        2.919    -0.027    28.685     8.783
    11   6 C        2.921    -0.043    29.065     8.841
    12   6 C        2.919     0.063    26.586     8.455
    13   6 C        2.914    -0.067    29.657     8.930
    14   6 C        2.915    -0.043    29.065     8.841
    15   6 C        2.987    -0.002    28.070     8.691
    16   6 C        2.973     0.004    27.922     8.668
    17   6 C        2.926    -0.061    29.526     8.911
    18   6 C        2.934    -0.068    29.687     8.936
    19   6 C        3.018    -0.036    28.869     8.814
    20   6 C        3.117    -0.024    28.425     8.733
    21   6 C        2.908    -0.045    29.125     8.849
    22   6 C        2.916    -0.042    29.035     8.836
    23   6 C        2.923    -0.064    29.592     8.921
    24   6 C        2.916     0.050    26.868     8.500
    25   7 N        2.751    -0.075    22.700     7.076
    26   6 C        2.925     0.067    26.499     8.442
    27   6 C        2.923    -0.045    29.107     8.847
    28   6 C        2.919    -0.029    28.717     8.788
    29   6 C        2.919    -0.036    28.900     8.816
    30   6 C        2.919    -0.029    28.731     8.790
    31   6 C        2.921    -0.047    29.156     8.855
    32   6 C        2.919     0.070    26.442     8.432
    33   6 C        2.922    -0.048    29.190     8.860
    34   6 C        2.919    -0.030    28.744     8.792
    35   6 C        2.918    -0.039    28.967     8.826
    36   6 C        2.919    -0.029    28.733     8.790
    37   6 C        2.922    -0.050    29.233     8.867
    38   6 C        3.078     0.029    27.261     8.560
    39   7 N        2.830    -0.030    21.826     6.939
    40   6 C        3.077     0.043    26.959     8.513
    41   6 C        2.908    -0.047    29.169     8.856
    42   6 C        2.922    -0.043    29.072     8.842
    43   6 C        2.916    -0.039    28.977     8.827
    44   6 C        2.911    -0.039    28.959     8.824
    45   6 C        3.103    -0.017    28.293     8.716
    46   6 C        3.018    -0.033    28.806     8.804
    47   6 C        3.439     0.041    22.513     7.211
    48   6 C        2.921    -0.041    29.008     8.832
    49   6 C        2.919    -0.027    28.679     8.782
    50   1 H        0.926     0.041     2.439     2.442
    51   1 H        0.926     0.042     2.421     2.433
    52   1 H        0.926     0.040     2.450     2.448
    53   1 H        0.926     0.041     2.440     2.443
    54   1 H        0.926     0.041     2.437     2.441
    55   1 H        0.926     0.040     2.443     2.444
    56   1 H        0.926     0.042     2.423     2.434
    57   1 H        0.926     0.040     2.450     2.447
    58   1 H        0.926     0.024     2.675     2.558
    59   1 H        0.926     0.028     2.613     2.528
    60   1 H        0.926     0.027     2.623     2.533
    61   1 H        0.926     0.015     2.815     2.624
    62   1 H        0.926     0.029     2.607     2.525
    63   1 H        0.926     0.028     2.620     2.531
    64   1 H        0.926     0.025     2.665     2.553
    65   1 H        0.926     0.032     2.563     2.504
    66   1 H        0.926     0.037     2.489     2.467
    67   1 H        0.926     0.037     2.494     2.470
    68   1 H        0.926     0.038     2.480     2.463
    69   1 H        0.926     0.036     2.500     2.472
    70   1 H        0.926     0.034     2.530     2.487
    71   1 H        0.926     0.035     2.510     2.477
    72   1 H        0.926     0.033     2.543     2.494
    73   1 H        0.926     0.032     2.552     2.498
    74   1 H        0.926     0.028     2.622     2.532
    75   1 H        0.926     0.032     2.560     2.502
    76   1 H        0.926     0.027     2.625     2.534
    77   1 H        0.926     0.028     2.622     2.532
    78   1 H        0.926     0.028     2.615     2.529
    79   1 H        0.926     0.040     2.444     2.445
    80   1 H        0.926     0.041     2.432     2.439

molecular dipole:
                 x           y           z       tot (Debye)
 q only:        1.663       0.021       0.036
   full:        1.506      -0.012       0.045       3.830

 projected vibrational frequencies (cm⁻¹)
eigval :       -0.00    -0.00    -0.00     0.00     0.00     0.00
eigval :        9.04    14.69    20.93    22.10    35.05    41.82
eigval :       45.88    54.31    57.56    62.08    70.96    76.78
eigval :       85.25    93.35   100.55   110.42   113.20   141.38
eigval :      148.20   151.81   185.60   204.92   218.81   229.77
eigval :      233.44   242.29   244.55   254.52   275.82   284.30
eigval :      290.50   312.58   316.85   324.87   366.72   374.17
eigval :      377.08   377.47   381.17   383.91   386.32   398.29
eigval :      407.38   418.20   419.72   436.63   451.03   475.31
eigval :      484.50   488.69   490.48   503.20   507.26   537.59
eigval :      549.54   551.96   561.14   578.62   581.17   585.97
eigval :      586.90   588.20   592.12   596.41   611.39   614.27
eigval :      630.23   646.61   651.35   655.87   660.23   664.56
eigval :      666.84   672.52   679.26   682.46   693.68   699.81
eigval :      715.04   723.28   751.81   755.63   757.65   758.93
eigval :      760.20   780.53   789.16   798.42   803.33   834.62
eigval :      841.94   845.41   856.07   863.63   867.97   872.30
eigval :      872.77   874.26   883.29   889.98   896.14   897.48
eigval :      898.00   900.89   901.59   906.64   907.46   909.55
eigval :      917.60   924.25   925.94   926.70   928.63   929.86
eigval :      930.02   931.82   938.28   964.72   973.62   994.66
eigval :     1001.37  1002.16  1023.49  1065.09  1073.34  1079.92
eigval :     1080.67  1080.94  1085.94  1097.52  1104.97  1120.18
eigval :     1120.28  1122.20  1128.08  1137.19  1149.41  1165.54
eigval :     1171.82  1177.75  1177.78  1177.84  1178.54  1180.23
eigval :     1187.85  1191.24  1192.03  1194.03  1201.66  1210.92
eigval :     1221.02  1232.12  1240.39  1267.33  1271.29  1274.70
eigval :     1275.48  1277.01  1285.48  1294.90  1298.14  1308.19
eigval :     1315.93  1316.75  1318.65  1320.94  1323.90  1327.69
eigval :     1333.62  1339.21  1365.71  1366.21  1378.47  1389.68
eigval :     1398.61  1409.66  1430.91  1431.45  1437.52  1440.67
eigval :     1447.65  1454.89  1459.54  1460.65  1465.40  1467.37
eigval :     1468.72  1478.71  1497.37  1500.87  1512.34  1542.09
eigval :     1551.86  1567.90  1570.99  1572.35  1576.01  1580.73
eigval :     1582.95  1586.98  1587.82  1595.16  1601.18  3069.95
eigval :     3072.84  3073.00  3073.35  3074.54  3075.16  3075.81
eigval :     3077.83  3078.33  3078.70  3079.74  3082.46  3083.03
eigval :     3084.04  3084.08  3085.15  3085.98  3086.35  3086.63
eigval :     3086.66  3087.91  3089.88  3090.98  3091.77  3092.88
eigval :     3095.39  3095.66  3098.05  3098.40  3101.48  3129.66

   temp. (K)  partition function   enthalpy   heat capacity  entropy
                                   cal/mol     cal/K/mol   cal/K/mol   J/K/mol
 298.15  VIB  0.786E+17            22253.667    144.176    137.619
         ROT  0.843E+08              888.752      2.981     39.249
         INT  0.663E+25            23142.419    147.157    176.868
         TR   0.151E+29             1481.254      4.968     45.164
         TOT                       24623.6729   152.1253   222.0319   928.9814

       T/K    H(0)-H(T)+PV         H(T)/Eh          T*S/Eh         G(T)/Eh
   ------------------------------------------------------------------------
    298.15    0.392403E-01    0.653679E+00    0.105495E+00    0.548184E+00
   ------------------------------------------------------------------------

         :::::::::::::::::::::::::::::::::::::::::::::::::::::
         ::                  THERMODYNAMIC                  ::
         :::::::::::::::::::::::::::::::::::::::::::::::::::::
         :: total free energy        -122.561799077066 Eh   ::
         ::.................................................::
         :: total energy             -123.109983379458 Eh   ::
         :: zero point energy           0.614438495350 Eh   ::
         :: G(RRHO) w/o ZPVE           -0.066254192958 Eh   ::
         :: G(RRHO) contrib.            0.548184302392 Eh   ::
         :::::::::::::::::::::::::::::::::::::::::::::::::::::

           -------------------------------------------------
          | TOTAL ENERGY             -123.109983379458 Eh   |
          | TOTAL ENTHALPY           -122.456304563509 Eh   |
          | TOTAL FREE ENERGY        -122.561799077066 Eh   |
          | GRADIENT NORM               0.000028731142 Eh/α |
          | HOMO-LUMO GAP               0.833327828073 eV   |
           -------------------------------------------------

 * finished run on 2025/09/04 at 11:49:20.154
