   * xtb version 6.7.1 (edcfbbe) compiled by 'albert@albert-system' on 2024-07-22

   ID    Z sym.   atoms
    1    8 O      1
    2   15 P      2
    3    6 C      3-20, 22-39, 41-46
    4    7 N      21, 40
    5    1 H      47-75

          program call               : xtb data2507/gas/3DCPO/3DCPO_gas_S0_finalOpt.xtbopt.xyz --gfn 2 --spinpol --tblite --uhf 2 --ohess vtight --parallel 40 --molden --ceasefiles --namespace data2507/gas/3DCPO/3DCPO_gas_T1_preOpt
 * total energy  :  -117.1517636 Eh     change       -0.7560175E-10 Eh
 * total energy  :  -117.1532261 Eh     change       -0.1462540E-02 Eh
 * total energy  :  -117.1535773 Eh     change       -0.3512090E-03 Eh
 * total energy  :  -117.1536266 Eh     change       -0.4933158E-04 Eh
 * total energy  :  -117.1536602 Eh     change       -0.3355141E-04 Eh
 * total energy  :  -117.1536810 Eh     change       -0.2083973E-04 Eh
 * total energy  :  -117.1537029 Eh     change       -0.2182120E-04 Eh
 * total energy  :  -117.1537239 Eh     change       -0.2104904E-04 Eh
 * total energy  :  -117.1537329 Eh     change       -0.8988705E-05 Eh
 * total energy  :  -117.1537393 Eh     change       -0.6436109E-05 Eh
 * total energy  :  -117.1537997 Eh     change       -0.1054119E-05 Eh
 * total energy  :  -117.1538012 Eh     change       -0.1492865E-05 Eh
 * total energy  :  -117.1538022 Eh     change       -0.9922465E-06 Eh
 * total energy  :  -117.1538031 Eh     change       -0.9270829E-06 Eh
 * total energy  :  -117.1538036 Eh     change       -0.4575311E-06 Eh
 * total energy  :  -117.1538040 Eh     change       -0.4290519E-06 Eh
 * total energy  :  -117.1538044 Eh     change       -0.3744659E-06 Eh
 * total energy  :  -117.1538046 Eh     change       -0.2707993E-06 Eh
 * total energy  :  -117.1538047 Eh     change       -0.8252252E-07 Eh
   *** GEOMETRY OPTIMIZATION CONVERGED AFTER 57 ITERATIONS ***

 final structure:
================
75
 xtb: 6.7.1 (edcfbbe)
O           -0.09541935024492        3.30484026301565       -1.81946856352056
P           -0.10495007095358        2.52825360602982       -0.57389355577270
C           -0.21138541198328        3.57468691342209        0.91821454801472
C           -0.82934357106257        3.17597354441591        2.09515638799346
C           -0.85112315946457        4.03275010739336        3.18147061109511
C           -0.25854716007582        5.28241544137870        3.09561731476531
C            0.35325723639635        5.68288624096070        1.91851864180092
C            0.37588041492432        4.82918837024125        0.83090519628611
C            1.37993408620137        1.51010127281098       -0.33444405920520
C            1.79390978743619        1.07054158064766        0.93462894068894
C            2.91353179491441        0.25611411890119        1.06487242121879
C            3.59715709829380       -0.10618492884440       -0.08262684476596
C            3.21169096482553        0.38056139987328       -1.37624153563321
C            2.07668519299330        1.18027556086220       -1.48465434807706
C            4.17227401225707       -0.11046468175030       -2.30346730570101
C            4.33179434002009        0.01441287655515       -3.68493774251650
C            5.39062450574390       -0.64929668310163       -4.29273418357850
C            6.27263875258214       -1.43284782603254       -3.56403379009546
C            6.13618810774716       -1.56648183992085       -2.17574251895868
C            5.10512388997843       -0.88525189756181       -1.56126936067187
N            4.73756918338902       -0.86753731506448       -0.22134095177220
C            5.40595370003656       -1.52216053655115        0.80709768074456
C            4.69238040766209       -2.28091587400623        1.74399009570641
C            5.36079552763906       -2.93110825693733        2.75824932316500
C            6.74330381955237       -2.83686629706102        2.86553026787553
C            7.45424752316692       -2.08169055890440        1.94044426900279
C            6.79941634075622       -1.43020423849914        0.91800869989193
C           -1.50426279624400        1.37234179822326       -0.44779761609830
C           -2.63371680260353        1.70427346584481       -1.19690606963502
C           -3.78027222990003        0.91920411530880       -1.15455615995054
C           -3.76435738017098       -0.19964738082350       -0.33862661888349
C           -2.60108255726784       -0.57375384818224        0.39248243287436
C           -1.46307720967670        0.22581596732542        0.33569716678907
C           -2.90992422943189       -1.79735736476377        1.06021443638618
C           -2.19735784767215       -2.63313521548865        1.91857869859107
C           -2.82993478607554       -3.75570260957072        2.42496720195073
C           -4.15162031358586       -4.05068951956040        2.10518974160629
C           -4.88215930548112       -3.23416644110391        1.24576356124606
C           -4.24837282653141       -2.12546393148708        0.71448099151301
N           -4.74530819034812       -1.14821940998667       -0.13036540444828
C           -6.02966248928073       -1.12336560531767       -0.67706101174002
C           -6.79986685867042        0.03938087156830       -0.60880613580017
C           -8.06988297931110        0.05742619054650       -1.14869387325068
C           -8.58919743140594       -1.07478080047587       -1.75972636455566
C           -7.82539044569371       -2.23091625588242       -1.82932368174950
C           -6.55344549116863       -2.26096513651631       -1.29429342147716
H           -1.30061577504362        2.20474026829809        2.15595061777799
H           -1.33436179270379        3.72602190752115        4.09820342696550
H           -0.27907283737909        5.94721536213817        3.94695165531833
H            0.80998346497956        6.65956136383559        1.85073371903141
H            0.83596703983137        5.12124537841166       -0.10240441837643
H            1.25860245971777        1.39405206341105        1.81378089096562
H            3.24666838862984       -0.06179440212589        2.04159005211615
H            1.73917214293565        1.56054059278427       -2.43702798880013
H            3.64352549326821        0.61115495974692       -4.26181664521658
H            5.52442735809970       -0.56122948981289       -5.36109785033947
H            7.07381305013578       -1.95249879708777       -4.06541826755357
H            6.81032649488682       -2.19926841763359       -1.61930579379956
H            3.62296993331298       -2.38199897494002        1.63631333216410
H            4.80532843891392       -3.52508497836836        3.46879890999875
H            7.26155692997756       -3.34677331834067        3.66251002363236
H            8.52726768574500       -1.99617882331559        2.02666344113234
H            7.34507496010960       -0.81286110405444        0.22056402062385
H           -2.59475901410005        2.58637780739637       -1.81740969496478
H           -4.64517534742093        1.17365691655333       -1.74778925845139
H           -0.56933886698689       -0.04694808250563        0.87579173939147
H           -1.17663199251206       -2.40300779861010        2.18253937310677
H           -2.29165469216411       -4.41381842177771        3.09146877280068
H           -4.62223914931554       -4.92334761880965        2.53086316226449
H           -5.91303070312615       -3.45807196515294        1.01789393175696
H           -6.40351135672777        0.90950373969527       -0.10740934167924
H           -8.66330194684243        0.95741322516813       -1.08637218367973
H           -9.58295994402850       -1.05600360355768       -2.17983015392971
H           -8.22224572463708       -3.11164663949214       -2.31189329910240
H           -5.94460453473098       -3.14902138010413       -1.37354051082659

 projected vibrational frequencies (cm⁻¹)
eigval :       -0.00    -0.00    -0.00     0.00     0.00     0.00
eigval :        4.47     9.98    10.15    21.14    26.74    35.41
eigval :       43.62    50.55    51.18    56.69    64.53    67.98
eigval :       83.13    91.59   104.88   114.38   122.33   133.56
eigval :      167.29   170.18   182.09   184.23   193.20   202.22
eigval :      225.56   237.52   246.80   255.33   257.87   287.51
eigval :      290.04   307.37   316.24   334.54   344.64   362.30
eigval :      362.98   370.92   376.36   379.80   385.75   396.26
eigval :      404.86   409.76   414.95   425.55   448.44   457.05
eigval :      460.27   467.59   486.69   523.82   527.94   534.40
eigval :      541.37   554.43   563.90   575.48   577.51   580.04
eigval :      586.02   586.14   595.27   606.95   619.69   639.06
eigval :      643.29   647.57   655.65   657.68   659.77   666.22
eigval :      678.18   688.67   698.34   720.04   740.26   742.64
eigval :      749.48   753.07   757.46   768.44   779.56   789.34
eigval :      801.15   806.74   818.99   836.61   837.60   839.91
eigval :      854.51   863.41   868.07   874.33   875.29   879.47
eigval :      884.03   888.15   896.14   898.92   900.27   902.97
eigval :      903.52   904.63   915.43   920.20   925.67   926.45
eigval :      927.71   929.10   932.24   933.08   972.47   974.65
eigval :      985.93  1005.73  1013.58  1055.61  1062.28  1065.00
eigval :     1072.33  1077.28  1077.94  1088.45  1104.40  1108.00
eigval :     1113.16  1116.78  1117.95  1118.15  1120.67  1122.41
eigval :     1157.21  1167.92  1173.24  1174.17  1177.76  1178.52
eigval :     1180.79  1191.24  1192.02  1195.43  1199.63  1208.81
eigval :     1221.82  1232.60  1237.64  1239.18  1252.84  1259.38
eigval :     1266.61  1271.46  1272.63  1281.28  1290.02  1316.64
eigval :     1321.69  1323.13  1328.20  1334.94  1354.55  1364.35
eigval :     1384.53  1387.09  1399.66  1404.23  1412.34  1416.52
eigval :     1421.89  1425.09  1425.91  1431.12  1436.60  1453.06
eigval :     1453.92  1454.80  1461.35  1467.27  1474.16  1485.68
eigval :     1502.08  1517.11  1520.58  1522.67  1531.30  1539.47
eigval :     1559.30  1577.92  1581.65  1583.42  3064.94  3072.36
eigval :     3075.71  3076.84  3078.99  3079.48  3081.47  3082.00
eigval :     3082.04  3082.42  3082.88  3085.50  3086.58  3086.73
eigval :     3087.78  3088.40  3089.64  3091.98  3092.57  3093.57
eigval :     3094.12  3095.81  3096.04  3096.73  3099.93  3100.78
eigval :     3103.06  3103.60  3104.78

   temp. (K)  partition function   enthalpy   heat capacity  entropy
                                   cal/mol     cal/K/mol   cal/K/mol   J/K/mol
 298.15  VIB  0.118E+19            22141.133    139.556    139.236
         ROT  0.848E+08              888.752      2.981     39.259
         INT  0.998E+26            23029.885    142.537    178.496
         TR   0.145E+29             1481.254      4.968     45.081
         TOT                       24511.1391   147.5047   223.5768   935.4452

       T/K    H(0)-H(T)+PV         H(T)/Eh          T*S/Eh         G(T)/Eh
   ------------------------------------------------------------------------
    298.15    0.390610E-01    0.603096E+00    0.106229E+00    0.496867E+00
   ------------------------------------------------------------------------

         :::::::::::::::::::::::::::::::::::::::::::::::::::::
         ::                  THERMODYNAMIC                  ::
         :::::::::::::::::::::::::::::::::::::::::::::::::::::
         :: total free energy        -116.656937567795 Eh   ::
         ::.................................................::
         :: total energy             -117.153804788566 Eh   ::
         :: zero point energy           0.564034775248 Eh   ::
         :: G(RRHO) w/o ZPVE           -0.067167554477 Eh   ::
         :: G(RRHO) contrib.            0.496867220770 Eh   ::
         :::::::::::::::::::::::::::::::::::::::::::::::::::::

           -------------------------------------------------
          | TOTAL ENERGY             -117.153804788566 Eh   |
          | TOTAL ENTHALPY           -116.550709026858 Eh   |
          | TOTAL FREE ENERGY        -116.656937567795 Eh   |
          | GRADIENT NORM               0.000159864169 Eh/α |
           -------------------------------------------------

 * finished run on 2025/07/18 at 00:38:51.211
