   * xtb version 6.7.1 (edcfbbe) compiled by 'albert@albert-system' on 2024-07-22

   ID    Z sym.   atoms
    1    8 O      1
    2   15 P      2
    3    6 C      3-20, 22-39, 41-46
    4    7 N      21, 40
    5    1 H      47-75

          program call               : xtb data2507/gas/3DCPO/3DCPO_gas_T1_crest.xyz --gfn 2 --spinpol --tblite --uhf 2 --ohess vtight --parallel 40 --molden --ceasefiles --namespace data2507/gas/3DCPO/3DCPO_gas_T1_finalOpt
 * total energy  :  -117.1539611 Eh     change        0.4104676E-07 Eh
 * total energy  :  -117.1539729 Eh     change       -0.1179395E-04 Eh
 * total energy  :  -117.1539980 Eh     change       -0.2505714E-04 Eh
 * total energy  :  -117.1540105 Eh     change       -0.1251245E-04 Eh
 * total energy  :  -117.1540512 Eh     change       -0.4066926E-04 Eh
 * total energy  :  -117.1541081 Eh     change       -0.5689740E-04 Eh
 * total energy  :  -117.1484969 Eh     change        0.5611196E-02 Eh
 * total energy  :  -117.1539795 Eh     change       -0.5482580E-02 Eh
 * total energy  :  -117.1541340 Eh     change       -0.1545794E-03 Eh
 * total energy  :  -117.1541868 Eh     change       -0.5271827E-04 Eh
 * total energy  :  -117.1544779 Eh     change       -0.4692761E-06 Eh
 * total energy  :  -117.1544784 Eh     change       -0.5719797E-06 Eh
 * total energy  :  -117.1544791 Eh     change       -0.6600037E-06 Eh
 * total energy  :  -117.1544799 Eh     change       -0.8219898E-06 Eh
 * total energy  :  -117.1544807 Eh     change       -0.7836717E-06 Eh
 * total energy  :  -117.1544814 Eh     change       -0.6530965E-06 Eh
 * total energy  :  -117.1544817 Eh     change       -0.3755814E-06 Eh
 * total energy  :  -117.1544821 Eh     change       -0.3270947E-06 Eh
 * total energy  :  -117.1544821 Eh     change       -0.3442489E-07 Eh
   *** GEOMETRY OPTIMIZATION CONVERGED AFTER 108 ITERATIONS ***

 final structure:
================
75
 xtb: 6.7.1 (edcfbbe)
O           -0.07020174832912        2.80148329877418       -2.58189640573419
P           -0.06206640038198        2.36455700756486       -1.17958951200061
C           -0.06209794822020        3.76010789804892       -0.00222266191990
C           -1.21330172322706        4.19528140601627        0.63464346173529
C           -1.16501272081498        5.31075391070788        1.45330943967688
C            0.02822220215831        5.99163158023105        1.62967250202178
C            1.17671422183287        5.56432078155644        0.98171634694619
C            1.13052262627755        4.45082605077700        0.16364651230964
C            1.38151233785216        1.36591394632433       -0.72674264826524
C            1.76238048767939        1.17426677936387        0.63506672139116
C            2.83604884576385        0.35604038550556        0.95312448611855
C            3.51528795470997       -0.27063836881288       -0.07422875131371
C            3.16311579189905       -0.04442416257821       -1.47694891712614
C            2.05218152637049        0.77042027494632       -1.76300303250272
C            4.09620232607081       -0.74146480666338       -2.25356905177041
C            4.26647385550075       -0.91324938402350       -3.64781040908652
C            5.28147044132027       -1.76209906414209       -4.09294220474655
C            6.10541946824994       -2.42445858284093       -3.21571928223014
C            5.95702624322922       -2.25562648665324       -1.80008262302815
C            4.98500783558358       -1.40320687209920       -1.36046180898859
N            4.61114819907669       -1.08858041135386       -0.04202726589082
C            5.25130328441227       -1.55558811335058        1.09939337158185
C            4.50711299511016       -2.05819637327622        2.17339056303531
C            5.14918296712507       -2.52203407629937        3.30162801420760
C            6.53495030710107       -2.49205201512504        3.38643365799906
C            7.27685072015936       -1.99134441872717        2.32469288768918
C            6.64808806359086       -1.52758280072391        1.18881290233477
C           -1.48228737121267        1.32036642928985       -0.74226766197356
C           -2.34419177219395        0.97415995707993       -1.78502743622506
C           -3.44306560320369        0.16654762602237       -1.57600536246192
C           -3.65579512593024       -0.31295901766419       -0.28867496605384
C           -2.79231969021010        0.04074410191796        0.77837547771099
C           -1.69547647392704        0.85493180857279        0.54815423726816
C           -3.32627637298905       -0.58152292802858        1.95801683128581
C           -2.92151092595424       -0.61763472625940        3.28570428743731
C           -3.67215817486034       -1.34926908869313        4.18521385351040
C           -4.80304935244759       -2.05031318819332        3.77307061743214
C           -5.22529042248624       -2.02945889505218        2.45639654427797
C           -4.48910598570798       -1.27701167032635        1.55337313639540
N           -4.67371111050217       -1.10421619404731        0.19462632304687
C           -5.72328980513083       -1.64377766664697       -0.56406356868483
C           -7.04157438103928       -1.47412659921337       -0.15107182448174
C           -8.07257087236757       -2.01072090514747       -0.89956152332975
C           -7.80036238664842       -2.70918729279328       -2.06435859476983
C           -6.48892725229976       -2.87443611116180       -2.47846730152828
C           -5.45026129492979       -2.34967325258985       -1.73214975881857
H           -2.14140859189926        3.65936719160520        0.48841317060587
H           -2.06044812504060        5.65075991971672        1.95344702110866
H            0.06271503775242        6.86090159395417        2.27018924091120
H            2.10497154213650        6.10079911458102        1.11502982007890
H            2.01384162549451        4.10252797693735       -0.35598711567280
H            1.23625407142307        1.70661897731952        1.41068328788033
H            3.13907474603790        0.23121097798503        1.98196675948620
H            1.74145437157210        0.95633315303493       -2.78023093273323
H            3.62431090404855       -0.39505842848461       -4.34049541867000
H            5.41762810532295       -1.90075028675301       -5.15574851480990
H            6.87837248242593       -3.08391795685442       -3.57595255301113
H            6.58900551818778       -2.81239852051560       -1.12638727737644
H            3.43221918136248       -2.11361313975868        2.09077063299416
H            4.56792758150250       -2.91945919792246        4.12049323831373
H            7.03237340216716       -2.85540203646693        4.27223265467363
H            8.35419506350297       -1.95537439004651        2.39011343226185
H            7.22158549102429       -1.10413624747663        0.37824679087255
H           -2.13283944258818        1.37437726734972       -2.76575259668070
H           -4.12071352788215       -0.07124517863210       -2.38193346501722
H           -1.03431328704952        1.13206531226529        1.35431801812907
H           -2.03634672137920       -0.08693792328204        3.60212557684180
H           -3.37675147520299       -1.38856473260896        5.22307890447131
H           -5.36068521527496       -2.62617970716034        4.49660220690945
H           -6.09222317342563       -2.59089097266379        2.14253489598115
H           -7.25014399486327       -0.90927274531085        0.74528130959824
H           -9.09386352818012       -1.87543174577550       -0.57589617584778
H           -8.60833407438846       -3.12332565993462       -2.64808977339016
H           -6.27230331089415       -3.42150118950502       -3.38387817708719
H           -4.42534760823269       -2.49480393080748       -2.03930333099467

 projected vibrational frequencies (cm⁻¹)
eigval :       -0.00    -0.00     0.00     0.00     0.00     0.00
eigval :       -0.51     7.59    13.26    22.39    29.57    31.99
eigval :       47.37    52.83    55.30    63.62    65.96    66.78
eigval :       83.56    91.91   101.63   113.93   122.84   133.26
eigval :      161.03   164.00   178.62   191.77   198.74   209.07
eigval :      227.03   240.35   243.77   254.15   267.96   277.33
eigval :      283.12   306.68   328.48   331.05   338.57   362.44
eigval :      363.74   375.88   380.02   381.61   389.39   394.77
eigval :      402.59   422.48   432.60   448.56   454.63   459.46
eigval :      471.26   488.82   490.32   513.61   530.32   536.89
eigval :      541.08   556.74   564.27   566.64   582.02   585.43
eigval :      588.07   590.60   598.00   611.64   628.46   631.94
eigval :      647.92   655.77   659.67   662.11   670.11   673.61
eigval :      691.97   702.37   703.35   707.34   719.25   728.95
eigval :      739.71   751.88   757.86   761.95   763.46   774.14
eigval :      809.14   810.25   816.87   826.27   854.09   859.88
eigval :      863.12   868.91   876.14   878.82   881.94   891.12
eigval :      894.46   897.24   898.82   900.56   903.36   907.72
eigval :      913.10   920.59   922.74   923.46   926.23   927.55
eigval :      933.19   933.29   933.86   943.03   974.47   977.51
eigval :      997.16  1016.26  1019.10  1061.40  1066.93  1069.95
eigval :     1075.11  1077.67  1080.03  1090.73  1113.20  1115.35
eigval :     1118.15  1118.85  1123.52  1127.20  1130.16  1146.86
eigval :     1161.89  1170.32  1176.06  1176.93  1179.71  1180.83
eigval :     1180.88  1181.21  1190.34  1198.49  1207.70  1220.69
eigval :     1230.53  1235.73  1248.64  1255.87  1266.25  1271.04
eigval :     1271.84  1275.93  1277.98  1299.76  1314.93  1318.17
eigval :     1320.13  1325.65  1332.24  1350.98  1358.63  1361.35
eigval :     1369.36  1378.49  1392.19  1399.84  1411.14  1423.15
eigval :     1425.43  1428.29  1435.55  1437.58  1452.26  1456.97
eigval :     1459.48  1478.93  1480.57  1481.70  1497.94  1511.12
eigval :     1536.95  1540.12  1555.84  1565.66  1577.92  1581.29
eigval :     1585.40  1587.76  1588.48  1592.74  3054.32  3062.12
eigval :     3073.34  3077.61  3078.78  3079.48  3080.03  3080.88
eigval :     3081.27  3081.85  3082.59  3083.63  3084.06  3085.33
eigval :     3089.63  3090.66  3091.62  3092.01  3092.33  3093.16
eigval :     3094.42  3095.57  3096.17  3097.48  3099.53  3101.07
eigval :     3102.34  3104.57  3110.58

   temp. (K)  partition function   enthalpy   heat capacity  entropy
                                   cal/mol     cal/K/mol   cal/K/mol   J/K/mol
 298.15  VIB  0.168E+17            21428.850    138.061    132.620
         ROT  0.854E+08              888.752      2.981     39.275
         INT  0.144E+25            22317.602    141.041    171.895
         TR   0.145E+29             1481.254      4.968     45.081
         TOT                       23798.8563   146.0096   216.9763   907.8288

       T/K    H(0)-H(T)+PV         H(T)/Eh          T*S/Eh         G(T)/Eh
   ------------------------------------------------------------------------
    298.15    0.379259E-01    0.604155E+00    0.103092E+00    0.501063E+00
   ------------------------------------------------------------------------

         :::::::::::::::::::::::::::::::::::::::::::::::::::::
         ::                  THERMODYNAMIC                  ::
         :::::::::::::::::::::::::::::::::::::::::::::::::::::
         :: total free energy        -116.653419498156 Eh   ::
         ::.................................................::
         :: total energy             -117.154482103486 Eh   ::
         :: zero point energy           0.566229150308 Eh   ::
         :: G(RRHO) w/o ZPVE           -0.065166544978 Eh   ::
         :: G(RRHO) contrib.            0.501062605330 Eh   ::
         :::::::::::::::::::::::::::::::::::::::::::::::::::::

           -------------------------------------------------
          | TOTAL ENERGY             -117.154482103486 Eh   |
          | TOTAL ENTHALPY           -116.550327061511 Eh   |
          | TOTAL FREE ENERGY        -116.653419498156 Eh   |
          | GRADIENT NORM               0.000136723183 Eh/α |
           -------------------------------------------------

 * finished run on 2025/07/18 at 00:50:39.781
