   * xtb version 6.7.1 (edcfbbe) compiled by 'albert@albert-system' on 2024-07-22

   ID    Z sym.   atoms
    1    8 O      1
    2   15 P      2
    3    6 C      3-20, 22-39, 41-46
    4    7 N      21, 40
    5    1 H      47-75

          program call               : xtb data2507/gas/3DCPO/3DCPO.xyz --gfn 2 --ohess vtight --parallel 40 --molden --ceasefiles --namespace data2507/gas/3DCPO/3DCPO_gas_S0_preOpt
          :  Hamiltonian                  GFN2-xTB          :
 * total energy  :  -117.2440847 Eh     change       -0.8481749E-09 Eh
 * total energy  :  -117.2596965 Eh     change       -0.1561183E-01 Eh
 * total energy  :  -117.2636373 Eh     change       -0.3940801E-02 Eh
 * total energy  :  -117.2643606 Eh     change       -0.7232187E-03 Eh
 * total energy  :  -117.2648627 Eh     change       -0.5021814E-03 Eh
 * total energy  :  -117.2650316 Eh     change       -0.1689140E-03 Eh
 * total energy  :  -117.2651523 Eh     change       -0.1206455E-03 Eh
 * total energy  :  -117.2652613 Eh     change       -0.1090389E-03 Eh
 * total energy  :  -117.2653616 Eh     change       -0.1003188E-03 Eh
 * total energy  :  -117.2654526 Eh     change       -0.9096332E-04 Eh
 * total energy  :  -117.2661415 Eh     change       -0.3251413E-06 Eh
 * total energy  :  -117.2661418 Eh     change       -0.2875899E-06 Eh
 * total energy  :  -117.2661421 Eh     change       -0.3655949E-06 Eh
 * total energy  :  -117.2661426 Eh     change       -0.4812441E-06 Eh
 * total energy  :  -117.2661433 Eh     change       -0.7044254E-06 Eh
 * total energy  :  -117.2661443 Eh     change       -0.9387761E-06 Eh
 * total energy  :  -117.2661453 Eh     change       -0.1060709E-05 Eh
 * total energy  :  -117.2661464 Eh     change       -0.1108365E-05 Eh
 * total energy  :  -117.2661464 Eh     change       -0.7328111E-08 Eh
   *** GEOMETRY OPTIMIZATION CONVERGED AFTER 94 ITERATIONS ***

 final structure:
================
75
 xtb: 6.7.1 (edcfbbe)
O            0.22920820663830        2.77676884202414       -2.44076972768551
P            0.12816206928857        2.31015548476827       -1.05251006351422
C            0.16763878953847        3.67152521223982        0.16224857198859
C           -0.35210854456487        4.88756502229744       -0.25876925881927
C           -0.37627767933851        5.96849168270127        0.60351299543561
C            0.12139279656729        5.83426036028953        1.88968141481904
C            0.64759866037883        4.62294167694597        2.30909644671788
C            0.67255095469947        3.53981590437336        1.44832943998045
C            1.47581921105752        1.18707691893210       -0.57239706233236
C            1.34584321550221        0.23963355813390        0.44627345697990
C            2.39447408610962       -0.58931272076404        0.78875472995780
C            3.58578519329010       -0.46093197004071        0.08503216892150
C            3.73179333546141        0.50969087620771       -0.93608619632875
C            2.66581151585204        1.33078033223754       -1.26570028866711
C            5.08049692474345        0.39618271259712       -1.41622096765574
C            5.79974476112087        1.05555401403348       -2.40419877442737
C            7.10747034503231        0.67652789530615       -2.63103235770738
C            7.69269656238676       -0.35401795244918       -1.89822709608620
C            6.99664009519371       -1.02411807008735       -0.91030825002574
C            5.68942186612471       -0.63175623664440       -0.66153965862053
N            4.77339337682222       -1.14032681249971        0.24071690569698
C            5.01157984262072       -2.18203272149623        1.15001678451743
C            4.14425247952450       -3.26870335345620        1.21082867971216
C            4.38205078068252       -4.29116308094371        2.11060630704686
C            5.48603667302495       -4.24457680610246        2.94562271236414
C            6.35253214587388       -3.16594832293609        2.88247141755364
C            6.11749428450902       -2.13355060735173        1.99332830270004
C           -1.41536656133957        1.41255406797498       -0.70326935975730
C           -2.00492703246970        1.37757627690017        0.56281823686304
C           -3.17445611322369        0.68033071676509        0.78718794645311
C           -3.75516683415648        0.01584212321583       -0.28601324555191
C           -3.15149303319492        0.02649561685666       -1.56727931872314
C           -1.97919153092603        0.73580182947680       -1.77180648529951
C           -3.98197912429105       -0.78211303718449       -2.41531157812460
C           -3.92064872427510       -1.13116880500335       -3.75794181212176
C           -4.92097812181141       -1.92751921056608       -4.27803195082707
C           -5.97860041409716       -2.36203991523877       -3.48169608514544
C           -6.06020142320043       -2.02815511243496       -2.14327412366478
C           -5.04543418706414       -1.24734740819109       -1.60921586672332
N           -4.89457895062791       -0.75642936158179       -0.32555088891939
C           -5.76742538992921       -0.98862620788343        0.74827218900092
C           -6.13817500040509       -2.28850575153222        1.07896464722019
C           -7.00454381596133       -2.51133868369891        2.13325580331735
C           -7.49790497302890       -1.44685160065264        2.86924687107836
C           -7.12540060315121       -0.15306157316977        2.54420524745363
C           -6.26762789537606        0.08061034290411        1.48538810709860
H           -0.72276412198580        4.96832801252370       -1.27073949114611
H           -0.78032106994183        6.91516750284556        0.27541657460944
H            0.10501793617442        6.67667363803321        2.56590896656839
H            1.04220466330306        4.52334644744128        3.31028155126583
H            1.09233795745709        2.59666248562599        1.76946558302827
H            0.40240481303005        0.14975736725565        0.96572164858493
H            2.29114600646922       -1.31069616464603        1.58578375863960
H            2.73772786306457        2.06989957886753       -2.04973855848047
H            5.33804805378876        1.84209438046563       -2.98105640428119
H            7.68687066313458        1.17644690092639       -3.39272378197879
H            8.71294157035861       -0.63857823146392       -2.10944765863100
H            7.45353309243032       -1.83312643601777       -0.36044133858747
H            3.29743011961572       -3.31177850149627        0.54217219824500
H            3.70643640849869       -5.13261831288884        2.15334267346483
H            5.67094923010700       -5.04710274457066        3.64351473955240
H            7.21240692859814       -3.12393379807096        3.53446119577126
H            6.77864199060171       -1.28066538500998        1.95520871685035
H           -1.54092956388628        1.91643768753559        1.37675972766388
H           -3.61922108592353        0.64899782380131        1.77080935794567
H           -1.50246008417987        0.78072470735168       -2.73986476449389
H           -3.10881145363704       -0.77933209592810       -4.37577839737933
H           -4.89327243253623       -2.21289968017560       -5.31899582229339
H           -6.75495335999858       -2.97078417018384       -3.92123465130968
H           -6.89295990578048       -2.35520828450275       -1.53899544682574
H           -5.73488536490607       -3.11655046439630        0.51528120699083
H           -7.28972477225467       -3.52186711889397        2.38582917390760
H           -8.17150955484209       -1.62501786227071        3.69374426652016
H           -7.51159408812283        0.68015281245335        3.11243196642224
H           -5.99209165823409        1.08888676011874        1.21417004323226

          :  Hamiltonian                  GFN2-xTB          :
         :: gradient norm              0.000064777482 Eh/a0 ::
         :: HOMO-LUMO gap              3.141342430998 eV    ::
         :: SCC energy              -119.435092979326 Eh    ::
         :: -> dispersion             -0.106117554250 Eh    ::
         :: repulsion energy           2.168946544577 Eh    ::

    * Orbital Energies and Occupations

         #    Occupation            Energy/Eh            Energy/eV
      -------------------------------------------------------------
         1        2.0000           -0.6799809             -18.5032
       ...           ...                  ...                  ...
        97        2.0000           -0.4168693             -11.3436
        98        2.0000           -0.4154044             -11.3037
        99        2.0000           -0.4149232             -11.2906
       100        2.0000           -0.4110473             -11.1852
       101        2.0000           -0.4093106             -11.1379
       102        2.0000           -0.4081165             -11.1054
       103        2.0000           -0.4058020             -11.0424
       104        2.0000           -0.3927901             -10.6884
       105        2.0000           -0.3917623             -10.6604
       106        2.0000           -0.3814209             -10.3790
       107        2.0000           -0.3810935             -10.3701
       108        2.0000           -0.3661841              -9.9644
       109        2.0000           -0.3650511              -9.9335 (HOMO)
       110                         -0.2496089              -6.7922 (LUMO)
       111                         -0.2491294              -6.7792
       112                         -0.2409072              -6.5554
       113                         -0.2392453              -6.5102
       114                         -0.2370121              -6.4494
       115                         -0.2364103              -6.4331
       116                         -0.2361582              -6.4262
       117                         -0.2323002              -6.3212
       118                         -0.2270378              -6.1780
       119                         -0.2260629              -6.1515
       120                         -0.2016219              -5.4864
       ...                                ...                  ...
       218                          1.2002333              32.6600
      -------------------------------------------------------------
                  HL-Gap            0.1154422 Eh            3.1413 eV

     #   Z          covCN         q      C6AA      α(0)
     1   8 O        0.808    -0.356    20.839     6.119
     2  15 P        4.100     0.048   158.119    22.588
     3   6 C        2.920     0.015    27.669     8.626
     4   6 C        3.032    -0.019    28.460     8.750
     5   6 C        2.919    -0.027    28.687     8.783
     6   6 C        2.920    -0.026    28.661     8.779
     7   6 C        2.920    -0.029    28.723     8.789
     8   6 C        2.969    -0.027    28.665     8.782
     9   6 C        2.920     0.003    27.953     8.670
    10   6 C        2.976    -0.032    28.794     8.802
    11   6 C        2.909    -0.051    29.277     8.872
    12   6 C        3.075     0.049    26.819     8.491
    13   6 C        3.068    -0.016    28.332     8.728
    14   6 C        3.032    -0.023    28.550     8.764
    15   6 C        3.067    -0.015    28.309     8.725
    16   6 C        2.912    -0.031    28.771     8.796
    17   6 C        2.920    -0.039    28.972     8.827
    18   6 C        2.924    -0.032    28.806     8.802
    19   6 C        2.910    -0.050    29.244     8.867
    20   6 C        3.077     0.047    26.862     8.497
    21   7 N        2.803    -0.042    22.043     6.973
    22   6 C        2.913     0.065    26.549     8.449
    23   6 C        2.922    -0.042    29.037     8.837
    24   6 C        2.920    -0.028    28.688     8.783
    25   6 C        2.919    -0.033    28.811     8.802
    26   6 C        2.920    -0.028    28.690     8.784
    27   6 C        2.922    -0.042    29.036     8.837
    28   6 C        2.920     0.003    27.955     8.670
    29   6 C        2.975    -0.032    28.793     8.802
    30   6 C        2.909    -0.051    29.276     8.872
    31   6 C        3.075     0.049    26.819     8.491
    32   6 C        3.068    -0.016    28.332     8.728
    33   6 C        3.033    -0.023    28.546     8.764
    34   6 C        3.067    -0.015    28.311     8.725
    35   6 C        2.912    -0.031    28.772     8.796
    36   6 C        2.920    -0.039    28.974     8.827
    37   6 C        2.924    -0.032    28.807     8.802
    38   6 C        2.910    -0.050    29.245     8.868
    39   6 C        3.077     0.047    26.862     8.497
    40   7 N        2.803    -0.042    22.044     6.973
    41   6 C        2.913     0.065    26.550     8.449
    42   6 C        2.922    -0.042    29.037     8.837
    43   6 C        2.920    -0.028    28.691     8.784
    44   6 C        2.919    -0.032    28.810     8.802
    45   6 C        2.920    -0.027    28.687     8.783
    46   6 C        2.922    -0.042    29.034     8.836
    47   1 H        0.926     0.059     2.211     2.325
    48   1 H        0.926     0.037     2.491     2.468
    49   1 H        0.926     0.034     2.524     2.484
    50   1 H        0.926     0.032     2.551     2.498
    51   1 H        0.926     0.037     2.492     2.469
    52   1 H        0.926     0.037     2.491     2.468
    53   1 H        0.926     0.030     2.581     2.512
    54   1 H        0.926     0.061     2.186     2.312
    55   1 H        0.926     0.038     2.479     2.462
    56   1 H        0.926     0.031     2.568     2.506
    57   1 H        0.926     0.031     2.573     2.508
    58   1 H        0.926     0.028     2.608     2.525
    59   1 H        0.926     0.041     2.435     2.440
    60   1 H        0.926     0.037     2.489     2.467
    61   1 H        0.926     0.036     2.500     2.472
    62   1 H        0.926     0.037     2.485     2.465
    63   1 H        0.926     0.042     2.428     2.437
    64   1 H        0.926     0.036     2.508     2.477
    65   1 H        0.926     0.031     2.579     2.511
    66   1 H        0.926     0.060     2.194     2.316
    67   1 H        0.926     0.038     2.480     2.463
    68   1 H        0.926     0.031     2.569     2.506
    69   1 H        0.926     0.031     2.573     2.509
    70   1 H        0.926     0.028     2.608     2.525
    71   1 H        0.926     0.041     2.431     2.438
    72   1 H        0.926     0.037     2.486     2.466
    73   1 H        0.926     0.036     2.498     2.472
    74   1 H        0.926     0.037     2.485     2.465
    75   1 H        0.926     0.041     2.434     2.440

molecular dipole:
                 x           y           z       tot (Debye)
 q only:       -0.278      -1.183       1.821
   full:       -0.343      -1.323       2.240       6.670

 projected vibrational frequencies (cm⁻¹)
eigval :       -0.00    -0.00    -0.00    -0.00     0.00     0.00
eigval :        6.94     8.32    11.20    19.92    26.10    35.63
eigval :       46.21    53.73    55.87    62.45    64.05    68.25
eigval :       84.39    90.90   102.69   108.39   128.67   131.28
eigval :      167.11   177.11   184.47   186.01   196.99   211.41
eigval :      229.81   233.74   260.43   263.25   286.90   297.47
eigval :      300.14   315.90   327.92   336.99   362.52   365.65
eigval :      380.38   380.50   391.19   394.09   400.44   404.44
eigval :      422.26   425.58   430.76   455.37   461.09   471.21
eigval :      475.49   495.20   500.96   535.91   535.96   551.43
eigval :      559.11   568.77   574.93   586.00   587.30   589.68
eigval :      591.93   594.10   611.31   612.43   638.51   653.81
eigval :      660.13   670.93   671.50   675.71   677.32   701.98
eigval :      709.34   709.53   725.36   726.67   742.21   763.86
eigval :      763.90   776.70   776.78   807.80   814.40   819.09
eigval :      822.20   870.44   870.54   875.79   876.26   880.13
eigval :      883.50   883.89   900.01   900.08   903.15   904.95
eigval :      905.48   908.68   908.79   913.41   916.24   923.08
eigval :      923.09   924.36   925.18   928.54   933.63   933.66
eigval :      933.85   934.43   934.70   974.32   998.01   998.06
eigval :     1020.70  1021.37  1070.69  1070.72  1078.61  1080.44
eigval :     1080.46  1098.46  1100.11  1114.19  1117.90  1118.01
eigval :     1124.85  1127.32  1128.50  1151.49  1156.43  1177.88
eigval :     1178.08  1180.95  1181.04  1181.09  1182.13  1182.68
eigval :     1192.84  1199.40  1199.96  1225.18  1226.83  1242.77
eigval :     1243.18  1258.47  1271.87  1273.49  1274.70  1276.89
eigval :     1278.19  1304.58  1305.82  1317.80  1317.86  1321.40
eigval :     1354.79  1354.95  1362.93  1363.36  1364.22  1364.79
eigval :     1416.16  1416.58  1425.12  1428.96  1429.64  1436.30
eigval :     1436.36  1455.26  1460.36  1461.36  1483.02  1483.18
eigval :     1483.88  1484.76  1563.51  1563.68  1582.69  1582.81
eigval :     1583.08  1583.65  1584.35  1588.11  1591.89  1592.53
eigval :     1596.07  1596.20  1611.81  1612.00  3066.18  3071.65
eigval :     3072.45  3072.62  3076.11  3077.75  3077.81  3079.61
eigval :     3079.70  3081.69  3081.70  3082.36  3084.37  3084.57
eigval :     3085.38  3085.47  3085.59  3086.85  3089.53  3090.82
eigval :     3090.91  3092.05  3092.17  3094.38  3094.44  3099.15
eigval :     3099.25  3099.74  3099.82

   temp. (K)  partition function   enthalpy   heat capacity  entropy
                                   cal/mol     cal/K/mol   cal/K/mol   J/K/mol
 298.15  VIB  0.380E+18            21556.147    135.931    135.760
         ROT  0.893E+08              888.752      2.981     39.362
         INT  0.339E+26            22444.900    138.912    175.122
         TR   0.145E+29             1481.254      4.968     45.081
         TOT                       23926.1538   143.8799   220.2033   921.3308

       T/K    H(0)-H(T)+PV         H(T)/Eh          T*S/Eh         G(T)/Eh
   ------------------------------------------------------------------------
    298.15    0.381288E-01    0.611084E+00    0.104626E+00    0.506459E+00
   ------------------------------------------------------------------------

         :::::::::::::::::::::::::::::::::::::::::::::::::::::
         ::                  THERMODYNAMIC                  ::
         :::::::::::::::::::::::::::::::::::::::::::::::::::::
         :: total free energy        -116.759687863191 Eh   ::
         ::.................................................::
         :: total energy             -117.266146434751 Eh   ::
         :: zero point energy           0.572955528861 Eh   ::
         :: G(RRHO) w/o ZPVE           -0.066496957301 Eh   ::
         :: G(RRHO) contrib.            0.506458571560 Eh   ::
         :::::::::::::::::::::::::::::::::::::::::::::::::::::

           -------------------------------------------------
          | TOTAL ENERGY             -117.266146434751 Eh   |
          | TOTAL ENTHALPY           -116.655062152860 Eh   |
          | TOTAL FREE ENERGY        -116.759687863191 Eh   |
          | GRADIENT NORM               0.000064765932 Eh/α |
          | HOMO-LUMO GAP               3.141342585660 eV   |
           -------------------------------------------------

 * finished run on 2025/07/18 at 00:29:37.488
