   * xtb version 6.7.1 (edcfbbe) compiled by 'albert@albert-system' on 2024-07-22

   ID    Z sym.   atoms
    1    8 O      1
    2   15 P      2
    3    6 C      3-20, 22-39, 41-46
    4    7 N      21, 40
    5    1 H      47-75

          program call               : xtb data2507/gas/3DCPO/3DCPO_gas_S0_crest.xyz --gfn 2 --ohess vtight --parallel 40 --molden --ceasefiles --namespace data2507/gas/3DCPO/3DCPO_gas_S0_finalOpt
          :  Hamiltonian                  GFN2-xTB          :
 * total energy  :  -117.2665955 Eh     change       -0.9529799E-09 Eh
 * total energy  :  -117.2665972 Eh     change       -0.1676162E-05 Eh
 * total energy  :  -117.2665995 Eh     change       -0.2315425E-05 Eh
 * total energy  :  -117.2666041 Eh     change       -0.4616466E-05 Eh
 * total energy  :  -117.2666070 Eh     change       -0.2881976E-05 Eh
 * total energy  :  -117.2666090 Eh     change       -0.1953825E-05 Eh
 * total energy  :  -117.2666118 Eh     change       -0.2860163E-05 Eh
 * total energy  :  -117.2666156 Eh     change       -0.3777685E-05 Eh
 * total energy  :  -117.2666180 Eh     change       -0.2346493E-05 Eh
 * total energy  :  -117.2666202 Eh     change       -0.2212771E-05 Eh
 * total energy  :  -117.2666225 Eh     change       -0.2276186E-05 Eh
 * total energy  :  -117.2666240 Eh     change       -0.1573824E-05 Eh
 * total energy  :  -117.2666252 Eh     change       -0.1215915E-05 Eh
 * total energy  :  -117.2666259 Eh     change       -0.7011949E-06 Eh
 * total energy  :  -117.2666264 Eh     change       -0.4890522E-06 Eh
 * total energy  :  -117.2666269 Eh     change       -0.4710956E-06 Eh
 * total energy  :  -117.2666273 Eh     change       -0.4201840E-06 Eh
 * total energy  :  -117.2666276 Eh     change       -0.2568396E-06 Eh
 * total energy  :  -117.2666276 Eh     change       -0.1890409E-07 Eh
   *** GEOMETRY OPTIMIZATION CONVERGED AFTER 19 ITERATIONS ***

 final structure:
================
75
 xtb: 6.7.1 (edcfbbe)
O           -0.08167745899850        3.20307892152131       -1.88336603733121
P           -0.09985897943849        2.44650240502259       -0.62545657361389
C           -0.20066553758613        3.51620488773100        0.85004140491058
C           -0.79439684619500        3.12315740676059        2.04142109086460
C           -0.81395937270572        3.99272845473206        3.11749051100755
C           -0.24397059388167        5.25086912708939        3.00669905675960
C            0.34303792748895        5.64634519721557        1.81556896822346
C            0.36385485351253        4.77896512719949        0.73867507388035
C            1.38679000909648        1.43237903537184       -0.36867485270998
C            1.79040927225676        0.99075547698045        0.89463179757499
C            2.91380798242655        0.20547387502216        1.05134448200561
C            3.63496484492080       -0.13805033653758       -0.08594079780415
C            3.25299651733505        0.33458450884485       -1.36524039839467
C            2.11884538562956        1.11878301373958       -1.50123703538343
C            4.23893625199811       -0.15122633093111       -2.28967141761793
C            4.39763489434523       -0.03358790425034       -3.66418157635874
C            5.47653021350792       -0.65649170842395       -4.25852049614539
C            6.38037280249798       -1.40088209591894       -3.50319693149461
C            6.24235478665996       -1.53252496543569       -2.13461263515720
C            5.17341172482225       -0.88882518973300       -1.52821143967120
N            4.79354880760124       -0.87341581392671       -0.19886859725367
C            5.47502562894789       -1.49951253543735        0.85563194747096
C            4.78887478730929       -2.33369793346605        1.73317934246303
C            5.46380741819616       -2.94623116361228        2.77277225614575
C            6.82340313891565       -2.74189567474968        2.93949212358958
C            7.50821168184682       -1.91543728615755        2.06412048625954
C            6.83991792267373       -1.29007223613593        1.02784390993923
C           -1.51985019091679        1.31710731595103       -0.47844757041715
C           -2.68821179116582        1.72389757443376       -1.12800284743466
C           -3.84689193419476        0.97890631568590       -1.06640690584527
C           -3.82045383216046       -0.19519217559641       -0.32372326642889
C           -2.63243462748789       -0.63213687907900        0.31118890016448
C           -1.47774134250509        0.13172409471460        0.23534954616665
C           -2.94150526937922       -1.88823423718046        0.93507504404991
C           -2.20532079135737       -2.77852801593584        1.70558442356560
C           -2.83107922568969       -3.91247238168602        2.18295962068802
C           -4.17609470204213       -4.15600007658625        1.91290876553420
C           -4.92860583692927       -3.28537799375702        1.14813831826564
C           -4.29902526828549       -2.15561037861628        0.64574339959511
N           -4.81547986046980       -1.12452007084421       -0.11475187754343
C           -6.13168175235240       -1.03919998071668       -0.59454947095948
C           -6.88041010790328        0.11358563005741       -0.37826596095177
C           -8.17526788745917        0.19421973340150       -0.85620036491175
C           -8.73489564671713       -0.87161487043093       -1.54097239196200
C           -7.99186333721267       -2.02106628395561       -1.75278285291715
C           -6.69272742970554       -2.10738459369120       -1.28760134057752
H           -1.24997440072512        2.14565819892424        2.12089410851547
H           -1.27753239125579        3.68979059663104        4.04559867675051
H           -0.26274643386268        5.92600004933544        3.84991011003806
H            0.78158097005467        6.62976980103737        1.72850128713485
H            0.80456402582514        5.06631073618695       -0.20534948822027
H            1.22128316697218        1.28686693976714        1.76429635152219
H            3.23107632559436       -0.11660781446035        2.03217047967903
H            1.80174208342399        1.50114025334374       -2.46006978956466
H            3.68745319699827        0.53130818165340       -4.24819793879384
H            5.62207465405218       -0.57607444225869       -5.32536096144607
H            7.20648131597184       -1.88909612360910       -3.99886354245922
H            6.93845782167093       -2.12566801987673       -1.56083743364705
H            3.73348918820568       -2.50821829799175        1.58565883539862
H            4.92693081294845       -3.59316283035594        3.45070240414270
H            7.34801440924247       -3.22551774075785        3.74952086722639
H            8.56748088327932       -1.74983783200813        2.19331454076486
H            7.36536524223547       -0.62762087898555        0.35634671092091
H           -2.65522835053134        2.64127009624720       -1.69769771846060
H           -4.73913503039145        1.29245907207161       -1.58700253164224
H           -0.56560405824511       -0.19858965273514        0.71014778856116
H           -1.16690407984712       -2.58112153822577        1.92580362707066
H           -2.27714620479231       -4.61986099375246        2.78197608978456
H           -4.64224942277987       -5.04416957630156        2.31322066692942
H           -5.97436207037684       -3.47456661980296        0.95848091892416
H           -6.44719210034911        0.93429283654187        0.17382270486022
H           -8.75214930491024        1.09117691913100       -0.68642755524402
H           -9.74744849880961       -0.80635776209788       -1.90933341327642
H           -8.42291877605943       -2.85255304101194       -2.29037540409826
H           -6.10217290119025       -2.99292029472669       -1.46947837051382

          :  Hamiltonian                  GFN2-xTB          :
         :: gradient norm              0.000106163007 Eh/a0 ::
         :: HOMO-LUMO gap              3.130517094742 eV    ::
         :: SCC energy              -119.435828170958 Eh    ::
         :: -> dispersion             -0.106459110018 Eh    ::
         :: repulsion energy           2.169200570069 Eh    ::

    * Orbital Energies and Occupations

         #    Occupation            Energy/Eh            Energy/eV
      -------------------------------------------------------------
         1        2.0000           -0.6810394             -18.5320
       ...           ...                  ...                  ...
        97        2.0000           -0.4166583             -11.3378
        98        2.0000           -0.4153486             -11.3022
        99        2.0000           -0.4149155             -11.2904
       100        2.0000           -0.4113585             -11.1936
       101        2.0000           -0.4102113             -11.1624
       102        2.0000           -0.4082040             -11.1078
       103        2.0000           -0.4063758             -11.0580
       104        2.0000           -0.3928850             -10.6909
       105        2.0000           -0.3919769             -10.6662
       106        2.0000           -0.3825417             -10.4095
       107        2.0000           -0.3810833             -10.3698
       108        2.0000           -0.3669120              -9.9842
       109        2.0000           -0.3654260              -9.9437 (HOMO)
       110                         -0.2503815              -6.8132 (LUMO)
       111                         -0.2491813              -6.7806
       112                         -0.2422064              -6.5908
       113                         -0.2395126              -6.5175
       114                         -0.2363148              -6.4305
       115                         -0.2360854              -6.4242
       116                         -0.2355711              -6.4102
       117                         -0.2327509              -6.3335
       118                         -0.2272114              -6.1827
       119                         -0.2260726              -6.1517
       120                         -0.2021448              -5.5006
       ...                                ...                  ...
       218                          1.2012974              32.6890
      -------------------------------------------------------------
                  HL-Gap            0.1150444 Eh            3.1305 eV

     #   Z          covCN         q      C6AA      α(0)
     1   8 O        0.808    -0.356    20.847     6.120
     2  15 P        4.096     0.048   158.101    22.587
     3   6 C        2.920     0.015    27.688     8.629
     4   6 C        2.970    -0.027    28.661     8.782
     5   6 C        2.920    -0.029    28.722     8.789
     6   6 C        2.921    -0.026    28.661     8.779
     7   6 C        2.919    -0.027    28.686     8.783
     8   6 C        3.030    -0.020    28.465     8.751
     9   6 C        2.920     0.003    27.953     8.670
    10   6 C        2.977    -0.032    28.793     8.802
    11   6 C        2.909    -0.051    29.276     8.872
    12   6 C        3.076     0.049    26.817     8.490
    13   6 C        3.068    -0.016    28.333     8.728
    14   6 C        3.031    -0.023    28.553     8.765
    15   6 C        3.067    -0.015    28.307     8.724
    16   6 C        2.912    -0.031    28.771     8.796
    17   6 C        2.920    -0.039    28.971     8.827
    18   6 C        2.924    -0.032    28.806     8.802
    19   6 C        2.910    -0.050    29.243     8.867
    20   6 C        3.077     0.047    26.862     8.497
    21   7 N        2.803    -0.041    22.036     6.972
    22   6 C        2.913     0.065    26.550     8.449
    23   6 C        2.922    -0.042    29.038     8.837
    24   6 C        2.920    -0.028    28.690     8.784
    25   6 C        2.919    -0.032    28.810     8.802
    26   6 C        2.920    -0.027    28.685     8.783
    27   6 C        2.922    -0.042    29.031     8.836
    28   6 C        2.921     0.004    27.932     8.667
    29   6 C        3.040    -0.025    28.583     8.769
    30   6 C        2.909    -0.050    29.238     8.866
    31   6 C        3.076     0.050    26.809     8.489
    32   6 C        3.069    -0.017    28.369     8.733
    33   6 C        2.967    -0.031    28.769     8.798
    34   6 C        3.067    -0.016    28.349     8.731
    35   6 C        2.912    -0.032    28.797     8.800
    36   6 C        2.920    -0.040    28.996     8.830
    37   6 C        2.924    -0.033    28.813     8.803
    38   6 C        2.910    -0.050    29.236     8.866
    39   6 C        3.077     0.047    26.856     8.496
    40   7 N        2.803    -0.041    22.031     6.971
    41   6 C        2.914     0.064    26.556     8.450
    42   6 C        2.922    -0.042    29.031     8.836
    43   6 C        2.920    -0.027    28.679     8.782
    44   6 C        2.919    -0.032    28.800     8.800
    45   6 C        2.920    -0.027    28.684     8.783
    46   6 C        2.922    -0.041    29.028     8.835
    47   1 H        0.925     0.036     2.501     2.473
    48   1 H        0.926     0.033     2.548     2.496
    49   1 H        0.926     0.034     2.523     2.484
    50   1 H        0.926     0.037     2.492     2.469
    51   1 H        0.926     0.059     2.214     2.327
    52   1 H        0.926     0.037     2.487     2.466
    53   1 H        0.926     0.031     2.577     2.510
    54   1 H        0.926     0.063     2.169     2.303
    55   1 H        0.926     0.038     2.476     2.461
    56   1 H        0.926     0.031     2.569     2.506
    57   1 H        0.926     0.031     2.573     2.509
    58   1 H        0.926     0.029     2.607     2.525
    59   1 H        0.926     0.040     2.447     2.446
    60   1 H        0.926     0.037     2.488     2.467
    61   1 H        0.926     0.036     2.498     2.472
    62   1 H        0.926     0.037     2.483     2.464
    63   1 H        0.926     0.042     2.423     2.434
    64   1 H        0.926     0.059     2.210     2.325
    65   1 H        0.926     0.035     2.519     2.482
    66   1 H        0.926     0.039     2.459     2.452
    67   1 H        0.926     0.030     2.581     2.512
    68   1 H        0.926     0.029     2.600     2.521
    69   1 H        0.926     0.031     2.577     2.510
    70   1 H        0.926     0.029     2.599     2.521
    71   1 H        0.926     0.041     2.435     2.440
    72   1 H        0.926     0.038     2.476     2.461
    73   1 H        0.926     0.037     2.491     2.468
    74   1 H        0.926     0.038     2.480     2.463
    75   1 H        0.926     0.041     2.430     2.438

molecular dipole:
                 x           y           z       tot (Debye)
 q only:       -0.181      -1.174       1.220
   full:       -0.229      -1.331       1.524       5.175

 projected vibrational frequencies (cm⁻¹)
eigval :       -0.00    -0.00    -0.00    -0.00     0.00     0.00
eigval :        4.91    10.07    11.68    21.55    26.90    38.19
eigval :       48.49    50.27    52.48    63.16    63.78    66.36
eigval :       83.41    90.96   105.65   115.36   124.31   135.45
eigval :      170.42   173.43   184.92   195.22   197.33   215.41
eigval :      227.96   240.62   254.77   261.30   267.23   291.52
eigval :      300.33   319.33   332.70   338.98   363.29   378.85
eigval :      380.38   380.70   387.82   391.47   398.66   402.24
eigval :      421.00   426.36   429.24   450.25   455.96   474.47
eigval :      477.84   494.22   512.18   536.08   536.37   553.40
eigval :      557.98   568.24   574.73   585.57   587.50   588.75
eigval :      592.11   593.13   611.56   612.89   639.32   654.14
eigval :      660.20   670.55   673.45   676.08   676.15   701.71
eigval :      709.12   709.32   725.23   728.87   742.67   763.65
eigval :      763.84   775.95   776.82   808.11   814.82   816.45
eigval :      819.84   870.18   870.62   876.51   877.63   881.04
eigval :      883.13   884.24   899.12   900.35   903.47   904.17
eigval :      905.52   908.91   910.94   913.25   914.80   922.62
eigval :      923.14   924.28   925.50   928.71   933.30   933.69
eigval :      934.00   934.24   934.34   974.16   998.06   998.32
eigval :     1020.95  1021.59  1070.71  1071.33  1078.51  1080.48
eigval :     1080.58  1098.67  1100.72  1114.01  1117.92  1118.13
eigval :     1124.78  1127.79  1128.88  1150.34  1153.89  1178.02
eigval :     1178.59  1180.96  1181.04  1181.06  1181.85  1182.38
eigval :     1192.59  1199.39  1199.73  1224.27  1227.57  1242.93
eigval :     1243.19  1259.00  1271.43  1273.80  1274.30  1276.81
eigval :     1277.38  1305.38  1306.46  1318.06  1318.09  1321.81
eigval :     1354.71  1355.15  1360.25  1362.87  1364.39  1364.69
eigval :     1415.48  1416.64  1425.26  1429.47  1430.05  1436.29
eigval :     1436.34  1455.15  1460.98  1466.00  1483.21  1483.64
eigval :     1483.84  1484.63  1562.94  1563.19  1582.86  1583.06
eigval :     1583.15  1583.29  1584.53  1588.25  1591.66  1592.02
eigval :     1596.24  1596.29  1611.62  1611.74  3063.65  3072.10
eigval :     3072.77  3075.70  3077.16  3077.77  3079.66  3080.03
eigval :     3080.42  3080.60  3081.96  3082.20  3082.26  3082.82
eigval :     3084.65  3085.39  3087.37  3089.44  3089.72  3090.25
eigval :     3091.08  3091.47  3092.14  3094.59  3094.65  3096.54
eigval :     3099.36  3100.03  3100.22

   temp. (K)  partition function   enthalpy   heat capacity  entropy
                                   cal/mol     cal/K/mol   cal/K/mol   J/K/mol
 298.15  VIB  0.366E+18            21544.217    135.904    135.673
         ROT  0.851E+08              888.752      2.981     39.267
         INT  0.312E+26            22432.969    138.884    174.940
         TR   0.145E+29             1481.254      4.968     45.081
         TOT                       23914.2231   143.8526   220.0207   920.5666

       T/K    H(0)-H(T)+PV         H(T)/Eh          T*S/Eh         G(T)/Eh
   ------------------------------------------------------------------------
    298.15    0.381097E-01    0.611100E+00    0.104539E+00    0.506561E+00
   ------------------------------------------------------------------------

         :::::::::::::::::::::::::::::::::::::::::::::::::::::
         ::                  THERMODYNAMIC                  ::
         :::::::::::::::::::::::::::::::::::::::::::::::::::::
         :: total free energy        -116.760066905684 Eh   ::
         ::.................................................::
         :: total energy             -117.266627600890 Eh   ::
         :: zero point energy           0.572989888012 Eh   ::
         :: G(RRHO) w/o ZPVE           -0.066429192806 Eh   ::
         :: G(RRHO) contrib.            0.506560695206 Eh   ::
         :::::::::::::::::::::::::::::::::::::::::::::::::::::

           -------------------------------------------------
          | TOTAL ENERGY             -117.266627600890 Eh   |
          | TOTAL ENTHALPY           -116.655527972655 Eh   |
          | TOTAL FREE ENERGY        -116.760066905684 Eh   |
          | GRADIENT NORM               0.000106152495 Eh/α |
          | HOMO-LUMO GAP               3.130518384441 eV   |
           -------------------------------------------------

 * finished run on 2025/07/18 at 00:38:36.968
