   * xtb version 6.7.1 (edcfbbe) compiled by 'albert@albert-system' on 2024-07-22

   ID    Z sym.   atoms
    1    6 C      1-9, 11-13, 15-31, 33-35, 37-42
    2    7 N      10, 14, 32, 36
    3    1 H      43-72

          program call               : xtb data2507/toluene/DAcIPN/DAcIPN_toluene_S0_finalOpt.xtbopt.xyz --gfn 2 --uhf 2 --gbsa toluene --ohess vtight --parallel 40 --molden --ceasefiles --namespace data2507/toluene/DAcIPN/DAcIPN_toluene_T1_preOpt
      * Solvation model:               GBSA
        Solvent                        toluene
        Solvent mass                       9.2140E+01 g/mol
          :  Hamiltonian                  GFN2-xTB          :
 * total energy  :  -108.3099815 Eh     change       -0.6035350E-10 Eh
 * total energy  :  -108.3139105 Eh     change       -0.3929002E-02 Eh
 * total energy  :  -108.3148568 Eh     change       -0.9463022E-03 Eh
 * total energy  :  -108.3149378 Eh     change       -0.8102364E-04 Eh
 * total energy  :  -108.3151053 Eh     change       -0.1674640E-03 Eh
 * total energy  :  -108.3151919 Eh     change       -0.8659533E-04 Eh
 * total energy  :  -108.3152685 Eh     change       -0.7665295E-04 Eh
 * total energy  :  -108.3153579 Eh     change       -0.8940707E-04 Eh
 * total energy  :  -108.3154312 Eh     change       -0.7325145E-04 Eh
 * total energy  :  -108.3154933 Eh     change       -0.6206121E-04 Eh
 * total energy  :  -108.3159735 Eh     change       -0.6018223E-06 Eh
 * total energy  :  -108.3159742 Eh     change       -0.6607060E-06 Eh
 * total energy  :  -108.3159748 Eh     change       -0.6580145E-06 Eh
 * total energy  :  -108.3159754 Eh     change       -0.6143283E-06 Eh
 * total energy  :  -108.3159760 Eh     change       -0.5686207E-06 Eh
 * total energy  :  -108.3159765 Eh     change       -0.5272391E-06 Eh
 * total energy  :  -108.3159770 Eh     change       -0.5111362E-06 Eh
 * total energy  :  -108.3159776 Eh     change       -0.5131982E-06 Eh
 * total energy  :  -108.3159776 Eh     change       -0.1872607E-08 Eh
   *** GEOMETRY OPTIMIZATION CONVERGED AFTER 68 ITERATIONS ***

 final structure:
================
72
 xtb: 6.7.1 (edcfbbe)
C           -3.82951658436623       -0.45332108266571       -2.48143098741729
C           -4.53848068006887        0.57176202032246       -1.57114284555084
C           -5.83362526969624        0.99936284775171       -2.26212592194417
C           -4.78842967599575       -0.06107191964374       -0.21474490385372
C           -6.01612222696522       -0.49580308873543        0.24763281522493
C           -6.14048268644490       -1.07531083452850        1.50380445857835
C           -5.03451659233290       -1.21324085150546        2.32562688120804
C           -3.79649712992653       -0.79159409170845        1.88743503235796
C           -3.66835912270613       -0.23316581636073        0.61267723521742
N           -2.43672150656887        0.25630291185814        0.17724546535341
C           -1.27555641774536       -0.48558362874837        0.33461463913153
C           -0.00192236633146        0.03286582610098        0.13978501234686
C            1.14267936471894       -0.71032474121772        0.36445216967666
N            2.43460893561111       -0.15882215888215        0.16024751005447
C            3.17778549002187       -0.61338955579397       -0.90887514445013
C            2.57738410077501       -1.46425107644998       -1.85043395021944
C            3.29777749958358       -1.96655791197978       -2.90912870954591
C            4.63255593697419       -1.61963295795815       -3.05999005332829
C            5.21872590563241       -0.75125551432117       -2.15689737648299
C            4.51725436077109       -0.22677475968524       -1.08039777042059
C            5.19785240735630        0.74006287784246       -0.13800642118286
C            5.67221520844243        1.96448447246730       -0.94682028257634
C            6.40429120489361        0.03187634899987        0.51068431932712
C            4.27005880431323        1.20571012929621        0.96173218799684
C            4.72714774786751        2.11480505178200        1.90665532981342
C            3.93512096547539        2.54276433102059        2.95622679476732
C            2.64896446317753        2.04007699630799        3.09070936584661
C            2.16807978718253        1.13922299570580        2.16879005628301
C            2.95642874246719        0.72272705629552        1.08501255186601
C            1.03530322565590       -2.08480392203207        0.81254181567566
C            2.17348223652596       -2.81528982001887        1.13232533752263
N            3.13250037780303       -3.40660860570905        1.40028520224849
C           -0.22903608165000       -2.65070454599119        0.87594082922692
C           -1.38244338145795       -1.92354835847844        0.59898350199970
C           -2.54860837540861       -2.66824720357708        0.43980492748775
N           -3.41888416237297       -3.41198464581429        0.25340810782688
C           -2.53581320889854        1.52249130676391       -0.41778015599509
C           -1.71129041604567        2.58451281215970       -0.04716019596664
C           -1.86985580083893        3.82386412522240       -0.63541904944033
C           -2.86711364842763        4.02065939495588       -1.57564006899076
C           -3.73771762048136        2.98728354505580       -1.88791528363945
C           -3.60106745524633        1.73653495237149       -1.31103537687268
H           -3.60210746454122        0.00193510440675       -3.44303752664458
H           -2.90171078404674       -0.80958687868502       -2.04126349691489
H           -4.47546796143202       -1.31372043930279       -2.64143889413804
H           -6.37355498339176        1.72810595050515       -1.66207580541400
H           -5.61486258083310        1.42842036179787       -3.23634834869651
H           -6.46806967755288        0.13237576043198       -2.42559336535470
H           -6.89623267885688       -0.39628416216313       -0.36604317606926
H           -7.10881362867588       -1.41083378343024        1.84242174807283
H           -5.13645924363945       -1.64420033666785        3.31016842542846
H           -2.93042810241975       -0.86347997899112        2.52952347409112
H            0.12727105317405        1.04300403406155       -0.21169246585586
H            1.53588410582344       -1.72424715868895       -1.74262096678606
H            2.81917334566914       -2.62616529901895       -3.61694736695213
H            5.20907528326633       -2.01555256250899       -3.88174369149024
H            6.25278243633958       -0.47986098276705       -2.29972787394674
H            6.34503804651167        1.66108232571594       -1.74289008399107
H            4.81729060375140        2.47014474500266       -1.39168256812442
H            6.19607768565101        2.66828591713090       -0.30755730894082
H            6.06712015347350       -0.84371116732939        1.06291750185028
H            7.11220207456692       -0.29174144597716       -0.24634602830424
H            6.91722440535319        0.69718406544984        1.19882575086939
H            5.73199742408908        2.49886490553793        1.82948793305979
H            4.32115378998885        3.25276993931793        3.67122384708353
H            2.02407223661915        2.34790466196525        3.91533356094725
H            1.17417551632094        0.73631689062751        2.28257625535842
H           -0.32471899613724       -3.70187460789127        1.11625873319169
H           -0.98588132395968        2.45715758702680        0.74059780167544
H           -1.22467582257032        4.63886029897570       -0.34378342899028
H           -2.98943070713944        4.98511072655027       -2.04439308568841
H           -4.53305520284722        3.17433397387037       -2.59011543244758

          :  Hamiltonian                  GFN2-xTB          :
         :: gradient norm              0.000051060937 Eh/a0 ::
         :: HOMO-LUMO gap              0.444361464465 eV    ::
         :: SCC energy              -110.306256880833 Eh    ::
         :: -> dispersion             -0.106827330169 Eh    ::
         :: -> Gsolv                  -0.053385774506 Eh    ::
         :: repulsion energy           1.990279322895 Eh    ::

    * Orbital Energies and Occupations

         #    Occupation            Energy/Eh            Energy/eV
      -------------------------------------------------------------
         1        2.0000           -0.6867207             -18.6866
       ...           ...                  ...                  ...
        90        2.0000           -0.4211599             -11.4603
        91        2.0000           -0.4176432             -11.3647
        92        2.0000           -0.4155839             -11.3086
        93        2.0000           -0.4154926             -11.3061
        94        2.0000           -0.4108457             -11.1797
        95        2.0000           -0.4094461             -11.1416
        96        2.0000           -0.4076276             -11.0921
        97        2.0000           -0.4060883             -11.0502
        98        2.0000           -0.4051631             -11.0250
        99        2.0000           -0.4033212             -10.9749
       100        1.6908           -0.3668967              -9.9838
       101        1.3092           -0.3653695              -9.9422
       102        0.9998           -0.2730850              -7.4310 (HOMO)
       103        0.0002           -0.2567550              -6.9867 (LUMO)
       104                         -0.2445432              -6.6544
       105                         -0.2365321              -6.4364
       106                         -0.2354958              -6.4082
       107                         -0.2350356              -6.3956
       108                         -0.2329374              -6.3386
       109                         -0.2286870              -6.2229
       110                         -0.2272722              -6.1844
       111                         -0.2104345              -5.7262
       112                         -0.2021024              -5.4995
       113                         -0.1902839              -5.1779
       ...                                ...                  ...
       198                          1.1554147              31.4404
      -------------------------------------------------------------
                  HL-Gap            0.0163300 Eh            0.4444 eV

     #   Z          covCN         q      C6AA      α(0)
     1   6 C        3.761    -0.096    22.370     6.742
     2   6 C        3.911     0.024    20.117     6.375
     3   6 C        3.759    -0.111    22.674     6.789
     4   6 C        2.986    -0.003    28.089     8.694
     5   6 C        2.921    -0.037    28.909     8.817
     6   6 C        2.919    -0.032    28.788     8.799
     7   6 C        2.918    -0.029    28.732     8.790
     8   6 C        2.919    -0.040    28.988     8.829
     9   6 C        2.962     0.058    26.694     8.475
    10   7 N        2.752    -0.031    21.848     6.942
    11   6 C        2.906     0.028    27.371     8.578
    12   6 C        2.911    -0.062    29.541     8.912
    13   6 C        2.926     0.014    27.703     8.632
    14   7 N        2.753    -0.023    21.690     6.917
    15   6 C        2.933     0.064    26.564     8.453
    16   6 C        2.923    -0.045    29.118     8.849
    17   6 C        2.917    -0.028    28.697     8.785
    18   6 C        2.918    -0.030    28.743     8.792
    19   6 C        2.925    -0.033    28.814     8.803
    20   6 C        2.979    -0.000    28.024     8.683
    21   6 C        3.909     0.025    20.103     6.373
    22   6 C        3.761    -0.109    22.623     6.780
    23   6 C        3.761    -0.106    22.580     6.774
    24   6 C        2.979    -0.001    28.037     8.686
    25   6 C        2.925    -0.033    28.811     8.803
    26   6 C        2.917    -0.031    28.768     8.795
    27   6 C        2.917    -0.028    28.701     8.785
    28   6 C        2.923    -0.048    29.182     8.859
    29   6 C        2.928     0.062    26.603     8.459
    30   6 C        2.961    -0.018    28.464     8.751
    31   6 C        1.910     0.104    28.526     8.626
    32   7 N        0.911    -0.339    28.721     7.751
    33   6 C        2.943    -0.019    28.470     8.751
    34   6 C        2.963    -0.024    28.597     8.771
    35   6 C        1.921     0.105    28.500     8.621
    36   7 N        0.911    -0.353    29.098     7.802
    37   6 C        2.950     0.052    26.835     8.496
    38   6 C        2.919    -0.046    29.138     8.852
    39   6 C        2.919    -0.033    28.811     8.802
    40   6 C        2.918    -0.035    28.862     8.810
    41   6 C        2.922    -0.036    28.902     8.816
    42   6 C        2.987    -0.004    28.105     8.696
    43   1 H        0.925     0.047     2.361     2.403
    44   1 H        0.925     0.028     2.619     2.531
    45   1 H        0.925     0.043     2.411     2.428
    46   1 H        0.925     0.045     2.381     2.413
    47   1 H        0.925     0.050     2.321     2.383
    48   1 H        0.925     0.048     2.345     2.395
    49   1 H        0.926     0.053     2.286     2.364
    50   1 H        0.926     0.043     2.408     2.427
    51   1 H        0.926     0.039     2.463     2.454
    52   1 H        0.926     0.031     2.575     2.509
    53   1 H        0.926     0.045     2.383     2.414
    54   1 H        0.926     0.035     2.514     2.480
    55   1 H        0.926     0.042     2.420     2.433
    56   1 H        0.926     0.047     2.356     2.400
    57   1 H        0.926     0.053     2.281     2.362
    58   1 H        0.925     0.053     2.279     2.361
    59   1 H        0.925     0.039     2.463     2.454
    60   1 H        0.925     0.054     2.265     2.353
    61   1 H        0.925     0.036     2.509     2.477
    62   1 H        0.925     0.053     2.284     2.363
    63   1 H        0.925     0.053     2.281     2.362
    64   1 H        0.926     0.052     2.292     2.367
    65   1 H        0.926     0.047     2.363     2.404
    66   1 H        0.926     0.044     2.400     2.423
    67   1 H        0.926     0.039     2.463     2.454
    68   1 H        0.925     0.023     2.685     2.563
    69   1 H        0.926     0.044     2.397     2.421
    70   1 H        0.926     0.042     2.417     2.431
    71   1 H        0.926     0.042     2.416     2.431
    72   1 H        0.926     0.053     2.285     2.364

molecular dipole:
                 x           y           z       tot (Debye)
 q only:        0.967       4.271      -1.266
   full:        0.912       4.399      -1.143      11.783

 projected vibrational frequencies (cm⁻¹)
eigval :       -0.00    -0.00    -0.00     0.00     0.00     0.00
eigval :        7.04    13.07    24.78    29.77    40.44    47.94
eigval :       60.87    66.52    77.79    93.22    99.47   107.20
eigval :      120.22   123.31   124.73   135.61   137.79   155.10
eigval :      177.20   180.55   189.97   190.85   201.92   216.20
eigval :      230.78   240.42   243.83   264.60   275.79   285.68
eigval :      304.23   306.79   320.42   325.27   334.14   339.94
eigval :      346.99   352.86   355.49   379.06   381.76   394.31
eigval :      402.68   403.21   414.38   429.78   436.94   449.32
eigval :      449.95   480.27   490.68   494.20   501.30   507.66
eigval :      516.78   533.93   539.15   540.95   553.85   556.83
eigval :      569.56   576.02   582.47   586.13   594.41   615.41
eigval :      637.42   642.90   666.15   676.77   684.84   688.54
eigval :      702.55   712.66   716.38   736.57   764.91   771.60
eigval :      774.48   776.93   808.46   824.57   829.76   859.74
eigval :      865.26   866.95   869.98   872.23   876.26   886.00
eigval :      898.40   905.01   910.72   912.75   914.16   916.43
eigval :      917.06   922.46   925.98   931.87   936.37   941.37
eigval :      959.14   967.33  1008.67  1012.08  1055.38  1070.56
eigval :     1072.38  1074.56  1096.17  1102.92  1104.43  1110.44
eigval :     1126.42  1134.36  1136.68  1143.93  1146.28  1148.57
eigval :     1156.66  1175.14  1178.36  1179.75  1182.10  1184.15
eigval :     1185.11  1206.91  1228.34  1229.51  1239.47  1246.57
eigval :     1251.11  1258.62  1263.26  1268.12  1275.78  1285.23
eigval :     1292.43  1300.59  1304.39  1323.41  1328.55  1332.81
eigval :     1335.82  1337.09  1379.00  1392.73  1394.94  1397.11
eigval :     1411.27  1411.52  1412.27  1415.47  1421.75  1425.60
eigval :     1431.37  1447.13  1450.02  1452.44  1471.59  1472.87
eigval :     1479.50  1481.81  1486.71  1489.32  1490.62  1495.97
eigval :     1501.46  1516.34  1545.24  1546.82  1551.86  1559.65
eigval :     1562.25  1574.40  1578.37  1586.36  2202.68  2284.48
eigval :     3027.20  3028.36  3030.12  3032.29  3035.67  3035.85
eigval :     3048.90  3049.24  3049.76  3052.65  3055.30  3061.00
eigval :     3062.21  3072.93  3082.37  3083.86  3086.07  3086.23
eigval :     3092.31  3092.37  3093.48  3094.12  3099.89  3101.93
eigval :     3103.28  3104.91  3107.63  3114.67  3117.56  3121.07

   temp. (K)  partition function   enthalpy   heat capacity  entropy
                                   cal/mol     cal/K/mol   cal/K/mol   J/K/mol
 298.15  VIB  0.350E+16            21202.304    134.605    130.390
         ROT  0.412E+08              888.752      2.981     37.828
         INT  0.145E+24            22091.057    137.586    168.217
         TR   0.122E+29             1481.254      4.968     44.739
         TOT                       23572.3108   142.5544   212.9565   891.0099

       T/K    H(0)-H(T)+PV         H(T)/Eh          T*S/Eh         G(T)/Eh
   ------------------------------------------------------------------------
    298.15    0.375649E-01    0.598081E+00    0.101182E+00    0.496898E+00
   ------------------------------------------------------------------------

         :::::::::::::::::::::::::::::::::::::::::::::::::::::
         ::                  THERMODYNAMIC                  ::
         :::::::::::::::::::::::::::::::::::::::::::::::::::::
         :: total free energy        -107.819079459161 Eh   ::
         ::.................................................::
         :: total energy             -108.315977558316 Eh   ::
         :: zero point energy           0.560515720771 Eh   ::
         :: G(RRHO) w/o ZPVE           -0.063617621616 Eh   ::
         :: G(RRHO) contrib.            0.496898099155 Eh   ::
         :::::::::::::::::::::::::::::::::::::::::::::::::::::

           -------------------------------------------------
          | TOTAL ENERGY             -108.315977558316 Eh   |
          | TOTAL ENTHALPY           -107.717896969236 Eh   |
          | TOTAL FREE ENERGY        -107.819079459161 Eh   |
          | GRADIENT NORM               0.000051769693 Eh/α |
          | HOMO-LUMO GAP               0.444361900001 eV   |
           -------------------------------------------------

 * finished run on 2025/07/20 at 10:21:49.451
