   * xtb version 6.7.1 (edcfbbe) compiled by 'albert@albert-system' on 2024-07-22

   ID    Z sym.   atoms
    1    6 C      1-9, 11-13, 15-31, 33-35, 37-42
    2    7 N      10, 14, 32, 36
    3    1 H      43-72

          program call               : xtb data2507/toluene/DAcIPN/DAcIPN_toluene_T1_crest.xyz --gfn 2 --uhf 2 --gbsa toluene --ohess vtight --parallel 40 --molden --ceasefiles --namespace data2507/toluene/DAcIPN/DAcIPN_toluene_T1_finalOpt
      * Solvation model:               GBSA
        Solvent                        toluene
        Solvent mass                       9.2140E+01 g/mol
          :  Hamiltonian                  GFN2-xTB          :
 * total energy  :  -108.3282018 Eh     change       -0.1837377E-07 Eh
 * total energy  :  -108.3283705 Eh     change       -0.1686851E-03 Eh
 * total energy  :  -108.3284522 Eh     change       -0.8171009E-04 Eh
 * total energy  :  -108.3285365 Eh     change       -0.8433860E-04 Eh
 * total energy  :  -108.3285504 Eh     change       -0.1389793E-04 Eh
 * total energy  :  -108.3286076 Eh     change       -0.5718175E-04 Eh
 * total energy  :  -108.3286305 Eh     change       -0.2287471E-04 Eh
 * total energy  :  -108.3286627 Eh     change       -0.3224028E-04 Eh
 * total energy  :  -108.3286831 Eh     change       -0.2036540E-04 Eh
 * total energy  :  -108.3287074 Eh     change       -0.2431935E-04 Eh
 * total energy  :  -108.3293059 Eh     change       -0.1284453E-05 Eh
 * total energy  :  -108.3293070 Eh     change       -0.1168720E-05 Eh
 * total energy  :  -108.3293081 Eh     change       -0.1068365E-05 Eh
 * total energy  :  -108.3293092 Eh     change       -0.1043948E-05 Eh
 * total energy  :  -108.3293102 Eh     change       -0.1063019E-05 Eh
 * total energy  :  -108.3293114 Eh     change       -0.1139745E-05 Eh
 * total energy  :  -108.3293126 Eh     change       -0.1254144E-05 Eh
 * total energy  :  -108.3293140 Eh     change       -0.1407031E-05 Eh
 * total energy  :  -108.3293140 Eh     change       -0.6925831E-08 Eh
   *** GEOMETRY OPTIMIZATION CONVERGED AFTER 68 ITERATIONS ***

 final structure:
================
72
 xtb: 6.7.1 (edcfbbe)
C           -6.41762608892963        0.32900718105393       -0.16722004513528
C           -5.13239253396727        0.36545604168281       -1.01859605653659
C           -5.48265285094721        0.63224004160631       -2.49654308176132
C           -4.25426827784509        1.48737864444434       -0.51155560047912
C           -4.71918688217258        2.79530596267500       -0.54486354223156
C           -3.96834673655331        3.85303073410374       -0.06552822542754
C           -2.71574026020617        3.61153401218933        0.48039141698506
C           -2.22878868398938        2.32609205890918        0.52596778088269
C           -2.97744284797977        1.25059982164136        0.02472079143066
N           -2.44948479101380       -0.02225627100612        0.06919593635996
C           -1.20394950511658       -0.23950317615871        0.71935307182873
C           -0.00201369693296       -0.01645929891226        0.07490295591453
C            1.20388142309901       -0.23270370554157        0.71460584577229
N            2.44615019800711       -0.01073539992465        0.06008210630105
C            3.15645132587066       -1.10246196520779       -0.39096376303688
C            2.56289419402272       -2.37333250183419       -0.34528756599027
C            3.24753258235876       -3.48920262749746       -0.76661647750333
C            4.54137586290960       -3.36015569356955       -1.25111974849894
C            5.12330098137644       -2.10743214857295       -1.31976003398115
C            4.45608938473260       -0.96301933528681       -0.90522325056640
C            5.13433538089457        0.38410481431771       -1.01263300942247
C            5.49799911448562        0.63906785701006       -2.48949882728326
C            6.41113417172576        0.36372134717026       -0.14820726930421
C            4.24391325148017        1.50536027120441       -0.52603720023809
C            4.70021287405347        2.81600531712259       -0.57032367276228
C            3.93676632761053        3.87432150048216       -0.11266706484887
C            2.67951730218540        3.63092604614798        0.42161328516939
C            2.20173640616131        2.34252837042962        0.47954023040001
C            2.96383057485507        1.26592974108890        0.00135712637908
C            1.21629364155548       -0.70203152493018        2.08806737719953
C            2.42369493606502       -0.91438154505005        2.74094752978237
N            3.43949499283486       -1.08727501590677        3.27152516832529
C            0.00553765957901       -0.91941748927477        2.73267328232851
C           -1.20889102594055       -0.70877983966429        2.09278149154844
C           -2.41331013708179       -0.92750375538484        2.74894601823072
N           -3.42728485414205       -1.10547639701552        3.28135350792123
C           -3.15022262200065       -1.11465366377882       -0.39470674254154
C           -2.55016915965885       -2.38256945815730       -0.35346968913341
C           -3.22555631809532       -3.49903727833028       -0.78800660107315
C           -4.51612129544166       -3.37338761534913       -1.28203904898226
C           -5.10450733551244       -2.12342563561608       -1.34568496618948
C           -4.44704978034488       -0.97857796770981       -0.91693039470161
H           -7.08712780609587       -0.45173474265737       -0.51543499470549
H           -6.16780183990240        0.12910188046698        0.87340935615467
H           -6.94088202949071        1.27910902621507       -0.21950932541732
H           -4.57321551353006        0.67012763870025       -3.09322101939021
H           -6.11921987344114       -0.15513258011567       -2.88810600831637
H           -6.00546164504723        1.57769780876382       -2.60275276639590
H           -5.69733848974245        2.99972976978047       -0.95085684071593
H           -4.36022848071436        4.85756156037832       -0.10815547110655
H           -2.12277168929063        4.42377593595443        0.87237044297223
H           -1.26165257317000        2.13269275385144        0.96177577234727
H           -0.00510223705674        0.32979034163410       -0.94977796771882
H            1.55522245242407       -2.47044088505244        0.02701506154553
H            2.77471497417292       -4.45833576959985       -0.71805931800522
H            5.09052270103073       -4.23008572151288       -1.57692722450303
H            6.12709733363901       -2.02589306941888       -1.70591586507574
H            6.01662156076342        1.58639071804878       -2.59931692958553
H            6.14292575119461       -0.14821296757955       -2.86726692358039
H            4.59444560917771        0.66621120180049       -3.09562933680936
H            6.15220631187319        0.17266412990194        0.89182115217466
H            7.08843254958248       -0.41661671786845       -0.48200593142273
H            6.92939125210172        1.31633238378901       -0.20481815133335
H            5.68132527438776        3.02232457008383       -0.96810279654461
H            4.32222238812854        4.88094705527406       -0.16353594035439
H            2.07592851369457        4.44396670329181        0.79527997310653
H            1.23125357698047        2.14791753900656        0.90712374315456
H            0.00854880339627       -1.26343552641632        3.75922633701509
H           -1.54519043079279       -2.47704893990130        0.02668875760414
H           -2.74811413780325       -4.46602516922078       -0.74218912419885
H           -5.05766624034573       -4.24377692231400       -1.61913071035806
H           -6.10562665981455       -2.04446838067982       -1.73926456055622

          :  Hamiltonian                  GFN2-xTB          :
         :: gradient norm              0.000070614063 Eh/a0 ::
         :: HOMO-LUMO gap              0.537637814928 eV    ::
         :: SCC energy              -110.323744018852 Eh    ::
         :: -> dispersion             -0.105723608196 Eh    ::
         :: -> Gsolv                  -0.056564039821 Eh    ::
         :: repulsion energy           1.994429989525 Eh    ::

    * Orbital Energies and Occupations

         #    Occupation            Energy/Eh            Energy/eV
      -------------------------------------------------------------
         1        2.0000           -0.6856201             -18.6567
       ...           ...                  ...                  ...
        90        2.0000           -0.4207913             -11.4503
        91        2.0000           -0.4200627             -11.4305
        92        2.0000           -0.4155387             -11.3074
        93        2.0000           -0.4153327             -11.3018
        94        2.0000           -0.4136226             -11.2552
        95        2.0000           -0.4102365             -11.1631
        96        2.0000           -0.4094069             -11.1405
        97        2.0000           -0.4090020             -11.1295
        98        2.0000           -0.4047707             -11.0144
        99        2.0000           -0.3930930             -10.6966
       100        1.7110           -0.3661585              -9.9637
       101        1.2890           -0.3644476              -9.9171
       102        1.0000           -0.2727202              -7.4211 (HOMO)
       103        0.0000           -0.2529624              -6.8835 (LUMO)
       104                         -0.2439036              -6.6370
       105                         -0.2437991              -6.6341
       106                         -0.2359218              -6.4198
       107                         -0.2358164              -6.4169
       108                         -0.2348360              -6.3902
       109                         -0.2346283              -6.3846
       110                         -0.2100422              -5.7155
       111                         -0.2089299              -5.6853
       112                         -0.1979052              -5.3853
       113                         -0.1884736              -5.1286
       ...                                ...                  ...
       198                          1.1612511              31.5992
      -------------------------------------------------------------
                  HL-Gap            0.0197578 Eh            0.5376 eV

     #   Z          covCN         q      C6AA      α(0)
     1   6 C        3.761    -0.106    22.574     6.773
     2   6 C        3.909     0.025    20.103     6.373
     3   6 C        3.761    -0.108    22.618     6.780
     4   6 C        2.978    -0.001    28.043     8.686
     5   6 C        2.925    -0.033    28.817     8.803
     6   6 C        2.918    -0.031    28.766     8.795
     7   6 C        2.917    -0.028    28.700     8.785
     8   6 C        2.923    -0.046    29.139     8.852
     9   6 C        2.930     0.064    26.577     8.454
    10   7 N        2.753    -0.023    21.699     6.918
    11   6 C        2.927     0.012    27.744     8.638
    12   6 C        2.908    -0.048    29.201     8.861
    13   6 C        2.927     0.012    27.746     8.638
    14   7 N        2.753    -0.023    21.697     6.918
    15   6 C        2.932     0.065    26.543     8.449
    16   6 C        2.923    -0.045    29.109     8.848
    17   6 C        2.917    -0.028    28.700     8.785
    18   6 C        2.918    -0.030    28.752     8.793
    19   6 C        2.925    -0.033    28.817     8.803
    20   6 C        2.978    -0.000    28.030     8.684
    21   6 C        3.909     0.025    20.103     6.373
    22   6 C        3.761    -0.108    22.619     6.780
    23   6 C        3.761    -0.106    22.572     6.773
    24   6 C        2.978    -0.001    28.042     8.686
    25   6 C        2.925    -0.033    28.817     8.803
    26   6 C        2.918    -0.031    28.766     8.795
    27   6 C        2.917    -0.028    28.700     8.785
    28   6 C        2.923    -0.046    29.142     8.853
    29   6 C        2.929     0.063    26.578     8.455
    30   6 C        2.962    -0.030    28.750     8.795
    31   6 C        1.911     0.100    28.610     8.638
    32   7 N        0.911    -0.360    29.274     7.825
    33   6 C        2.930    -0.019    28.473     8.751
    34   6 C        2.962    -0.030    28.750     8.795
    35   6 C        1.911     0.100    28.610     8.638
    36   7 N        0.911    -0.360    29.274     7.825
    37   6 C        2.932     0.065    26.543     8.449
    38   6 C        2.923    -0.045    29.110     8.848
    39   6 C        2.917    -0.028    28.700     8.785
    40   6 C        2.918    -0.030    28.753     8.793
    41   6 C        2.925    -0.033    28.817     8.803
    42   6 C        2.978    -0.000    28.032     8.685
    43   1 H        0.925     0.053     2.286     2.364
    44   1 H        0.925     0.035     2.512     2.478
    45   1 H        0.925     0.053     2.285     2.364
    46   1 H        0.925     0.039     2.468     2.457
    47   1 H        0.925     0.053     2.277     2.360
    48   1 H        0.925     0.054     2.269     2.356
    49   1 H        0.926     0.052     2.294     2.368
    50   1 H        0.926     0.047     2.360     2.403
    51   1 H        0.926     0.044     2.397     2.421
    52   1 H        0.926     0.037     2.495     2.470
    53   1 H        0.925     0.033     2.542     2.493
    54   1 H        0.926     0.036     2.503     2.474
    55   1 H        0.926     0.043     2.411     2.428
    56   1 H        0.926     0.047     2.359     2.402
    57   1 H        0.926     0.052     2.290     2.366
    58   1 H        0.925     0.054     2.269     2.356
    59   1 H        0.925     0.053     2.277     2.360
    60   1 H        0.925     0.039     2.467     2.456
    61   1 H        0.925     0.035     2.511     2.478
    62   1 H        0.925     0.053     2.287     2.365
    63   1 H        0.925     0.053     2.285     2.364
    64   1 H        0.926     0.052     2.294     2.368
    65   1 H        0.926     0.047     2.360     2.403
    66   1 H        0.926     0.044     2.396     2.421
    67   1 H        0.926     0.037     2.489     2.467
    68   1 H        0.925     0.017     2.780     2.607
    69   1 H        0.926     0.036     2.503     2.474
    70   1 H        0.926     0.043     2.411     2.428
    71   1 H        0.926     0.047     2.359     2.402
    72   1 H        0.926     0.052     2.290     2.366

molecular dipole:
                 x           y           z       tot (Debye)
 q only:       -0.004       1.581      -4.648
   full:       -0.004       1.592      -4.697      12.605

 projected vibrational frequencies (cm⁻¹)
eigval :       -0.00    -0.00     0.00     0.00     0.00     0.00
eigval :       -7.56    12.94    16.70    25.82    34.76    38.13
eigval :       44.98    55.32    80.01    82.60    89.05    94.97
eigval :       95.85   102.80   123.89   127.50   130.07   131.73
eigval :      134.96   186.61   188.02   194.56   195.67   215.07
eigval :      215.90   233.82   236.61   238.39   264.34   280.21
eigval :      303.05   307.22   323.89   324.08   329.53   333.68
eigval :      339.35   354.25   362.97   369.26   379.54   384.34
eigval :      390.67   405.66   412.02   440.24   447.08   449.54
eigval :      458.18   476.86   497.80   500.85   501.73   506.30
eigval :      523.88   532.19   535.03   540.67   542.23   557.86
eigval :      568.30   582.56   585.86   590.10   608.08   624.25
eigval :      629.86   648.22   662.48   680.79   688.48   688.81
eigval :      702.84   703.15   718.08   736.76   765.15   768.15
eigval :      770.10   772.93   824.49   825.00   850.55   861.66
eigval :      863.83   865.24   870.22   875.71   876.30   876.72
eigval :      906.20   908.71   912.60   913.67   914.15   915.28
eigval :      917.57   919.73   921.86   922.28   935.90   936.49
eigval :      958.14   958.46  1011.44  1011.49  1056.29  1072.38
eigval :     1072.81  1077.48  1100.16  1104.33  1108.33  1109.41
eigval :     1124.52  1134.70  1136.35  1143.44  1143.62  1149.93
eigval :     1155.23  1176.33  1178.35  1178.80  1179.45  1181.38
eigval :     1184.69  1194.69  1227.52  1231.01  1234.80  1238.51
eigval :     1248.28  1251.38  1261.93  1283.91  1292.26  1292.37
eigval :     1298.27  1303.37  1305.26  1329.59  1329.73  1336.24
eigval :     1336.72  1338.96  1374.13  1396.34  1396.65  1398.71
eigval :     1411.01  1411.82  1415.02  1415.28  1425.52  1428.75
eigval :     1446.95  1451.98  1453.37  1455.08  1471.45  1476.15
eigval :     1478.94  1479.06  1481.58  1481.79  1489.81  1489.99
eigval :     1496.07  1496.47  1547.58  1547.91  1559.44  1562.43
eigval :     1576.01  1576.30  1586.65  1589.36  2226.31  2308.13
eigval :     3027.54  3027.78  3029.25  3029.51  3048.79  3048.88
eigval :     3052.37  3052.51  3055.26  3055.32  3058.30  3060.77
eigval :     3060.96  3070.17  3085.76  3085.94  3086.16  3086.49
eigval :     3092.37  3092.58  3092.84  3093.17  3101.16  3101.60
eigval :     3102.50  3103.06  3105.18  3106.29  3107.56  3109.68

   temp. (K)  partition function   enthalpy   heat capacity  entropy
                                   cal/mol     cal/K/mol   cal/K/mol   J/K/mol
 298.15  VIB  0.358E+17            21515.526    133.786    133.844
         ROT  0.422E+08              888.752      2.981     37.873
         INT  0.151E+25            22404.279    136.767    171.717
         TR   0.122E+29             1481.254      4.968     44.739
         TOT                       23885.5328   141.7353   216.4560   905.6519

       T/K    H(0)-H(T)+PV         H(T)/Eh          T*S/Eh         G(T)/Eh
   ------------------------------------------------------------------------
    298.15    0.380640E-01    0.598247E+00    0.102845E+00    0.495402E+00
   ------------------------------------------------------------------------

         :::::::::::::::::::::::::::::::::::::::::::::::::::::
         ::                  THERMODYNAMIC                  ::
         :::::::::::::::::::::::::::::::::::::::::::::::::::::
         :: total free energy        -107.833912122549 Eh   ::
         ::.................................................::
         :: total energy             -108.329314028924 Eh   ::
         :: zero point energy           0.560183112860 Eh   ::
         :: G(RRHO) w/o ZPVE           -0.064781206485 Eh   ::
         :: G(RRHO) contrib.            0.495401906375 Eh   ::
         :::::::::::::::::::::::::::::::::::::::::::::::::::::

           -------------------------------------------------
          | TOTAL ENERGY             -108.329314028924 Eh   |
          | TOTAL ENTHALPY           -107.731066896712 Eh   |
          | TOTAL FREE ENERGY        -107.833912122549 Eh   |
          | GRADIENT NORM               0.000070648332 Eh/α |
          | HOMO-LUMO GAP               0.537637819139 eV   |
           -------------------------------------------------

 * finished run on 2025/07/20 at 10:26:03.977
