   * xtb version 6.7.1 (edcfbbe) compiled by 'albert@albert-system' on 2024-07-22

   ID    Z sym.   atoms
    1    6 C      1-9, 11-13, 15-31, 33-35, 37-42
    2    7 N      10, 14, 32, 36
    3    1 H      43-72

          program call               : xtb data2507/toluene/DAcIPN/DAcIPN_toluene_S0_crest.xyz --gfn 2 --gbsa toluene --ohess vtight --parallel 40 --molden --ceasefiles --namespace data2507/toluene/DAcIPN/DAcIPN_toluene_S0_finalOpt
      * Solvation model:               GBSA
        Solvent                        toluene
        Solvent mass                       9.2140E+01 g/mol
          :  Hamiltonian                  GFN2-xTB          :
 * total energy  :  -108.4012667 Eh     change       -0.1555506E-08 Eh
 * total energy  :  -108.4013899 Eh     change       -0.1231488E-03 Eh
 * total energy  :  -108.4014359 Eh     change       -0.4601056E-04 Eh
 * total energy  :  -108.4014647 Eh     change       -0.2879999E-04 Eh
 * total energy  :  -108.4014832 Eh     change       -0.1851017E-04 Eh
 * total energy  :  -108.4014973 Eh     change       -0.1409250E-04 Eh
 * total energy  :  -108.4015047 Eh     change       -0.7385720E-05 Eh
 * total energy  :  -108.4015101 Eh     change       -0.5452157E-05 Eh
 * total energy  :  -108.4015158 Eh     change       -0.5640945E-05 Eh
 * total energy  :  -108.4015201 Eh     change       -0.4367956E-05 Eh
 * total energy  :  -108.4015553 Eh     change       -0.2279727E-06 Eh
 * total energy  :  -108.4015555 Eh     change       -0.2072838E-06 Eh
 * total energy  :  -108.4015557 Eh     change       -0.1822198E-06 Eh
 * total energy  :  -108.4015558 Eh     change       -0.1456517E-06 Eh
 * total energy  :  -108.4015559 Eh     change       -0.1234169E-06 Eh
 * total energy  :  -108.4015561 Eh     change       -0.1115841E-06 Eh
 * total energy  :  -108.4015562 Eh     change       -0.1085215E-06 Eh
 * total energy  :  -108.4015563 Eh     change       -0.1000520E-06 Eh
 * total energy  :  -108.4015564 Eh     change       -0.9578920E-07 Eh
   *** GEOMETRY OPTIMIZATION CONVERGED AFTER 39 ITERATIONS ***

 final structure:
================
72
 xtb: 6.7.1 (edcfbbe)
C           -3.56318416072193       -0.46156441126855       -2.42520923274767
C           -4.35018279677444        0.55677221127449       -1.57565829938182
C           -5.56637098492249        1.00466667420818       -2.38641125722699
C           -4.74430242186502       -0.08374572928786       -0.25429216426236
C           -6.03087010445492       -0.46552265385002        0.09259242273468
C           -6.29984426363521       -0.99277563998417        1.34510609689797
C           -5.29221197009499       -1.12527985730945        2.28383168344666
C           -4.00131535642340       -0.75360802606707        1.95889663421489
C           -3.73037686537093       -0.26691896757228        0.68759661047702
N           -2.43422391236785        0.19717694182735        0.35748232883686
C           -1.31874448365611       -0.57033964282621        0.44077859402300
C           -0.04327353003786       -0.03710833617571        0.17859112073572
C            1.11025916428444       -0.77157237985137        0.33953577807964
N            2.36812240911277       -0.17743072467690        0.09977410157181
C            3.13068465983350       -0.64845065845881       -0.96587764503451
C            2.54567365691364       -1.50325553131597       -1.90375413700712
C            3.27482507875374       -2.00353726159337       -2.96221333540776
C            4.60135050756617       -1.64281862789286       -3.11247217682716
C            5.16746243530157       -0.75946814799396       -2.21233929085738
C            4.45485687455523       -0.23910185114097       -1.14002181262244
C            5.12157162031579        0.75822486772222       -0.21290657609132
C            5.58112929976955        1.97005591115243       -1.04565595025122
C            6.33107771091862        0.07880758320732        0.45611174776993
C            4.17897983419522        1.23699338224093        0.87482869913454
C            4.62890492289374        2.17261687812586        1.79772272285888
C            3.83892466589238        2.61992838899702        2.84016632168545
C            2.56491957271592        2.10362443969564        2.98870892315667
C            2.09345224490419        1.17283713305173        2.08614392760435
C            2.87657108322587        0.74599362456855        1.01036750104343
C            1.03567835463240       -2.12092323237893        0.75272171475534
C            2.20437248352077       -2.86870709469624        0.98502094443340
N            3.15516394949433       -3.47743418365008        1.19690267114843
C           -0.21616435703334       -2.70350328253508        0.89791812517443
C           -1.38294740300835       -1.96279572798996        0.72424465084230
C           -2.57190541807054       -2.72134692979139        0.72775096365575
N           -3.43999095522304       -3.47327097046030        0.67036704310048
C           -2.48081204561932        1.49629911546962       -0.21069596561212
C           -1.69409825706205        2.53410736778767        0.26939992193689
C           -1.79365879359951        3.79059478977058       -0.30165290665422
C           -2.69670909370825        4.00934062711406       -1.32617845225938
C           -3.52630878618780        2.98689423168600       -1.75728872696105
C           -3.44121371606980        1.71847638309418       -1.20331842281870
H           -3.25705769019216       -0.00124833737156       -3.36220123057263
H           -2.67290376346950       -0.82000293458442       -1.91562915244619
H           -4.19308502824538       -1.32085144125320       -2.64517837603256
H           -6.15921793927448        1.72949824645415       -1.83357496173296
H           -5.24737049719514        1.44651504846855       -3.32672818649485
H           -6.18726553421499        0.14570059693449       -2.62682772423099
H           -6.84060196823895       -0.35268968589501       -0.60901589991531
H           -7.30815945484574       -1.28756325699488        1.59330791859221
H           -5.50743713769910       -1.51103801850520        3.26837292402050
H           -3.20592475715803       -0.83539770159850        2.68603442638788
H            0.05006682157205        0.97788949908397       -0.17152222344567
H            1.50586137315458       -1.77903653870178       -1.80683402328273
H            2.80208028038063       -2.67115482308106       -3.66737065164196
H            5.18753658220341       -2.03531541682825       -3.92947388136477
H            6.19781329993386       -0.47106199941429       -2.35289739055221
H            6.27042861060174        1.66360099248876       -1.82697681190206
H            4.72099670098954        2.44617789535097       -1.51347775569824
H            6.08222195768371        2.70299041487536       -0.42012064496456
H            5.99930188870409       -0.78145398976858        1.03562211918709
H            7.04182890363924       -0.26545822835247       -0.28991202335469
H            6.84200531663310        0.76663774315731        1.12417265972886
H            5.63068162048804        2.56344990160917        1.70779692522596
H            4.22066225392212        3.35135097356217        3.53613621151796
H            1.93609225657586        2.41771813389551        3.80884335691958
H            1.10568182297826        0.76218080462683        2.22802810541992
H           -0.29367192492453       -3.75385256103628        1.14044428024793
H           -1.02643418939693        2.37089454485889        1.10170369460465
H           -1.17445969149181        4.59485792735044        0.06545082509042
H           -2.77537154715941        4.98668538543023       -1.77776855263257
H           -4.24639324704534        3.19377579831938       -2.53125909267498

          :  Hamiltonian                  GFN2-xTB          :
         :: gradient norm              0.000030079420 Eh/a0 ::
         :: HOMO-LUMO gap              1.861317729032 eV    ::
         :: SCC energy              -110.414221367133 Eh    ::
         :: -> dispersion             -0.107191859930 Eh    ::
         :: -> Gsolv                  -0.047384877011 Eh    ::
         :: repulsion energy           2.012665002338 Eh    ::

    * Orbital Energies and Occupations

         #    Occupation            Energy/Eh            Energy/eV
      -------------------------------------------------------------
         1        2.0000           -0.6970751             -18.9684
       ...           ...                  ...                  ...
        89        2.0000           -0.4288103             -11.6685
        90        2.0000           -0.4277485             -11.6396
        91        2.0000           -0.4225968             -11.4994
        92        2.0000           -0.4141628             -11.2699
        93        2.0000           -0.4137361             -11.2583
        94        2.0000           -0.4120410             -11.2122
        95        2.0000           -0.4101781             -11.1615
        96        2.0000           -0.4088582             -11.1256
        97        2.0000           -0.4085150             -11.1163
        98        2.0000           -0.4028648             -10.9625
        99        2.0000           -0.3973227             -10.8117
       100        2.0000           -0.3794413             -10.3251
       101        2.0000           -0.3548985              -9.6573 (HOMO)
       102                         -0.2864963              -7.7960 (LUMO)
       103                         -0.2772694              -7.5449
       104                         -0.2413544              -6.5676
       105                         -0.2380894              -6.4787
       106                         -0.2347109              -6.3868
       107                         -0.2325192              -6.3272
       108                         -0.2298027              -6.2533
       109                         -0.2247751              -6.1164
       110                         -0.2237542              -6.0887
       111                         -0.2203183              -5.9952
       112                         -0.2099013              -5.7117
       ...                                ...                  ...
       198                          1.1575248              31.4979
      -------------------------------------------------------------
                  HL-Gap            0.0684022 Eh            1.8613 eV

     #   Z          covCN         q      C6AA      α(0)
     1   6 C        3.761    -0.097    22.396     6.746
     2   6 C        3.910     0.024    20.118     6.375
     3   6 C        3.759    -0.112    22.696     6.792
     4   6 C        2.987    -0.003    28.092     8.694
     5   6 C        2.924    -0.035    28.875     8.812
     6   6 C        2.920    -0.030    28.755     8.794
     7   6 C        2.920    -0.029    28.720     8.788
     8   6 C        2.920    -0.040    28.990     8.829
     9   6 C        2.957     0.051    26.845     8.498
    10   7 N        2.754    -0.050    22.198     6.998
    11   6 C        2.909     0.082    26.182     8.390
    12   6 C        2.925    -0.071    29.763     8.947
    13   6 C        2.929     0.084    26.124     8.382
    14   7 N        2.754    -0.081    22.816     7.094
    15   6 C        2.929     0.059    26.674     8.470
    16   6 C        2.925    -0.058    29.439     8.898
    17   6 C        2.920    -0.034    28.854     8.809
    18   6 C        2.917    -0.043    29.075     8.842
    19   6 C        2.928    -0.036    28.904     8.817
    20   6 C        2.979    -0.011    28.290     8.725
    21   6 C        3.909     0.021    20.158     6.382
    22   6 C        3.761    -0.105    22.563     6.771
    23   6 C        3.761    -0.104    22.525     6.766
    24   6 C        2.979    -0.012    28.300     8.726
    25   6 C        2.929    -0.036    28.902     8.816
    26   6 C        2.917    -0.044    29.096     8.845
    27   6 C        2.920    -0.034    28.856     8.809
    28   6 C        2.924    -0.060    29.502     8.907
    29   6 C        2.925     0.058    26.694     8.473
    30   6 C        2.969    -0.013    28.325     8.730
    31   6 C        1.910     0.123    28.086     8.559
    32   7 N        0.911    -0.280    27.231     7.547
    33   6 C        2.948    -0.015    28.382     8.738
    34   6 C        2.971    -0.017    28.418     8.744
    35   6 C        1.921     0.120    28.133     8.566
    36   7 N        0.911    -0.285    27.356     7.565
    37   6 C        2.952     0.051    26.861     8.501
    38   6 C        2.919    -0.044    29.102     8.846
    39   6 C        2.920    -0.031    28.777     8.797
    40   6 C        2.919    -0.032    28.799     8.800
    41   6 C        2.923    -0.035    28.877     8.812
    42   6 C        2.987    -0.002    28.072     8.691
    43   1 H        0.925     0.047     2.352     2.398
    44   1 H        0.925     0.024     2.669     2.555
    45   1 H        0.925     0.044     2.395     2.420
    46   1 H        0.925     0.046     2.374     2.409
    47   1 H        0.925     0.050     2.323     2.383
    48   1 H        0.925     0.049     2.334     2.389
    49   1 H        0.926     0.056     2.248     2.345
    50   1 H        0.926     0.046     2.364     2.405
    51   1 H        0.926     0.043     2.409     2.427
    52   1 H        0.926     0.031     2.569     2.507
    53   1 H        0.926     0.063     2.168     2.302
    54   1 H        0.926     0.015     2.810     2.622
    55   1 H        0.926     0.030     2.592     2.518
    56   1 H        0.926     0.032     2.561     2.502
    57   1 H        0.926     0.039     2.466     2.456
    58   1 H        0.925     0.044     2.392     2.419
    59   1 H        0.925     0.032     2.553     2.499
    60   1 H        0.925     0.045     2.381     2.413
    61   1 H        0.925     0.030     2.593     2.518
    62   1 H        0.925     0.044     2.396     2.421
    63   1 H        0.925     0.044     2.392     2.419
    64   1 H        0.926     0.038     2.477     2.461
    65   1 H        0.926     0.031     2.570     2.507
    66   1 H        0.926     0.031     2.578     2.511
    67   1 H        0.926     0.020     2.733     2.585
    68   1 H        0.926     0.045     2.377     2.411
    69   1 H        0.926     0.044     2.401     2.423
    70   1 H        0.926     0.044     2.397     2.421
    71   1 H        0.926     0.045     2.383     2.414
    72   1 H        0.926     0.055     2.255     2.348

molecular dipole:
                 x           y           z       tot (Debye)
 q only:       -1.522       2.874      -0.963
   full:       -1.487       3.084      -0.876       8.984

 projected vibrational frequencies (cm⁻¹)
eigval :       -0.00    -0.00    -0.00     0.00     0.00     0.00
eigval :       13.04    18.63    25.17    32.14    44.21    47.58
eigval :       62.88    72.38    76.92    98.50   103.97   109.86
eigval :      124.89   128.48   131.36   137.75   139.90   161.10
eigval :      186.45   188.20   193.12   194.72   205.13   221.16
eigval :      230.55   239.86   246.16   266.12   277.46   291.42
eigval :      306.95   312.11   322.77   332.03   339.99   345.73
eigval :      350.21   359.26   375.87   379.69   385.49   400.88
eigval :      407.68   410.11   424.83   451.57   452.15   479.02
eigval :      486.71   491.89   493.26   499.39   509.03   514.66
eigval :      520.72   542.41   547.66   556.62   560.87   570.41
eigval :      575.70   585.11   589.77   593.25   642.00   644.11
eigval :      648.19   670.82   682.17   685.17   689.20   693.66
eigval :      694.64   719.71   725.01   741.09   777.14   778.03
eigval :      778.81   786.37   808.92   824.61   846.03   867.64
eigval :      868.77   871.18   883.92   886.73   891.66   892.33
eigval :      909.84   912.91   915.42   916.44   919.60   920.50
eigval :      921.68   924.13   931.43   936.29   938.48   946.52
eigval :      958.01   967.56  1011.08  1014.56  1061.39  1071.93
eigval :     1075.98  1077.65  1099.10  1105.35  1113.86  1119.85
eigval :     1136.84  1138.62  1140.07  1153.02  1158.59  1164.50
eigval :     1174.93  1180.76  1182.45  1186.07  1186.82  1188.38
eigval :     1190.09  1224.03  1226.44  1235.61  1246.29  1249.28
eigval :     1258.13  1264.96  1267.65  1271.42  1279.98  1293.60
eigval :     1298.00  1318.59  1319.81  1325.81  1328.13  1330.79
eigval :     1332.75  1355.58  1397.35  1400.05  1414.78  1418.91
eigval :     1427.78  1434.91  1436.64  1437.07  1439.50  1450.42
eigval :     1462.26  1476.28  1482.59  1485.76  1486.54  1489.15
eigval :     1490.44  1493.18  1494.68  1495.80  1502.37  1503.80
eigval :     1517.67  1558.68  1575.87  1576.07  1584.47  1588.03
eigval :     1590.98  1591.67  1596.94  1600.63  2337.24  2354.53
eigval :     3022.59  3024.96  3029.09  3030.74  3036.13  3037.68
eigval :     3041.04  3044.54  3049.08  3050.03  3052.88  3055.11
eigval :     3072.83  3075.01  3075.32  3080.83  3083.31  3084.15
eigval :     3086.38  3086.98  3087.28  3088.29  3093.57  3096.72
eigval :     3098.76  3099.37  3099.59  3117.97  3119.79  3121.22

   temp. (K)  partition function   enthalpy   heat capacity  entropy
                                   cal/mol     cal/K/mol   cal/K/mol   J/K/mol
 298.15  VIB  0.574E+15            20823.881    133.126    126.975
         ROT  0.405E+08              888.752      2.981     37.793
         INT  0.233E+23            21712.633    136.107    164.768
         TR   0.122E+29             1481.254      4.968     44.739
         TOT                       23193.8869   141.0748   209.5076   876.5798

       T/K    H(0)-H(T)+PV         H(T)/Eh          T*S/Eh         G(T)/Eh
   ------------------------------------------------------------------------
    298.15    0.369618E-01    0.601612E+00    0.995438E-01    0.502068E+00
   ------------------------------------------------------------------------

         :::::::::::::::::::::::::::::::::::::::::::::::::::::
         ::                  THERMODYNAMIC                  ::
         :::::::::::::::::::::::::::::::::::::::::::::::::::::
         :: total free energy        -107.899488507018 Eh   ::
         ::.................................................::
         :: total energy             -108.401556367002 Eh   ::
         :: zero point energy           0.564649874764 Eh   ::
         :: G(RRHO) w/o ZPVE           -0.062582014780 Eh   ::
         :: G(RRHO) contrib.            0.502067859984 Eh   ::
         :::::::::::::::::::::::::::::::::::::::::::::::::::::

           -------------------------------------------------
          | TOTAL ENERGY             -108.401556367002 Eh   |
          | TOTAL ENTHALPY           -107.799944680803 Eh   |
          | TOTAL FREE ENERGY        -107.899488507018 Eh   |
          | GRADIENT NORM               0.000030140078 Eh/α |
          | HOMO-LUMO GAP               1.861317804490 eV   |
           -------------------------------------------------

 * finished run on 2025/07/20 at 10:21:41.321
