   * xtb version 6.7.1 (edcfbbe) compiled by 'albert@albert-system' on 2024-07-22

   ID    Z sym.   atoms
    1    6 C      1-9, 11-13, 15-31, 33-35, 37-42
    2    7 N      10, 14, 32, 36
    3    1 H      43-72

          program call               : xtb data2507/toluene/DAcIPN/DAcIPN.xyz --gfn 2 --gbsa toluene --ohess vtight --parallel 40 --molden --ceasefiles --namespace data2507/toluene/DAcIPN/DAcIPN_toluene_S0_preOpt
      * Solvation model:               GBSA
        Solvent                        toluene
        Solvent mass                       9.2140E+01 g/mol
          :  Hamiltonian                  GFN2-xTB          :
 * total energy  :  -108.3716099 Eh     change       -0.1013007E-08 Eh
 * total energy  :  -108.3890723 Eh     change       -0.1746242E-01 Eh
 * total energy  :  -108.3950702 Eh     change       -0.5997951E-02 Eh
 * total energy  :  -108.3962892 Eh     change       -0.1218947E-02 Eh
 * total energy  :  -108.3969230 Eh     change       -0.6338730E-03 Eh
 * total energy  :  -108.3971162 Eh     change       -0.1931221E-03 Eh
 * total energy  :  -108.3971812 Eh     change       -0.6505196E-04 Eh
 * total energy  :  -108.3971555 Eh     change        0.2571845E-04 Eh
 * total energy  :  -108.3972313 Eh     change       -0.7583752E-04 Eh
 * total energy  :  -108.3972443 Eh     change       -0.1293158E-04 Eh
 * total energy  :  -108.3990473 Eh     change       -0.9842205E-06 Eh
 * total energy  :  -108.3990489 Eh     change       -0.1636524E-05 Eh
 * total energy  :  -108.3990516 Eh     change       -0.2647973E-05 Eh
 * total energy  :  -108.3990543 Eh     change       -0.2746376E-05 Eh
 * total energy  :  -108.3990559 Eh     change       -0.1605396E-05 Eh
 * total energy  :  -108.3990567 Eh     change       -0.8154739E-06 Eh
 * total energy  :  -108.3990574 Eh     change       -0.6394637E-06 Eh
 * total energy  :  -108.3990580 Eh     change       -0.5944176E-06 Eh
 * total energy  :  -108.3990580 Eh     change       -0.4736521E-08 Eh
   *** GEOMETRY OPTIMIZATION CONVERGED AFTER 185 ITERATIONS ***

 final structure:
================
72
 xtb: 6.7.1 (edcfbbe)
C           -6.38386361977680       -0.46360918472567        0.01190470240886
C           -5.08735711202729       -0.23696282593226        0.81194049778055
C           -5.38685109810540       -0.20332443035788        2.32242152999524
C           -4.14157575735324       -1.38661359583475        0.52438135209475
C           -4.53152188072630       -2.68315740692782        0.83578873551633
C           -3.73986551962134       -3.77974761298282        0.54992354032457
C           -2.53128127374237       -3.58987455289336       -0.09455179572842
C           -2.12011991299100       -2.31224959589588       -0.41301261717947
C           -2.89686186633770       -1.19957477185715       -0.08275112968736
N           -2.44334537640143        0.08041177218237       -0.39859165869871
C           -1.21497756746902        0.23548948917048       -1.06800642358343
C           -0.01448483418845        0.04034026336730       -0.39826125850049
C            1.20678935441877        0.24636908028550       -1.03132076870860
N            2.41668530541846        0.11009851537697       -0.33393068853751
C            3.22794351114113        1.23911144221244       -0.18921885462646
C            2.71108124385900        2.50149836831979       -0.49284508156312
C            3.48843460959820        3.63529253499555       -0.38244799741347
C            4.79634223319042        3.52951722167034        0.05435966802302
C            5.28940129608640        2.28957327329859        0.41275570087208
C            4.52504048391964        1.13323308672922        0.31618792022279
C            5.10714512132615       -0.18459844986305        0.78571305257580
C            5.50865135296786       -0.03988711126147        2.26602311457697
C            6.34084590318746       -0.51646052506817       -0.07446231498279
C            4.11176490364631       -1.32063695107191        0.65371674875360
C            4.48378828623283       -2.59540779601649        1.06360754779957
C            3.64998985069088       -3.68836009993037        0.92305959180612
C            2.41331218130376       -3.51952760308756        0.32818102130172
C            2.02087018670290       -2.26475408941014       -0.08909412643588
C            2.84313554341150       -1.15054243437698        0.09187686254144
C            1.21524887465416        0.63322529431655       -2.38976455108428
C            2.44128215497503        0.81279770957103       -3.06896118496303
N            3.42864296165921        0.93636497738166       -3.63944900954664
C            0.01980543419578        0.81928249758668       -3.07508493523918
C           -1.19391409871956        0.62605805367372       -2.42372760103249
C           -2.40780046459025        0.80369101618838       -3.12371641382462
N           -3.39221665089502        0.92945668393742       -3.69893261285351
C           -3.22213238416020        1.21276281096332       -0.15736626716232
C           -2.70180746406275        2.48055794996970       -0.42880827041631
C           -3.44929631695191        3.61892424716895       -0.20972464438998
C           -4.72891928565646        3.51086971776534        0.30299286198024
C           -5.22727689929456        2.26025570579431        0.61552566311392
C           -4.49523549846267        1.09842090802046        0.40583005580712
H           -7.10066446124122        0.32917296186913        0.20562661373923
H           -6.16366300584911       -0.47398729650814       -1.05458982114754
H           -6.84327506777565       -1.41143593421894        0.27749104941334
H           -4.46440855980968       -0.05148529624186        2.88041791973736
H           -6.07074462672015        0.60492850600304        2.56422120500477
H           -5.83577765337929       -1.13710939368774        2.64817122204541
H           -5.48585664520940       -2.84766711070479        1.31147746339265
H           -4.07305565698046       -4.77260484554900        0.81082234240825
H           -1.91005656951234       -4.43235386125023       -0.35908325339315
H           -1.18905200564083       -2.17917338638376       -0.94173683311165
H           -0.03162286069509       -0.24277568817117        0.64399379472373
H            1.68465790751720        2.60479448500545       -0.81173081950628
H            3.06692586298533        4.59723217793530       -0.63306474058231
H            5.42096883302084        4.40610197623914        0.13273151467759
H            6.30218863370523        2.22419265405142        0.77858871670948
H            6.24653872473112        0.74665572314578        2.39229585969756
H            4.63439493038638        0.20911612112547        2.86519465310988
H            5.93267110241951       -0.96499950900319        2.64497783626530
H            6.04901811681824       -0.62000760575754       -1.11835279394435
H            7.08287300138621        0.27375874030478       -0.00402222642148
H            6.79970229054705       -1.44668787437241        0.24838885797345
H            5.45897162922407       -2.74543245808155        1.49991504127616
H            3.97112022179815       -4.66323335111206        1.25658057453751
H            1.75357961294523       -4.36107905163645        0.17980736982915
H            1.06522314555702       -2.15624428600086       -0.57568592844096
H            0.03421284631841        1.10826937625113       -4.11576543359307
H           -1.69680782646399        2.58391718660889       -0.80961101527321
H           -3.02633808291978        4.58626705376875       -0.43641406565135
H           -5.32856603421793        4.39222528816550        0.47154491218349
H           -6.21865171399814        2.19133511579882        1.03564702299603

          :  Hamiltonian                  GFN2-xTB          :
         :: gradient norm              0.000104762860 Eh/a0 ::
         :: HOMO-LUMO gap              1.465662113866 eV    ::
         :: SCC energy              -110.413284782763 Eh    ::
         :: -> dispersion             -0.106638860527 Eh    ::
         :: -> Gsolv                  -0.045384410586 Eh    ::
         :: repulsion energy           2.014226806122 Eh    ::

    * Orbital Energies and Occupations

         #    Occupation            Energy/Eh            Energy/eV
      -------------------------------------------------------------
         1        2.0000           -0.7082010             -19.2711
       ...           ...                  ...                  ...
        89        2.0000           -0.4327257             -11.7751
        90        2.0000           -0.4179851             -11.3740
        91        2.0000           -0.4171199             -11.3504
        92        2.0000           -0.4170202             -11.3477
        93        2.0000           -0.4144696             -11.2783
        94        2.0000           -0.4133112             -11.2468
        95        2.0000           -0.4125043             -11.2248
        96        2.0000           -0.4066664             -11.0660
        97        2.0000           -0.4059775             -11.0472
        98        2.0000           -0.4011937             -10.9170
        99        2.0000           -0.4005562             -10.8997
       100        2.0000           -0.3618239              -9.8457
       101        2.0000           -0.3599440              -9.7946 (HOMO)
       102                         -0.3060819              -8.3289 (LUMO)
       103                         -0.2916407              -7.9359
       104                         -0.2363032              -6.4301
       105                         -0.2339018              -6.3648
       106                         -0.2324760              -6.3260
       107                         -0.2303311              -6.2676
       108                         -0.2284658              -6.2169
       109                         -0.2279586              -6.2031
       110                         -0.2270080              -6.1772
       111                         -0.2248161              -6.1176
       112                         -0.2238413              -6.0910
       ...                                ...                  ...
       198                          1.1462448              31.1909
      -------------------------------------------------------------
                  HL-Gap            0.0538621 Eh            1.4657 eV

     #   Z          covCN         q      C6AA      α(0)
     1   6 C        3.761    -0.105    22.555     6.770
     2   6 C        3.909     0.022    20.150     6.380
     3   6 C        3.761    -0.106    22.573     6.773
     4   6 C        2.979    -0.010    28.259     8.720
     5   6 C        2.929    -0.035    28.876     8.813
     6   6 C        2.917    -0.042    29.047     8.838
     7   6 C        2.920    -0.033    28.816     8.803
     8   6 C        2.925    -0.058    29.431     8.897
     9   6 C        2.926     0.057    26.728     8.478
    10   7 N        2.753    -0.075    22.701     7.076
    11   6 C        2.929     0.087    26.066     8.373
    12   6 C        2.921    -0.049    29.212     8.863
    13   6 C        2.928     0.086    26.086     8.376
    14   7 N        2.752    -0.072    22.627     7.065
    15   6 C        2.929     0.056    26.738     8.480
    16   6 C        2.925    -0.056    29.400     8.892
    17   6 C        2.920    -0.033    28.819     8.803
    18   6 C        2.917    -0.040    29.003     8.831
    19   6 C        2.929    -0.035    28.864     8.811
    20   6 C        2.980    -0.008    28.218     8.714
    21   6 C        3.909     0.022    20.148     6.380
    22   6 C        3.761    -0.107    22.584     6.775
    23   6 C        3.761    -0.105    22.553     6.770
    24   6 C        2.979    -0.009    28.242     8.717
    25   6 C        2.929    -0.035    28.873     8.812
    26   6 C        2.917    -0.041    29.027     8.835
    27   6 C        2.920    -0.032    28.809     8.802
    28   6 C        2.925    -0.058    29.443     8.898
    29   6 C        2.924     0.056    26.743     8.481
    30   6 C        2.972     0.003    27.962     8.674
    31   6 C        1.911     0.125    28.030     8.550
    32   7 N        0.911    -0.251    26.520     7.448
    33   6 C        2.932    -0.013    28.335     8.730
    34   6 C        2.972     0.003    27.966     8.674
    35   6 C        1.911     0.125    28.029     8.550
    36   7 N        0.911    -0.251    26.530     7.450
    37   6 C        2.928     0.057    26.722     8.477
    38   6 C        2.924    -0.057    29.427     8.896
    39   6 C        2.920    -0.033    28.825     8.804
    40   6 C        2.917    -0.042    29.034     8.836
    41   6 C        2.929    -0.035    28.873     8.812
    42   6 C        2.979    -0.009    28.247     8.718
    43   1 H        0.925     0.046     2.373     2.409
    44   1 H        0.925     0.031     2.568     2.506
    45   1 H        0.925     0.046     2.373     2.409
    46   1 H        0.925     0.033     2.547     2.496
    47   1 H        0.925     0.046     2.374     2.410
    48   1 H        0.925     0.046     2.366     2.405
    49   1 H        0.926     0.041     2.436     2.441
    50   1 H        0.926     0.034     2.532     2.488
    51   1 H        0.926     0.033     2.546     2.495
    52   1 H        0.926     0.017     2.772     2.604
    53   1 H        0.926     0.071     2.077     2.254
    54   1 H        0.926     0.015     2.806     2.620
    55   1 H        0.926     0.033     2.545     2.494
    56   1 H        0.926     0.036     2.504     2.475
    57   1 H        0.926     0.043     2.407     2.426
    58   1 H        0.925     0.046     2.366     2.405
    59   1 H        0.925     0.033     2.542     2.493
    60   1 H        0.925     0.047     2.358     2.402
    61   1 H        0.925     0.032     2.564     2.504
    62   1 H        0.925     0.046     2.368     2.406
    63   1 H        0.925     0.046     2.365     2.405
    64   1 H        0.926     0.042     2.424     2.435
    65   1 H        0.926     0.035     2.521     2.483
    66   1 H        0.926     0.034     2.531     2.488
    67   1 H        0.926     0.023     2.694     2.567
    68   1 H        0.926     0.061     2.190     2.314
    69   1 H        0.926     0.014     2.829     2.630
    70   1 H        0.926     0.032     2.559     2.502
    71   1 H        0.926     0.035     2.523     2.484
    72   1 H        0.926     0.042     2.424     2.435

molecular dipole:
                 x           y           z       tot (Debye)
 q only:        0.158      -0.519       1.952
   full:        0.150      -0.538       2.127       5.589

 projected vibrational frequencies (cm⁻¹)
eigval :       -0.00    -0.00    -0.00    -0.00     0.00     0.00
eigval :        6.95    16.64    20.20    24.84    39.71    42.24
eigval :       50.88    55.57    88.49    91.83    98.35   102.94
eigval :      105.90   109.39   123.86   126.82   128.70   131.80
eigval :      140.91   189.70   190.48   191.76   193.52   217.79
eigval :      219.88   232.81   237.26   239.25   269.40   278.80
eigval :      305.83   308.68   324.49   331.01   332.40   338.95
eigval :      344.87   353.24   358.18   376.63   379.55   388.61
eigval :      394.41   407.84   414.61   448.16   452.22   478.32
eigval :      482.60   490.23   500.94   509.26   513.44   514.75
eigval :      524.05   524.65   547.00   548.10   562.49   575.22
eigval :      577.47   587.17   590.95   591.82   629.74   646.71
eigval :      663.53   673.24   682.70   683.29   684.95   694.25
eigval :      695.11   703.52   727.18   741.09   768.22   774.93
eigval :      775.21   776.82   824.69   825.58   857.51   863.92
eigval :      865.17   868.65   873.91   885.99   891.46   894.99
eigval :      910.25   910.96   913.25   913.80   914.06   916.77
eigval :      918.71   920.91   921.06   921.38   938.48   939.39
eigval :      958.11   959.45  1013.96  1014.71  1060.44  1075.59
eigval :     1075.94  1079.61  1112.52  1115.07  1117.69  1119.24
eigval :     1130.03  1138.51  1140.05  1158.52  1158.90  1161.59
eigval :     1163.24  1178.49  1181.14  1181.62  1186.28  1188.00
eigval :     1189.75  1213.77  1225.96  1238.11  1245.06  1250.54
eigval :     1252.16  1262.51  1269.89  1282.51  1291.89  1292.93
eigval :     1297.79  1316.06  1321.94  1325.53  1327.04  1329.01
eigval :     1331.32  1341.02  1400.20  1400.40  1400.83  1418.70
eigval :     1419.43  1430.72  1433.30  1434.08  1435.25  1447.61
eigval :     1473.19  1475.15  1483.83  1484.16  1485.64  1485.90
eigval :     1488.56  1489.27  1492.99  1494.21  1494.85  1501.01
eigval :     1501.78  1544.45  1575.88  1576.24  1590.52  1590.92
eigval :     1591.04  1591.47  1599.38  1600.10  2359.08  2363.83
eigval :     3021.71  3022.91  3024.11  3025.48  3042.14  3042.24
eigval :     3044.82  3046.81  3050.13  3050.19  3054.80  3057.05
eigval :     3075.57  3077.24  3079.18  3081.14  3083.98  3084.64
eigval :     3085.91  3088.10  3089.87  3090.88  3093.73  3094.01
eigval :     3098.40  3098.96  3099.28  3100.80  3101.01  3111.57

   temp. (K)  partition function   enthalpy   heat capacity  entropy
                                   cal/mol     cal/K/mol   cal/K/mol   J/K/mol
 298.15  VIB  0.994E+16            21228.072    132.982    131.504
         ROT  0.420E+08              888.752      2.981     37.866
         INT  0.418E+24            22116.825    135.963    169.370
         TR   0.122E+29             1481.254      4.968     44.739
         TOT                       23598.0786   140.9312   214.1095   895.8340

       T/K    H(0)-H(T)+PV         H(T)/Eh          T*S/Eh         G(T)/Eh
   ------------------------------------------------------------------------
    298.15    0.376059E-01    0.600998E+00    0.101730E+00    0.499267E+00
   ------------------------------------------------------------------------

         :::::::::::::::::::::::::::::::::::::::::::::::::::::
         ::                  THERMODYNAMIC                  ::
         :::::::::::::::::::::::::::::::::::::::::::::::::::::
         :: total free energy        -107.899790776720 Eh   ::
         ::.................................................::
         :: total energy             -108.399057979116 Eh   ::
         :: zero point energy           0.563391588237 Eh   ::
         :: G(RRHO) w/o ZPVE           -0.064124385840 Eh   ::
         :: G(RRHO) contrib.            0.499267202397 Eh   ::
         :::::::::::::::::::::::::::::::::::::::::::::::::::::

           -------------------------------------------------
          | TOTAL ENERGY             -108.399057979116 Eh   |
          | TOTAL ENTHALPY           -107.798060458860 Eh   |
          | TOTAL FREE ENERGY        -107.899790776720 Eh   |
          | GRADIENT NORM               0.000104832870 Eh/α |
          | HOMO-LUMO GAP               1.465662883297 eV   |
           -------------------------------------------------

 * finished run on 2025/07/20 at 10:17:32.257
