   * xtb version 6.7.1 (edcfbbe) compiled by 'albert@albert-system' on 2024-07-22

   ID    Z sym.   atoms
    1    6 C      1-4, 6-12, 14-19, 21-33, 35-40, 42-52
    2    8 O      5, 20, 41, 53
    3    7 N      13, 34
    4    1 H      54-85

          program call               : xtb data2507/gas/5,6PXZ-PIDO/5,6PXZ-PIDO_gas_S0_finalOpt.xtbopt.xyz --gfn 2 --spinpol --tblite --uhf 2 --ohess vtight --parallel 40 --molden --ceasefiles --namespace data2507/gas/5,6PXZ-PIDO/5,6PXZ-PIDO_gas_T1_preOpt
 * total energy  :  -139.0742184 Eh     change        0.4182212E-07 Eh
 * total energy  :  -139.0788764 Eh     change       -0.4658094E-02 Eh
 * total energy  :  -139.0805272 Eh     change       -0.1650753E-02 Eh
 * total energy  :  -139.0806641 Eh     change       -0.1368877E-03 Eh
 * total energy  :  -139.0807631 Eh     change       -0.9897184E-04 Eh
 * total energy  :  -139.0807843 Eh     change       -0.2125271E-04 Eh
 * total energy  :  -139.0808046 Eh     change       -0.2033317E-04 Eh
 * total energy  :  -139.0808359 Eh     change       -0.3122710E-04 Eh
 * total energy  :  -139.0808672 Eh     change       -0.3130709E-04 Eh
 * total energy  :  -139.0808921 Eh     change       -0.2491118E-04 Eh
 * total energy  :  -139.0810530 Eh     change       -0.9147593E-06 Eh
 * total energy  :  -139.0810542 Eh     change       -0.1179516E-05 Eh
 * total energy  :  -139.0810550 Eh     change       -0.8306987E-06 Eh
 * total energy  :  -139.0810557 Eh     change       -0.6916057E-06 Eh
 * total energy  :  -139.0810562 Eh     change       -0.4758186E-06 Eh
 * total energy  :  -139.0810565 Eh     change       -0.3534741E-06 Eh
 * total energy  :  -139.0810569 Eh     change       -0.3475150E-06 Eh
 * total energy  :  -139.0810572 Eh     change       -0.3322052E-06 Eh
 * total energy  :  -139.0810573 Eh     change       -0.5855739E-07 Eh
   *** GEOMETRY OPTIMIZATION CONVERGED AFTER 44 ITERATIONS ***

 final structure:
================
85
 xtb: 6.7.1 (edcfbbe)
C           -8.67661617443504        0.24683839663450       -1.23785517369986
C           -7.81730592526922        0.03112125401658        0.00320041199977
C           -8.67757481869442       -0.17791759085904        1.24473509356941
C           -6.86551654973493       -1.17589419350761       -0.20092007850562
O           -7.28502049448728       -2.31147407358813       -0.39631074974972
C           -5.53352594479526       -0.68171256483403       -0.11788780331542
C           -4.32764250628248       -1.37473411472014       -0.22537727840090
C           -3.13236693931114       -0.69919274177289       -0.09592903112036
C           -1.87314853105117       -1.44650478028070       -0.09744802228939
C           -0.88884233215470       -1.18709590743710        0.86157393003422
C            0.32495175001399       -1.83684220484532        0.82227364131721
C            0.58315709838175       -2.76835045298512       -0.17827337995651
N            1.86512402693480       -3.37271730300882       -0.25168517187333
C            2.95978648185652       -2.61122087981704       -0.63800179840028
C            2.82485457415105       -1.30336797109279       -1.09320231320502
C            3.93832446631526       -0.56846512446882       -1.46176892139111
C            5.20148448370807       -1.12516440706590       -1.38612228622580
C            5.35122789649784       -2.43561602787615       -0.96001776639533
C            4.24286519712937       -3.18016056883393       -0.59742008988679
O            4.45217537919632       -4.47674990087888       -0.21103559913741
C            3.35365515337204       -5.23186827683753        0.10832028214492
C            3.57043730962117       -6.55371616714599        0.45395702286271
C            2.50403356903884       -7.36354893196336        0.81232963504591
C            1.22303348281575       -6.84257356201257        0.83404160684306
C            0.99733151798836       -5.52140640730587        0.48753252287080
C            2.05381907437527       -4.70052933030824        0.10667239969750
C           -0.40465164684466       -3.07915503234658       -1.10527550825679
C           -1.62095681073580       -2.42795537916591       -1.05793866969248
C           -3.12680370181618        0.72511296814692        0.10023564815691
C           -1.86187455315896        1.46265421241898        0.10149739542280
C           -1.60249254012858        2.44299292005239        1.06122962298801
C           -0.38122542281541        3.08485364378070        1.10843834799803
C            0.60451498910790        2.76531130222259        0.18227330305795
N            1.89149029153026        3.35917192043204        0.25614572972135
C            2.09299810290242        4.68257641187074       -0.11103776305961
C            1.04469119926087        5.51012578663189       -0.49990723245008
C            1.28307289318187        6.82664812504357       -0.85549180308633
C            2.56871907564738        7.33611052216883       -0.83480741089114
C            3.62701507514399        6.51943172252618       -0.46796189359083
C            3.39757514432535        5.20216368486267       -0.11317766108440
O            4.48838391047492        4.43950994804222        0.21471988693168
C            4.26639109053994        3.14752449121063        0.60946839210749
C            5.36693998224377        2.39537738519853        0.98005054112659
C            5.20412965944533        1.08909725216568        1.41415507042172
C            3.93582180195085        0.54418989273801        1.48962429806744
C            2.83004283704587        1.28675215751637        1.11333272286304
C            2.97812708424564        2.59044245008471        0.65037321493308
C            0.33956790021393        1.83506525530613       -0.81762864904946
C           -0.87930132683705        1.19488297598053       -0.85700883561955
C           -4.31680361359933        1.40987594414978        0.23005682963484
C           -5.52800653115193        0.72620701052688        0.12306409894848
C           -6.85611384473305        1.23075164608961        0.20680541696381
O           -7.26663746403320        2.36948328570921        0.40246067027354
H           -9.30770017622278       -0.62344672930069       -1.40562867908228
H           -9.30764733704740        1.12281944192992       -1.10297163230748
H           -8.04847632704744        0.39882083586028       -2.11419637401418
H           -9.30196939395343        0.69714110441148        1.41269029061783
H           -9.31528475237207       -1.04912412008553        1.11032534409782
H           -8.05014957705704       -0.33449540737448        2.12077923867229
H           -4.34417652245938       -2.44613721986156       -0.36213446443884
H           -1.08793170330834       -0.47494327803232        1.64804680384726
H            1.08572089731395       -1.62788904944499        1.56054059691279
H            1.84057936189920       -0.86697339641317       -1.15413258166648
H            3.81454066337507        0.44574842118040       -1.80803640409862
H            6.06965205584931       -0.54968182693663       -1.66428779084844
H            6.32142934328495       -2.90265605370642       -0.90607640265735
H            4.58162549385502       -6.92743019398395        0.44104776864314
H            2.68072383982218       -8.39321752448215        1.07925438038026
H            0.38884594698590       -7.46219432966608        1.12376188810940
H           -0.00200974674857       -5.11686016971084        0.51608615641120
H           -0.20446813667914       -3.81392344105289       -1.87144721558758
H           -2.37535001560843       -2.65043848916270       -1.79772555153858
H           -2.35545838517911        2.67201446277074        1.80047006908543
H           -0.17568487042704        3.81898384548825        1.87379763037293
H            0.04182356036023        5.11428797559172       -0.52740372344218
H            0.45516388453858        7.45170946318693       -1.15146971803969
H            2.75529690664280        8.36213696033553       -1.10893606630106
H            4.64146168292295        6.88421793892857       -0.45535111363552
H            6.34150324138698        2.85320795404905        0.92579351271218
H            6.06630087078602        0.50763986030968        1.69848063844490
H            3.80196857081605       -0.46670772236549        1.84180148382092
H            1.84164598860357        0.85972829315028        1.17407333152921
H            1.09906314961090        1.61950702104076       -1.55531638355759
H           -1.08360887807722        0.48372722232622       -1.64303561229795
H           -4.32503794904217        2.48138289931517        0.36673566652107

 projected vibrational frequencies (cm⁻¹)
eigval :       -0.00    -0.00    -0.00     0.00     0.00     0.00
eigval :        8.65    10.27    18.30    22.96    25.19    30.57
eigval :       37.40    41.20    49.54    52.50    63.40    70.13
eigval :       77.28    80.48    83.54   108.86   113.27   122.50
eigval :      130.55   144.01   144.12   168.73   177.25   185.88
eigval :      191.27   195.90   200.77   201.93   231.48   238.32
eigval :      239.62   249.65   249.74   259.93   268.22   275.76
eigval :      278.83   280.31   289.27   316.34   345.46   365.18
eigval :      371.08   381.26   382.92   387.88   389.03   393.96
eigval :      397.62   412.75   419.79   427.62   428.29   430.82
eigval :      440.35   451.58   454.16   484.19   487.69   504.30
eigval :      504.53   504.76   514.96   524.48   525.20   526.64
eigval :      546.15   552.81   554.12   574.10   587.95   591.10
eigval :      602.04   602.79   613.04   614.39   638.91   652.70
eigval :      663.64   663.78   664.22   665.98   666.43   671.72
eigval :      673.48   683.12   692.83   696.94   705.55   712.51
eigval :      734.52   774.52   777.12   777.40   778.11   799.17
eigval :      803.42   815.12   816.11   844.68   854.97   855.37
eigval :      859.89   863.39   863.51   863.92   865.89   869.87
eigval :      872.08   883.08   896.02   897.49   898.71   898.88
eigval :      901.06   904.91   913.28   913.82   914.67   915.44
eigval :      916.26   916.73   920.96   921.09   921.75   928.53
eigval :      928.68   956.05   970.55   989.82   994.71  1003.99
eigval :     1022.88  1061.76  1085.76  1085.95  1087.70  1088.54
eigval :     1111.24  1111.45  1121.09  1122.56  1132.89  1133.06
eigval :     1138.16  1149.48  1170.36  1170.62  1174.49  1175.14
eigval :     1175.39  1180.64  1182.88  1186.87  1191.48  1198.41
eigval :     1202.18  1203.57  1204.84  1205.34  1221.01  1223.72
eigval :     1239.95  1240.19  1250.72  1258.43  1259.04  1265.28
eigval :     1266.40  1303.79  1310.04  1314.16  1314.47  1316.07
eigval :     1319.18  1330.36  1332.13  1334.33  1347.68  1350.66
eigval :     1358.52  1384.46  1385.51  1401.03  1401.93  1405.86
eigval :     1421.58  1422.60  1422.81  1442.98  1443.40  1454.48
eigval :     1460.55  1462.56  1469.94  1474.14  1476.22  1479.45
eigval :     1483.80  1486.22  1489.81  1491.23  1500.39  1544.38
eigval :     1545.77  1561.80  1562.29  1570.42  1570.49  1578.32
eigval :     1580.53  1582.90  1584.04  1592.62  1593.06  1603.37
eigval :     1667.28  3022.54  3026.33  3026.45  3028.91  3032.00
eigval :     3033.86  3077.38  3077.92  3081.17  3081.39  3083.60
eigval :     3083.70  3092.80  3092.88  3093.68  3094.08  3095.00
eigval :     3095.66  3095.69  3095.70  3103.68  3103.76  3103.94
eigval :     3104.90  3109.48  3110.68  3110.84  3111.42  3115.89
eigval :     3116.00  3116.00  3116.87

   temp. (K)  partition function   enthalpy   heat capacity  entropy
                                   cal/mol     cal/K/mol   cal/K/mol   J/K/mol
 298.15  VIB  0.506E+20            25463.222    159.978    157.899
         ROT  0.570E+08              888.752      2.981     38.470
         INT  0.288E+28            26351.974    162.959    196.369
         TR   0.175E+29             1481.254      4.968     45.450
         TOT                       27833.2283   167.9275   241.8183  1011.7680

       T/K    H(0)-H(T)+PV         H(T)/Eh          T*S/Eh         G(T)/Eh
   ------------------------------------------------------------------------
    298.15    0.443551E-01    0.685977E+00    0.114896E+00    0.571081E+00
   ------------------------------------------------------------------------

         :::::::::::::::::::::::::::::::::::::::::::::::::::::
         ::                  THERMODYNAMIC                  ::
         :::::::::::::::::::::::::::::::::::::::::::::::::::::
         :: total free energy        -138.509975833306 Eh   ::
         ::.................................................::
         :: total energy             -139.081057261549 Eh   ::
         :: zero point energy           0.641622055609 Eh   ::
         :: G(RRHO) w/o ZPVE           -0.070540627366 Eh   ::
         :: G(RRHO) contrib.            0.571081428243 Eh   ::
         :::::::::::::::::::::::::::::::::::::::::::::::::::::

           -------------------------------------------------
          | TOTAL ENERGY             -139.081057261549 Eh   |
          | TOTAL ENTHALPY           -138.395080133393 Eh   |
          | TOTAL FREE ENERGY        -138.509975833306 Eh   |
          | GRADIENT NORM               0.000093867963 Eh/α |
           -------------------------------------------------

 * finished run on 2025/09/04 at 00:31:30.754
