   * xtb version 6.7.1 (edcfbbe) compiled by 'albert@albert-system' on 2024-07-22

   ID    Z sym.   atoms
    1    6 C      1-4, 6-12, 14-19, 21-33, 35-40, 42-52
    2    8 O      5, 20, 41, 53
    3    7 N      13, 34
    4    1 H      54-85

          program call               : xtb data2507/gas/5,6PXZ-PIDO/5,6PXZ-PIDO_gas_T1_crest.xyz --gfn 2 --spinpol --tblite --uhf 2 --ohess vtight --parallel 40 --molden --ceasefiles --namespace data2507/gas/5,6PXZ-PIDO/5,6PXZ-PIDO_gas_T1_finalOpt
 * total energy  :  -139.0809977 Eh     change        0.5212368E-07 Eh
 * total energy  :  -139.0810241 Eh     change       -0.2636701E-04 Eh
 * total energy  :  -139.0810406 Eh     change       -0.1649952E-04 Eh
 * total energy  :  -139.0810451 Eh     change       -0.4523524E-05 Eh
 * total energy  :  -139.0810505 Eh     change       -0.5376596E-05 Eh
 * total energy  :  -139.0810531 Eh     change       -0.2625211E-05 Eh
 * total energy  :  -139.0810557 Eh     change       -0.2591070E-05 Eh
 * total energy  :  -139.0810575 Eh     change       -0.1770295E-05 Eh
 * total energy  :  -139.0810583 Eh     change       -0.8145149E-06 Eh
 * total energy  :  -139.0810589 Eh     change       -0.5905175E-06 Eh
 * total energy  :  -139.0810594 Eh     change       -0.5266382E-06 Eh
 * total energy  :  -139.0810599 Eh     change       -0.4691981E-06 Eh
 * total energy  :  -139.0810604 Eh     change       -0.4802367E-06 Eh
 * total energy  :  -139.0810607 Eh     change       -0.3418918E-06 Eh
 * total energy  :  -139.0810609 Eh     change       -0.1729167E-06 Eh
 * total energy  :  -139.0810608 Eh     change        0.3421570E-07 Eh
 * total energy  :  -139.0810610 Eh     change       -0.1371429E-06 Eh
 * total energy  :  -139.0810609 Eh     change        0.3470291E-07 Eh
 * total energy  :  -139.0810610 Eh     change       -0.6522509E-07 Eh
   *** GEOMETRY OPTIMIZATION CONVERGED AFTER 19 ITERATIONS ***

 final structure:
================
85
 xtb: 6.7.1 (edcfbbe)
C           -8.68937931245628        0.22440950696944       -1.22515570331127
C           -7.82272366331038        0.00877922908004        0.01072421580501
C           -8.67568601897363       -0.20657569809187        1.25629057779713
C           -6.86757163094923       -1.19435170937976       -0.20074309334636
O           -7.28393848488504       -2.33070083320042       -0.39840896557558
C           -5.53702751868990       -0.69608442258602       -0.12001408704936
C           -4.32913865081227       -1.38496357682467       -0.23301502909672
C           -3.13598252816978       -0.70606409981973       -0.10302306692582
C           -1.87370973415139       -1.44851964442295       -0.11013485379411
C           -0.89146920891747       -1.19272020637617        0.85185686993943
C            0.32593556888399       -1.83526710686155        0.80699109428594
C            0.59007356402726       -2.75506567992229       -0.20277136833618
N            1.87653537196711       -3.34926694136527       -0.28228461760825
C            2.96512482203140       -2.57563832161469       -0.66161505173532
C            2.81925910440235       -1.26605616681665       -1.10831650482065
C            3.92669779787228       -0.51898541638289       -1.47044515319381
C            5.19459116318110       -1.06497448902398       -1.39669906905631
C            5.35532826866329       -2.37677995345573       -0.97882618425337
C            4.25312046741722       -3.13338160837232       -0.62255002593709
O            4.47335676923181       -4.43035014357359       -0.24348437075570
C            3.38123941233400       -5.19651889530295        0.07151960379789
C            3.60940511450638       -6.51767160451731        0.41243457828992
C            2.54973277133053       -7.33861743621455        0.76547178427750
C            1.26391033776522       -6.82962160650109        0.78627080342693
C            1.02685833410089       -5.50910888513389        0.44488196601656
C            2.07665049642678       -4.67696296086730        0.07008928315296
C           -0.39581745145335       -3.06337802852224       -1.13255508218509
C           -1.61613865912926       -2.41997937520135       -1.07915960802188
C           -3.13438344401785        0.71733039042866        0.09938071707235
C           -1.87067340347124        1.45720554575296        0.10431238849793
C           -1.61100361368975        2.42984628227436        1.07167076317906
C           -0.38903647400275        3.07011428835710        1.12442814449957
C            0.59657345629051        2.75675451364941        0.19615777410131
N            1.88551111950005        3.34605528021134        0.27710952661241
C            2.09465908248958        4.66723199402328       -0.09305952525080
C            1.05150927475321        5.49799669896821       -0.48873597020008
C            1.29731451580037        6.81205379457319       -0.84835875554973
C            2.58527109873609        7.31554967017538       -0.82478791497308
C            3.63836331511643        6.49577689021024       -0.44983327196108
C            3.40150673339206        5.18106856354703       -0.09054537057710
O            4.48712514247834        4.41510252514078        0.24682255890130
C            4.25762330726140        3.12458098905618        0.64226953819207
C            5.35291442766921        2.36814062966827        1.01950027621528
C            5.18228075867950        1.06263947481053        1.45302788528998
C            3.91144461303415        0.52274919589859        1.52094505553725
C            2.81079087425670        1.26977975852003        1.13858612860436
C            2.96684941331955        2.57294198064435        0.67688202889825
C            0.33050043911350        1.83637620349614       -0.81242154769655
C           -0.88889390543365        1.19749244602439       -0.85712438158944
C           -4.32607828769841        1.39813422206881        0.23330603099539
C           -5.53538397481890        0.71103993508881        0.12564252995820
C           -6.86484062333602        1.21116270999285        0.21357904807972
O           -7.27849440116233        2.34831272934568        0.41233696644476
H           -9.31924199644956       -0.64714844720811       -1.39087217954019
H           -9.32181230529780        1.09859472551437       -1.08527393627585
H           -8.06652811890985        0.37941626042470       -2.10472351558834
H           -9.30355133091145        0.66510736862158        1.42882325877383
H           -9.30974401417864       -1.08071174836432        1.12363605729116
H           -8.04310193775883       -0.36146268438156        2.12892483124203
H           -4.34237916216784       -2.45584115503419       -0.37420621484310
H           -1.09485830035391       -0.48876605089155        1.64460117082340
H            1.08522071723165       -1.62928146762650        1.54757774176886
H            1.83117110094094       -0.83816757270101       -1.16761169165286
H            3.79455269383614        0.49645919178820       -1.81001676950817
H            6.05802990540551       -0.48007062900836       -1.66988834224862
H            6.32957376640198       -2.83550246191215       -0.92644551503974
H            4.62399547103313       -6.88206398177731        0.40010078206572
H            2.73533535651163       -8.36760802576286        1.02892838110407
H            0.43482222614694       -7.45815422197417        1.07138438809216
H            0.02380847411687       -5.11378358288203        0.47275531321597
H           -0.19118542937569       -3.78973009651350       -1.90553795780907
H           -2.36948936167677       -2.64027911912585       -1.82068040634080
H           -2.36406892999397        2.65349784174176        1.81246010899503
H           -0.18281628850022        3.79778137848061        1.89573872456488
H            0.04701098168573        5.10637512134971       -0.51808078698590
H            0.47348825058103        7.43986870015600       -1.14983584169757
H            2.77768639105731        8.33948311696942       -1.10267975957959
H            4.65431914099288        6.85621611289374       -0.43413902501828
H            6.32967825518175        2.82187077034649        0.97063965146054
H            6.04047008822846        0.47785151927093        1.74253619272036
H            3.77169286123656       -0.48781943926552        1.87185491117598
H            1.82022897903123        0.84700282119521        1.19330882556742
H            1.08968951229731        1.62692577978829       -1.55214918592992
H           -1.09389407764075        0.49311120302805       -1.64905401581450
H           -4.33725831400545        2.46903898633534        0.37442647164269

 projected vibrational frequencies (cm⁻¹)
eigval :       -0.00    -0.00    -0.00     0.00     0.00     0.00
eigval :        9.39     9.98    19.08    23.92    26.00    31.39
eigval :       37.70    41.36    49.54    52.90    63.71    69.69
eigval :       77.28    80.62    83.06   109.30   112.87   122.86
eigval :      130.87   144.05   144.23   169.07   177.29   186.05
eigval :      191.56   195.14   200.30   201.89   231.58   238.56
eigval :      239.62   249.51   249.89   259.87   267.88   275.73
eigval :      278.81   282.20   289.47   316.35   345.36   365.42
eigval :      371.47   381.27   383.01   388.46   389.05   394.01
eigval :      398.27   412.99   420.22   427.43   428.65   431.00
eigval :      440.58   451.95   454.40   484.33   487.81   504.34
eigval :      504.67   504.86   514.98   524.47   525.24   526.94
eigval :      546.36   552.75   553.99   574.04   587.96   590.93
eigval :      602.01   602.63   613.10   614.40   638.89   652.75
eigval :      663.60   663.80   664.22   666.03   666.44   671.73
eigval :      673.36   683.18   692.74   697.04   705.64   712.51
eigval :      734.30   774.53   777.98   778.65   778.85   799.19
eigval :      803.40   815.13   816.10   844.73   854.91   855.33
eigval :      860.94   864.41   865.30   865.88   867.14   869.89
eigval :      872.36   885.14   897.03   898.46   900.33   900.42
eigval :      901.10   904.65   913.29   913.89   914.79   915.96
eigval :      917.20   917.29   920.62   920.99   921.22   928.45
eigval :      928.56   956.04   970.41   989.87   994.67  1004.78
eigval :     1023.00  1061.79  1086.00  1086.15  1088.28  1088.78
eigval :     1111.30  1111.51  1121.07  1122.42  1132.78  1132.89
eigval :     1138.15  1149.50  1169.89  1170.91  1174.45  1175.21
eigval :     1175.53  1180.66  1182.88  1185.57  1191.20  1198.39
eigval :     1201.95  1202.32  1205.00  1205.35  1219.99  1224.15
eigval :     1239.98  1240.39  1250.58  1258.55  1259.10  1265.23
eigval :     1266.38  1303.99  1310.01  1314.16  1314.45  1316.04
eigval :     1319.28  1330.47  1332.17  1334.33  1347.45  1350.52
eigval :     1358.40  1383.37  1385.62  1399.97  1401.59  1405.60
eigval :     1422.35  1422.54  1422.93  1442.97  1443.35  1455.22
eigval :     1460.69  1462.65  1469.79  1473.63  1477.28  1480.27
eigval :     1483.85  1486.47  1489.10  1490.83  1500.44  1544.55
eigval :     1545.96  1561.84  1562.31  1570.44  1570.52  1578.52
eigval :     1580.48  1582.74  1584.12  1592.69  1593.36  1604.66
eigval :     1666.90  3022.59  3025.92  3026.48  3028.97  3031.96
eigval :     3033.85  3077.59  3078.15  3081.19  3081.36  3083.64
eigval :     3083.82  3092.61  3092.72  3093.64  3094.09  3095.05
eigval :     3095.61  3095.69  3095.75  3103.64  3103.78  3104.02
eigval :     3104.97  3109.50  3110.41  3110.67  3111.44  3115.69
eigval :     3115.92  3115.98  3116.41

   temp. (K)  partition function   enthalpy   heat capacity  entropy
                                   cal/mol     cal/K/mol   cal/K/mol   J/K/mol
 298.15  VIB  0.410E+20            25449.963    159.984    157.711
         ROT  0.113E+09              888.752      2.981     39.839
         INT  0.465E+28            26338.715    162.965    197.550
         TR   0.175E+29             1481.254      4.968     45.450
         TOT                       27819.9692   167.9331   242.9993  1016.7092

       T/K    H(0)-H(T)+PV         H(T)/Eh          T*S/Eh         G(T)/Eh
   ------------------------------------------------------------------------
    298.15    0.443339E-01    0.686019E+00    0.115457E+00    0.570562E+00
   ------------------------------------------------------------------------

         :::::::::::::::::::::::::::::::::::::::::::::::::::::
         ::                  THERMODYNAMIC                  ::
         :::::::::::::::::::::::::::::::::::::::::::::::::::::
         :: total free energy        -138.510498599013 Eh   ::
         ::.................................................::
         :: total energy             -139.081061041365 Eh   ::
         :: zero point energy           0.641685319204 Eh   ::
         :: G(RRHO) w/o ZPVE           -0.071122876852 Eh   ::
         :: G(RRHO) contrib.            0.570562442352 Eh   ::
         :::::::::::::::::::::::::::::::::::::::::::::::::::::

           -------------------------------------------------
          | TOTAL ENERGY             -139.081061041365 Eh   |
          | TOTAL ENTHALPY           -138.395041779235 Eh   |
          | TOTAL FREE ENERGY        -138.510498599013 Eh   |
          | GRADIENT NORM               0.000064837274 Eh/α |
           -------------------------------------------------

 * finished run on 2025/09/04 at 00:39:00.921
