   * xtb version 6.7.1 (edcfbbe) compiled by 'albert@albert-system' on 2024-07-22

   ID    Z sym.   atoms
    1    6 C      1-4, 6-12, 14-19, 21-33, 35-40, 42-52
    2    8 O      5, 20, 41, 53
    3    7 N      13, 34
    4    1 H      54-85

          program call               : xtb data2507/gas/5,6PXZ-PIDO/5,6PXZ-PIDO.xyz --gfn 2 --ohess vtight --parallel 40 --molden --ceasefiles --namespace data2507/gas/5,6PXZ-PIDO/5,6PXZ-PIDO_gas_S0_preOpt
          :  Hamiltonian                  GFN2-xTB          :
 * total energy  :  -139.1152518 Eh     change       -0.3511246E-08 Eh
 * total energy  :  -139.1284454 Eh     change       -0.1319362E-01 Eh
 * total energy  :  -139.1329038 Eh     change       -0.4458457E-02 Eh
 * total energy  :  -139.1342634 Eh     change       -0.1359535E-02 Eh
 * total energy  :  -139.1352472 Eh     change       -0.9838480E-03 Eh
 * total energy  :  -139.1357249 Eh     change       -0.4776981E-03 Eh
 * total energy  :  -139.1360520 Eh     change       -0.3271271E-03 Eh
 * total energy  :  -139.1364291 Eh     change       -0.3770235E-03 Eh
 * total energy  :  -139.1369013 Eh     change       -0.4722560E-03 Eh
 * total energy  :  -139.1374514 Eh     change       -0.5500442E-03 Eh
 * total energy  :  -139.1404942 Eh     change       -0.3536581E-06 Eh
 * total energy  :  -139.1404944 Eh     change       -0.2798071E-06 Eh
 * total energy  :  -139.1404947 Eh     change       -0.2665994E-06 Eh
 * total energy  :  -139.1404950 Eh     change       -0.2385683E-06 Eh
 * total energy  :  -139.1404952 Eh     change       -0.2041233E-06 Eh
 * total energy  :  -139.1404953 Eh     change       -0.1725978E-06 Eh
 * total energy  :  -139.1404955 Eh     change       -0.1486216E-06 Eh
 * total energy  :  -139.1404956 Eh     change       -0.1165992E-06 Eh
 * total energy  :  -139.1404957 Eh     change       -0.9003625E-07 Eh
   *** GEOMETRY OPTIMIZATION CONVERGED AFTER 59 ITERATIONS ***

 final structure:
================
85
 xtb: 6.7.1 (edcfbbe)
C           -8.53637534901550        0.09542315644525       -1.25620078212085
C           -7.66501545011712        0.00170027331744       -0.00005701243676
C           -8.53613096302920       -0.09167049535428        1.25628783811445
C           -6.73365800907795       -1.20953898296286       -0.08972242124364
O           -7.07806035973632       -2.36120369241475       -0.17785962640936
C           -5.35098063275834       -0.69680821408651       -0.05030354754127
C           -4.16093174229349       -1.39924265371469       -0.09409291668562
C           -2.95514136864778       -0.70319685053698       -0.03928550511785
C           -1.68980119456807       -1.45577544542712       -0.05575289381560
C           -0.68734494779584       -1.19461579673351        0.87773110236874
C            0.52382587315499       -1.84942848899154        0.80617039056954
C            0.75745435293463       -2.78248830844290       -0.20023619927322
N            2.02707101743511       -3.38985004033377       -0.30622157520043
C            3.12971901651222       -2.62062471614542       -0.68247598950488
C            3.00015468707711       -1.30308494087424       -1.10088886047566
C            4.11453864431629       -0.56453301369172       -1.46884930330193
C            5.37031587088626       -1.13387237292870       -1.43163941001022
C            5.51168730806759       -2.45935413660481       -1.04623300210002
C            4.40404442332957       -3.20207830100806       -0.68351698279417
O            4.61088565415532       -4.51613033968712       -0.34213105045660
C            3.50354768151579       -5.28067297611963       -0.06368243440581
C            3.71486072328041       -6.61927702170287        0.20628459055618
C            2.64750571832247       -7.44608832583381        0.52735045482034
C            1.37276564464457       -6.92155750456512        0.58666675077455
C            1.15375206134893       -5.57958028077488        0.31299094165714
C            2.20873531251498       -4.74509812432487       -0.03065729518819
C           -0.25588748774241       -3.08747424468957       -1.10202355644728
C           -1.46946507052170       -2.43201872280706       -1.02431695219125
C           -2.95484022751530        0.70458897773148        0.03911647408099
C           -1.68917255969251        1.45661727661037        0.05562868576213
C           -1.46847551142763        2.43281862032242        1.02415310696503
C           -0.25461000745322        3.08773785892696        1.10191146375178
C            0.75866373630754        2.78222703175999        0.20023076772019
N            2.02856987171763        3.38899019431509        0.30630603517825
C            2.21099681320147        4.74402941385302        0.03025059404828
C            1.15650045034162        5.57893378637096       -0.31385943367532
C            1.37626760954918        6.92068786513696       -0.58802841565866
C            2.65127971762625        7.44455964017572       -0.52873964223915
C            3.71815082447304        6.61731222504398       -0.20718131208377
C            3.50608827139351        5.27892821500232        0.06328186150821
O            4.61297067654965        4.51390307081812        0.34223059070236
C            4.40536825579822        3.20009426349884        0.68409934611124
C            5.51254253878073        2.45691412007030        1.04730743259269
C            5.37038606985937        1.13165176138706        1.43318523636657
C            4.11430033404319        0.56299156863008        1.47035563943779
C            3.00037944678694        1.30200269580910        1.10191216601846
C            3.13073249749289        2.61932068186273        0.68304918602670
C            0.52469691715079        1.84922582679258       -0.80614669007543
C           -0.68676878841141        1.19496399613534       -0.87777302048979
C           -4.16033346530156        1.40115240192613        0.09388005263960
C           -5.35068284787646        0.69922777215240        0.05007337113492
C           -6.73314093070755        1.21255177823890        0.08947203215731
O           -7.07705180859498        2.36437537808307        0.17748687680316
H           -9.16289754897617       -0.78984898065173       -1.33499632493754
H           -9.16671902555882        0.97971403242673       -1.20036177002386
H           -7.91539841163399        0.16479212968350       -2.14799605047799
H           -9.16228309927422        0.79385153211327        1.33521534310911
H           -9.16683956718476       -0.97571117812137        1.20059607807349
H           -7.91498160503699       -0.16127826590211        2.14794501849513
H           -4.16981643178611       -2.47755241800072       -0.14783748227516
H           -0.86460983149311       -0.47927326580664        1.66683146697383
H            1.30427970988767       -1.63835700668856        1.52194000546695
H            2.01993541665064       -0.85355192554725       -1.13552672837358
H            3.99224332114225        0.46084713466891       -1.78160800382721
H            6.24047715933897       -0.55987105492529       -1.70706569497172
H            6.47765670835241       -2.93793523606531       -1.02400232340403
H            4.72467785022030       -6.99532494722144        0.16805245610731
H            2.82293483363190       -8.48937758794443        0.73679396792937
H            0.53535210230294       -7.54932723442004        0.84965535923464
H            0.15540757929000       -5.17535146049417        0.37683031010425
H           -0.07918504737676       -3.82216447143780       -1.87343789602786
H           -2.24174540908476       -2.64766084681820       -1.74811051001487
H           -2.24071207936430        2.64884585064234        1.74787825844101
H           -0.07763529899703        3.82240612307678        1.87328423085869
H            0.15795147162017        5.17520217055671       -0.37766297460652
H            0.53922735667784        7.54880215842663       -0.85138259294686
H            2.82729541184129        8.48767074958130       -0.73857836124918
H            4.72815932813461        6.99284518447802       -0.16894189838954
H            6.47877439667930        2.93496501775249        1.02507755664225
H            6.24018975773564        0.55728768368955        1.70898437970041
H            3.99140156656255       -0.46221432692341        1.78345067898509
H            2.01990999362695        0.85301081537621        1.13651386994867
H            1.30511421034698        1.63776162718047       -1.52184065137474
H           -0.86429893122349        0.47967017943920       -1.66685701047973
H           -4.16875918532005        2.47946595821854        0.14761913639045

          :  Hamiltonian                  GFN2-xTB          :
         :: gradient norm              0.000126902208 Eh/a0 ::
         :: HOMO-LUMO gap              0.812059046265 eV    ::
         :: SCC energy              -141.487423396770 Eh    ::
         :: -> dispersion             -0.128634528998 Eh    ::
         :: repulsion energy           2.346927710817 Eh    ::

    * Orbital Energies and Occupations

         #    Occupation            Energy/Eh            Energy/eV
      -------------------------------------------------------------
         1        2.0000           -0.7280511             -19.8113
       ...           ...                  ...                  ...
       115        2.0000           -0.4246467             -11.5552
       116        2.0000           -0.4210614             -11.4577
       117        2.0000           -0.4186019             -11.3907
       118        2.0000           -0.4143204             -11.2742
       119        2.0000           -0.4142637             -11.2727
       120        2.0000           -0.4124874             -11.2244
       121        2.0000           -0.4083465             -11.1117
       122        2.0000           -0.4061948             -11.0531
       123        2.0000           -0.3944837             -10.7344
       124        2.0000           -0.3928054             -10.6888
       125        2.0000           -0.3893031             -10.5935
       126        2.0000           -0.3449393              -9.3863
       127        2.0000           -0.3434992              -9.3471 (HOMO)
       128        0.0000           -0.3136566              -8.5350 (LUMO)
       129                         -0.2869866              -7.8093
       130                         -0.2606301              -7.0921
       131                         -0.2515699              -6.8456
       132                         -0.2468924              -6.7183
       133                         -0.2438717              -6.6361
       134                         -0.2399933              -6.5306
       135                         -0.2374790              -6.4621
       136                         -0.2312400              -6.2924
       137                         -0.2295981              -6.2477
       138                         -0.2169528              -5.9036
       ...                                ...                  ...
       244                          0.7260586              19.7571
      -------------------------------------------------------------
                  HL-Gap            0.0298426 Eh            0.8121 eV

     #   Z          covCN         q      C6AA      α(0)
     1   6 C        3.758    -0.096    22.387     6.746
     2   6 C        3.925    -0.023    20.928     6.502
     3   6 C        3.758    -0.096    22.387     6.746
     4   6 C        2.854     0.228    23.220     7.898
     5   8 O        0.856    -0.344    20.586     6.083
     6   6 C        3.010    -0.021    28.512     8.759
     7   6 C        2.918    -0.021    28.523     8.758
     8   6 C        2.980     0.016    27.649     8.625
     9   6 C        2.978     0.010    27.786     8.647
    10   6 C        2.923    -0.030    28.746     8.792
    11   6 C        2.921    -0.039    28.964     8.826
    12   6 C        2.923     0.069    26.466     8.436
    13   7 N        2.752    -0.074    22.674     7.072
    14   6 C        2.925     0.042    27.052     8.529
    15   6 C        2.924    -0.059    29.464     8.902
    16   6 C        2.919    -0.036    28.889     8.814
    17   6 C        2.919    -0.039    28.981     8.828
    18   6 C        2.920    -0.056    29.390     8.890
    19   6 C        2.883     0.124    25.268     8.241
    20   8 O        1.708    -0.256    18.237     5.766
    21   6 C        2.883     0.124    25.275     8.242
    22   6 C        2.920    -0.056    29.393     8.891
    23   6 C        2.919    -0.041    29.008     8.832
    24   6 C        2.919    -0.039    28.959     8.825
    25   6 C        2.923    -0.061    29.512     8.909
    26   6 C        2.922     0.043    27.045     8.528
    27   6 C        2.920    -0.039    28.978     8.828
    28   6 C        2.924    -0.033    28.813     8.803
    29   6 C        2.980     0.016    27.649     8.625
    30   6 C        2.978     0.010    27.786     8.647
    31   6 C        2.924    -0.033    28.813     8.803
    32   6 C        2.920    -0.039    28.978     8.828
    33   6 C        2.923     0.069    26.466     8.436
    34   7 N        2.752    -0.074    22.674     7.072
    35   6 C        2.922     0.043    27.045     8.528
    36   6 C        2.923    -0.061    29.512     8.909
    37   6 C        2.919    -0.039    28.959     8.825
    38   6 C        2.919    -0.041    29.008     8.832
    39   6 C        2.920    -0.056    29.393     8.891
    40   6 C        2.883     0.124    25.275     8.242
    41   8 O        1.708    -0.256    18.237     5.766
    42   6 C        2.883     0.124    25.268     8.241
    43   6 C        2.920    -0.056    29.390     8.890
    44   6 C        2.919    -0.039    28.981     8.828
    45   6 C        2.919    -0.036    28.889     8.814
    46   6 C        2.924    -0.059    29.464     8.902
    47   6 C        2.925     0.042    27.052     8.529
    48   6 C        2.921    -0.039    28.964     8.826
    49   6 C        2.923    -0.030    28.746     8.792
    50   6 C        2.918    -0.021    28.523     8.758
    51   6 C        3.010    -0.021    28.512     8.759
    52   6 C        2.854     0.228    23.220     7.898
    53   8 O        0.856    -0.344    20.586     6.083
    54   1 H        0.925     0.059     2.206     2.323
    55   1 H        0.925     0.059     2.206     2.323
    56   1 H        0.925     0.035     2.511     2.478
    57   1 H        0.925     0.059     2.206     2.323
    58   1 H        0.925     0.059     2.206     2.323
    59   1 H        0.925     0.035     2.511     2.478
    60   1 H        0.926     0.062     2.176     2.307
    61   1 H        0.926     0.037     2.495     2.470
    62   1 H        0.926     0.044     2.392     2.419
    63   1 H        0.926     0.029     2.601     2.522
    64   1 H        0.926     0.030     2.583     2.513
    65   1 H        0.926     0.039     2.465     2.455
    66   1 H        0.926     0.051     2.304     2.374
    67   1 H        0.926     0.050     2.314     2.379
    68   1 H        0.926     0.038     2.473     2.459
    69   1 H        0.926     0.036     2.501     2.473
    70   1 H        0.926     0.033     2.551     2.498
    71   1 H        0.926     0.047     2.356     2.401
    72   1 H        0.926     0.043     2.414     2.429
    73   1 H        0.926     0.043     2.414     2.429
    74   1 H        0.926     0.047     2.356     2.400
    75   1 H        0.926     0.033     2.551     2.498
    76   1 H        0.926     0.036     2.501     2.473
    77   1 H        0.926     0.038     2.473     2.459
    78   1 H        0.926     0.050     2.314     2.379
    79   1 H        0.926     0.051     2.304     2.374
    80   1 H        0.926     0.039     2.465     2.455
    81   1 H        0.926     0.030     2.583     2.513
    82   1 H        0.926     0.029     2.601     2.522
    83   1 H        0.926     0.044     2.392     2.419
    84   1 H        0.926     0.037     2.495     2.470
    85   1 H        0.926     0.062     2.176     2.307

molecular dipole:
                 x           y           z       tot (Debye)
 q only:        0.275      -0.000       0.000
   full:        0.212      -0.000       0.000       0.539

 projected vibrational frequencies (cm⁻¹)
eigval :       -0.00    -0.00    -0.00    -0.00    -0.00     0.00
eigval :       10.31    10.61    15.11    21.54    23.86    24.17
eigval :       30.23    39.62    42.97    49.95    54.35    68.33
eigval :       75.46    76.43    83.97   110.26   114.99   122.87
eigval :      125.57   139.98   142.89   174.63   175.28   175.33
eigval :      188.56   191.27   198.16   201.63   223.82   237.93
eigval :      239.01   252.21   252.43   254.36   268.04   274.54
eigval :      274.99   282.70   287.52   324.94   343.42   361.11
eigval :      368.99   379.45   381.87   383.68   389.44   395.00
eigval :      399.62   414.59   423.92   427.18   427.63   433.30
eigval :      440.82   443.73   450.24   493.82   503.40   510.51
eigval :      510.55   517.71   521.67   522.61   531.32   532.68
eigval :      548.81   556.02   558.65   577.31   589.37   592.82
eigval :      602.57   604.81   614.77   615.22   644.50   659.07
eigval :      659.76   660.39   660.91   670.51   680.23   687.76
eigval :      700.36   704.21   719.33   720.31   729.14   736.92
eigval :      746.22   775.49   778.31   778.46   778.54   800.30
eigval :      804.26   819.37   820.25   853.91   854.41   859.31
eigval :      863.22   863.26   866.07   870.10   873.58   875.27
eigval :      881.32   893.55   894.58   896.01   896.98   897.31
eigval :      910.02   911.93   912.33   913.51   914.36   914.37
eigval :      917.47   918.48   922.98   924.06   924.56   931.89
eigval :      932.22   960.51   974.63  1007.43  1010.51  1025.87
eigval :     1032.41  1074.70  1089.62  1089.66  1091.42  1091.61
eigval :     1107.80  1108.06  1114.54  1120.69  1121.52  1133.49
eigval :     1134.91  1164.78  1171.47  1171.91  1176.35  1176.47
eigval :     1182.46  1183.35  1184.28  1191.78  1194.48  1200.21
eigval :     1200.52  1205.17  1210.89  1221.46  1225.13  1243.40
eigval :     1243.76  1245.02  1250.92  1262.84  1262.98  1265.55
eigval :     1266.60  1301.41  1305.76  1309.98  1310.79  1312.82
eigval :     1318.11  1320.22  1341.91  1343.01  1345.02  1358.16
eigval :     1360.52  1388.93  1394.96  1403.97  1405.89  1420.31
eigval :     1425.30  1425.90  1440.06  1444.15  1444.86  1475.31
eigval :     1483.79  1487.03  1487.15  1488.99  1490.87  1492.52
eigval :     1495.78  1507.86  1508.33  1552.74  1556.45  1561.36
eigval :     1563.25  1568.08  1568.11  1581.63  1581.74  1589.72
eigval :     1590.08  1593.10  1594.65  1604.53  1604.56  1757.58
eigval :     1772.03  3024.50  3026.52  3038.63  3039.09  3040.73
eigval :     3042.34  3081.83  3082.02  3084.96  3085.45  3088.67
eigval :     3088.78  3088.93  3088.94  3094.41  3094.49  3095.31
eigval :     3095.46  3096.29  3096.34  3098.01  3098.02  3098.64
eigval :     3100.35  3104.40  3104.62  3105.23  3105.54  3113.26
eigval :     3113.34  3114.01  3114.24

   temp. (K)  partition function   enthalpy   heat capacity  entropy
                                   cal/mol     cal/K/mol   cal/K/mol   J/K/mol
 298.15  VIB  0.132E+21            25441.970    158.418    158.160
         ROT  0.576E+08              888.752      2.981     38.491
         INT  0.759E+28            26330.722    161.399    196.651
         TR   0.175E+29             1481.254      4.968     45.450
         TOT                       27811.9763   166.3674   242.1002  1012.9472

       T/K    H(0)-H(T)+PV         H(T)/Eh          T*S/Eh         G(T)/Eh
   ------------------------------------------------------------------------
    298.15    0.443212E-01    0.688735E+00    0.115030E+00    0.573705E+00
   ------------------------------------------------------------------------

         :::::::::::::::::::::::::::::::::::::::::::::::::::::
         ::                  THERMODYNAMIC                  ::
         :::::::::::::::::::::::::::::::::::::::::::::::::::::
         :: total free energy        -138.566790316220 Eh   ::
         ::.................................................::
         :: total energy             -139.140495686166 Eh   ::
         :: zero point energy           0.644413781415 Eh   ::
         :: G(RRHO) w/o ZPVE           -0.070708411469 Eh   ::
         :: G(RRHO) contrib.            0.573705369946 Eh   ::
         :::::::::::::::::::::::::::::::::::::::::::::::::::::

           -------------------------------------------------
          | TOTAL ENERGY             -139.140495686166 Eh   |
          | TOTAL ENTHALPY           -138.451760699428 Eh   |
          | TOTAL FREE ENERGY        -138.566790316220 Eh   |
          | GRADIENT NORM               0.000046771926 Eh/α |
          | HOMO-LUMO GAP               0.812057427013 eV   |
           -------------------------------------------------

 * finished run on 2025/09/04 at 00:25:56.959
