   * xtb version 6.7.1 (edcfbbe) compiled by 'albert@albert-system' on 2024-07-22

   ID    Z sym.   atoms
    1    6 C      1-4, 6-12, 14-19, 21-33, 35-40, 42-52
    2    8 O      5, 20, 41, 53
    3    7 N      13, 34
    4    1 H      54-85

          program call               : xtb data2507/gas/5,6PXZ-PIDO/5,6PXZ-PIDO_gas_S0_crest.xyz --gfn 2 --ohess vtight --parallel 40 --molden --ceasefiles --namespace data2507/gas/5,6PXZ-PIDO/5,6PXZ-PIDO_gas_S0_finalOpt
          :  Hamiltonian                  GFN2-xTB          :
 * total energy  :  -139.1404754 Eh     change       -0.2902794E-08 Eh
 * total energy  :  -139.1404764 Eh     change       -0.1037953E-05 Eh
 * total energy  :  -139.1404778 Eh     change       -0.1349185E-05 Eh
 * total energy  :  -139.1404788 Eh     change       -0.1037992E-05 Eh
 * total energy  :  -139.1404795 Eh     change       -0.7250223E-06 Eh
 * total energy  :  -139.1404805 Eh     change       -0.9936313E-06 Eh
 * total energy  :  -139.1404819 Eh     change       -0.1408112E-05 Eh
 * total energy  :  -139.1404833 Eh     change       -0.1373757E-05 Eh
 * total energy  :  -139.1404845 Eh     change       -0.1165653E-05 Eh
 * total energy  :  -139.1404855 Eh     change       -0.9835343E-06 Eh
 * total energy  :  -139.1404885 Eh     change       -0.4967617E-06 Eh
 * total energy  :  -139.1404889 Eh     change       -0.3792673E-06 Eh
 * total energy  :  -139.1404893 Eh     change       -0.3777800E-06 Eh
 * total energy  :  -139.1404897 Eh     change       -0.4278456E-06 Eh
 * total energy  :  -139.1404902 Eh     change       -0.5521849E-06 Eh
 * total energy  :  -139.1404908 Eh     change       -0.6057786E-06 Eh
 * total energy  :  -139.1404913 Eh     change       -0.4705342E-06 Eh
 * total energy  :  -139.1404916 Eh     change       -0.2530014E-06 Eh
 * total energy  :  -139.1404916 Eh     change       -0.3418108E-08 Eh
   *** GEOMETRY OPTIMIZATION CONVERGED AFTER 22 ITERATIONS ***

 final structure:
================
85
 xtb: 6.7.1 (edcfbbe)
C           -8.69828456821012        0.09247475973779       -1.23165293588510
C           -7.81645601539226        0.03123069659118        0.01907225497603
C           -8.67701181634843       -0.02448671278499        1.28498805837470
C           -6.88919261923480       -1.18485094251921       -0.04401681082261
O           -7.23757144725676       -2.33735093970448       -0.09954352628326
C           -5.50478035021896       -0.67558022820295       -0.02569535784207
C           -4.31698652024654       -1.38255496524246       -0.05547244564086
C           -3.10889780944885       -0.68903682372992       -0.02318591656204
C           -1.84608553656621       -1.44606514596911       -0.02329385163453
C           -0.84204714622842       -1.16746074664977        0.90342167832661
C            0.36600318809844       -1.82946083376571        0.84734353935120
C            0.59577912878377       -2.78662557704353       -0.13730547373808
N            1.86131155679189       -3.40394110322104       -0.22763614509180
C            2.97303843290132       -2.64761851829595       -0.60453087745886
C            2.85819545152618       -1.33223572342039       -1.03401884845824
C            3.98119989230116       -0.60684486792204       -1.40189459273314
C            5.23151395881760       -1.18732928839334       -1.35370978626985
C            5.35834268798281       -2.51121847535425       -0.95817429883871
C            4.24189845491888       -3.24085428319408       -0.59568184404509
O            4.43509384827850       -4.55446426021408       -0.24518887539099
C            3.31954077108351       -5.30704599921074        0.03232496142214
C            3.51785176996054       -6.64600447716254        0.31058480390728
C            2.44212345435290       -7.46141169396551        0.63246953854029
C            1.17216786134155       -6.92468177625178        0.68511423669202
C            0.96630658269074       -5.58240538026515        0.40300177607969
C            2.02958544481704       -4.75941088595701        0.05688683547799
C           -0.41887374205063       -3.10660967109019       -1.03268567010128
C           -1.62977900042880       -2.44480015862682       -0.96956107753953
C           -3.10406590393009        0.72030520442012        0.01786753591053
C           -1.83615894920623        1.46865105402681        0.01367188473258
C           -1.61418242374927        2.47139217895746        0.95445987951982
C           -0.39825849560594        3.12411481381610        1.01623729502718
C            0.61601452550094        2.78866611423221        0.12654164738140
N            1.88901512247633        3.39150943001402        0.22053494937790
C            2.08116857512359        4.73551946788801       -0.09833836163987
C            1.03449716865754        5.56284678997150       -0.48216812616939
C            1.26387208864826        6.89359448053106       -0.79888272125699
C            2.54067693136071        7.41341114115435       -0.74252593506087
C            3.59991051349458        6.59290127276145       -0.38072224746981
C            3.37838873912734        5.26535456830423       -0.06796662460216
O            4.47803635918979        4.50493107605333        0.24992273196179
C            4.25951190517954        3.20495113409152        0.63536915717922
C            5.35808072495157        2.46970528992958        1.03850829603266
C            5.20419526691720        1.15926060423216        1.46823056157256
C            3.94490009289523        0.59802420511494        1.50880076407439
C            2.83944412424725        1.32913426126799        1.10106642140403
C            2.98199908761631        2.63048155676159        0.63861772840682
C            0.38089106270287        1.82895043075848       -0.85394779298770
C           -0.83305651974741        1.17761682617369       -0.91019570410999
C           -4.30731052108538        1.42181056072606        0.05698732834601
C           -5.49990495203227        0.72267262604768        0.03652751885366
C           -6.88055200065427        1.24127893891117        0.06791194154666
O           -7.22052382732934        2.39627848119762        0.12389990006138
H           -9.32780171005239       -0.79283138045635       -1.28043227956965
H           -9.32574725817902        0.97981259218483       -1.19515859177664
H           -8.08475582645130        0.13517696857661       -2.13024336362976
H           -9.30137878044169        0.86387803471710        1.34355423398568
H           -9.30929349034279       -0.90881260395661        1.26021622864726
H           -8.04842797794861       -0.06917691338086        2.17303045220130
H           -4.32918755274289       -2.46188709766332       -0.08055217938287
H           -1.01603270748859       -0.43308907449559        1.67563458788594
H            1.14707976729680       -1.60576723918639        1.55857396020767
H            1.88259100085408       -0.87364358485918       -1.07778532606774
H            3.86986501923112        0.41711327088151       -1.72322602897932
H            6.10837876448185       -0.62349430039036       -1.62887875215440
H            6.31949788702435       -2.99897136177413       -0.92793123143340
H            4.52445812177732       -7.03108760309921        0.27808118228537
H            2.60727781096073       -8.50511692100544        0.84806465207990
H            0.32818141052639       -7.54305485481141        0.94933551086153
H           -0.02855280232191       -5.16916454807162        0.46255692048653
H           -0.24530550037890       -3.85854572325900       -1.78803141477821
H           -2.40311284211551       -2.67364134194749       -1.68817147284090
H           -2.38716653113804        2.71055132898874        1.67004342822925
H           -0.22035570918618        3.88030075826786        1.76630770147145
H            0.03483865204819        5.16134533483405       -0.54322114114257
H            0.43296971974601        7.51625158124833       -1.09285600585995
H            2.72411798958426        8.44805616629261       -0.98534005193457
H            4.61110213448558        6.96529926556488       -0.34313278675606
H            6.32699100095148        2.94208792885559        1.01221839291611
H            6.06751822765269        0.59084062585139        1.77498774881220
H            3.81280998200155       -0.41520410390563        1.85539600048237
H            1.85624401064164        0.88638474647879        1.13869411363144
H            1.16224713288478        1.59437672371255       -1.56138705195020
H           -1.01150145249639        0.44131501387652       -1.67946891127113
H           -4.31241754682982        2.50120479791978        0.08132071964369

          :  Hamiltonian                  GFN2-xTB          :
         :: gradient norm              0.000041922372 Eh/a0 ::
         :: HOMO-LUMO gap              0.814490408400 eV    ::
         :: SCC energy              -141.487387839349 Eh    ::
         :: -> dispersion             -0.128592694731 Eh    ::
         :: repulsion energy           2.346896267221 Eh    ::

    * Orbital Energies and Occupations

         #    Occupation            Energy/Eh            Energy/eV
      -------------------------------------------------------------
         1        2.0000           -0.7282044             -19.8154
       ...           ...                  ...                  ...
       115        2.0000           -0.4246232             -11.5546
       116        2.0000           -0.4210236             -11.4566
       117        2.0000           -0.4186069             -11.3909
       118        2.0000           -0.4144161             -11.2768
       119        2.0000           -0.4142603             -11.2726
       120        2.0000           -0.4125207             -11.2253
       121        2.0000           -0.4083311             -11.1113
       122        2.0000           -0.4061592             -11.0522
       123        2.0000           -0.3944496             -10.7335
       124        2.0000           -0.3928196             -10.6892
       125        2.0000           -0.3893314             -10.5942
       126        2.0000           -0.3449800              -9.3874
       127        2.0000           -0.3435423              -9.3483 (HOMO)
       128        0.0000           -0.3136103              -8.5338 (LUMO)
       129                         -0.2869446              -7.8082
       130                         -0.2605798              -7.0907
       131                         -0.2515368              -6.8447
       132                         -0.2468460              -6.7170
       133                         -0.2438333              -6.6350
       134                         -0.2400236              -6.5314
       135                         -0.2375195              -6.4632
       136                         -0.2312591              -6.2929
       137                         -0.2296369              -6.2487
       138                         -0.2169823              -5.9044
       ...                                ...                  ...
       244                          0.7261119              19.7585
      -------------------------------------------------------------
                  HL-Gap            0.0299320 Eh            0.8145 eV

     #   Z          covCN         q      C6AA      α(0)
     1   6 C        3.758    -0.096    22.388     6.746
     2   6 C        3.925    -0.023    20.928     6.502
     3   6 C        3.758    -0.096    22.387     6.746
     4   6 C        2.854     0.228    23.220     7.898
     5   8 O        0.856    -0.344    20.586     6.083
     6   6 C        3.010    -0.021    28.512     8.759
     7   6 C        2.918    -0.021    28.523     8.758
     8   6 C        2.980     0.016    27.648     8.625
     9   6 C        2.978     0.010    27.791     8.647
    10   6 C        2.923    -0.030    28.747     8.793
    11   6 C        2.921    -0.039    28.968     8.826
    12   6 C        2.922     0.068    26.470     8.437
    13   7 N        2.752    -0.073    22.666     7.071
    14   6 C        2.925     0.042    27.053     8.530
    15   6 C        2.924    -0.059    29.463     8.901
    16   6 C        2.919    -0.036    28.889     8.814
    17   6 C        2.919    -0.039    28.980     8.828
    18   6 C        2.920    -0.056    29.390     8.890
    19   6 C        2.883     0.125    25.267     8.241
    20   8 O        1.708    -0.256    18.234     5.765
    21   6 C        2.883     0.124    25.274     8.242
    22   6 C        2.920    -0.056    29.392     8.890
    23   6 C        2.919    -0.040    29.006     8.832
    24   6 C        2.919    -0.039    28.960     8.825
    25   6 C        2.923    -0.061    29.511     8.909
    26   6 C        2.922     0.043    27.046     8.528
    27   6 C        2.920    -0.040    28.983     8.828
    28   6 C        2.924    -0.033    28.814     8.803
    29   6 C        2.980     0.016    27.650     8.625
    30   6 C        2.978     0.010    27.784     8.646
    31   6 C        2.925    -0.033    28.812     8.803
    32   6 C        2.920    -0.039    28.975     8.827
    33   6 C        2.923     0.069    26.464     8.436
    34   7 N        2.752    -0.074    22.679     7.073
    35   6 C        2.922     0.043    27.044     8.528
    36   6 C        2.923    -0.061    29.512     8.909
    37   6 C        2.919    -0.039    28.959     8.825
    38   6 C        2.919    -0.041    29.009     8.832
    39   6 C        2.920    -0.056    29.393     8.891
    40   6 C        2.883     0.124    25.276     8.242
    41   8 O        1.708    -0.256    18.239     5.766
    42   6 C        2.883     0.124    25.268     8.241
    43   6 C        2.920    -0.056    29.391     8.890
    44   6 C        2.919    -0.040    28.982     8.828
    45   6 C        2.919    -0.036    28.890     8.814
    46   6 C        2.924    -0.059    29.465     8.902
    47   6 C        2.925     0.042    27.051     8.529
    48   6 C        2.921    -0.039    28.963     8.825
    49   6 C        2.923    -0.030    28.746     8.792
    50   6 C        2.918    -0.021    28.523     8.758
    51   6 C        3.010    -0.021    28.513     8.759
    52   6 C        2.854     0.228    23.221     7.898
    53   8 O        0.856    -0.344    20.587     6.083
    54   1 H        0.925     0.059     2.206     2.323
    55   1 H        0.925     0.059     2.206     2.323
    56   1 H        0.925     0.035     2.510     2.478
    57   1 H        0.925     0.059     2.206     2.323
    58   1 H        0.925     0.059     2.206     2.323
    59   1 H        0.925     0.035     2.511     2.478
    60   1 H        0.926     0.062     2.177     2.307
    61   1 H        0.926     0.036     2.498     2.471
    62   1 H        0.926     0.044     2.392     2.419
    63   1 H        0.926     0.029     2.597     2.520
    64   1 H        0.926     0.030     2.581     2.512
    65   1 H        0.926     0.039     2.464     2.454
    66   1 H        0.926     0.051     2.303     2.373
    67   1 H        0.926     0.051     2.313     2.378
    68   1 H        0.926     0.038     2.472     2.458
    69   1 H        0.926     0.036     2.500     2.473
    70   1 H        0.926     0.033     2.547     2.496
    71   1 H        0.926     0.047     2.358     2.401
    72   1 H        0.926     0.042     2.416     2.431
    73   1 H        0.926     0.043     2.412     2.429
    74   1 H        0.926     0.047     2.357     2.401
    75   1 H        0.926     0.032     2.553     2.499
    76   1 H        0.926     0.036     2.502     2.473
    77   1 H        0.926     0.038     2.473     2.459
    78   1 H        0.926     0.050     2.314     2.379
    79   1 H        0.926     0.051     2.305     2.374
    80   1 H        0.926     0.039     2.466     2.456
    81   1 H        0.926     0.030     2.584     2.514
    82   1 H        0.926     0.029     2.602     2.523
    83   1 H        0.926     0.044     2.391     2.418
    84   1 H        0.926     0.037     2.492     2.469
    85   1 H        0.926     0.062     2.176     2.307

molecular dipole:
                 x           y           z       tot (Debye)
 q only:        0.281      -0.011      -0.004
   full:        0.218      -0.009      -0.003       0.555

 projected vibrational frequencies (cm⁻¹)
eigval :       -0.00    -0.00    -0.00    -0.00     0.00     0.00
eigval :       10.19    10.98    15.09    21.53    23.79    24.17
eigval :       30.13    39.75    42.96    49.98    54.38    68.42
eigval :       75.51    76.31    84.20   110.21   115.25   122.88
eigval :      125.68   139.99   143.08   174.61   175.27   175.35
eigval :      188.63   191.38   198.15   201.78   223.86   237.97
eigval :      239.01   252.14   252.59   254.40   268.03   274.62
eigval :      274.98   282.82   287.51   324.93   343.54   361.01
eigval :      369.00   379.36   381.96   383.63   389.59   395.07
eigval :      399.67   414.65   423.86   427.16   427.89   433.31
eigval :      440.88   443.87   450.20   493.89   503.51   510.50
eigval :      510.59   517.72   521.68   522.67   531.38   532.63
eigval :      548.81   556.03   558.66   577.31   589.37   592.83
eigval :      602.61   604.84   614.77   615.19   644.48   659.10
eigval :      659.78   660.43   660.96   670.51   680.20   687.74
eigval :      700.34   704.20   719.33   720.29   729.13   736.90
eigval :      746.21   775.53   778.35   778.46   778.61   800.31
eigval :      804.27   819.44   820.34   853.91   854.46   859.36
eigval :      863.16   863.46   866.24   870.10   873.63   875.39
eigval :      881.36   893.57   894.60   896.11   896.97   897.41
eigval :      910.02   911.93   912.31   913.61   914.34   914.41
eigval :      917.47   918.47   922.98   924.09   924.71   931.92
eigval :      932.36   960.51   974.63  1007.41  1010.51  1025.87
eigval :     1032.41  1074.73  1089.52  1089.83  1091.40  1091.69
eigval :     1107.80  1108.08  1114.56  1120.70  1121.55  1133.54
eigval :     1134.96  1164.80  1171.46  1171.91  1176.33  1176.47
eigval :     1182.49  1183.38  1184.31  1191.82  1194.51  1200.18
eigval :     1200.65  1205.19  1210.89  1221.49  1225.15  1243.40
eigval :     1243.78  1245.03  1250.97  1262.86  1263.00  1265.56
eigval :     1266.64  1301.37  1305.80  1309.95  1310.82  1312.82
eigval :     1318.06  1320.21  1341.76  1343.02  1345.03  1358.12
eigval :     1360.51  1388.92  1394.98  1404.00  1405.89  1420.27
eigval :     1425.28  1425.90  1440.06  1444.14  1444.85  1475.32
eigval :     1483.80  1487.03  1487.14  1488.91  1490.87  1492.47
eigval :     1495.79  1507.79  1508.36  1552.71  1556.40  1561.32
eigval :     1563.23  1568.04  1568.14  1581.61  1581.74  1589.69
eigval :     1590.08  1593.07  1594.64  1604.45  1604.59  1757.57
eigval :     1771.99  3024.51  3026.54  3038.63  3039.09  3040.73
eigval :     3042.35  3081.79  3082.08  3084.90  3085.46  3088.54
eigval :     3088.84  3089.00  3089.13  3094.38  3094.49  3095.27
eigval :     3095.46  3096.25  3096.37  3097.82  3098.30  3098.69
eigval :     3100.44  3104.34  3104.76  3105.24  3105.69  3113.27
eigval :     3113.37  3114.02  3114.24

   temp. (K)  partition function   enthalpy   heat capacity  entropy
                                   cal/mol     cal/K/mol   cal/K/mol   J/K/mol
 298.15  VIB  0.128E+21            25439.381    158.415    158.122
         ROT  0.115E+09              888.752      2.981     39.870
         INT  0.148E+29            26328.133    161.396    197.992
         TR   0.175E+29             1481.254      4.968     45.450
         TOT                       27809.3868   166.3644   243.4412  1018.5578

       T/K    H(0)-H(T)+PV         H(T)/Eh          T*S/Eh         G(T)/Eh
   ------------------------------------------------------------------------
    298.15    0.443171E-01    0.688742E+00    0.115667E+00    0.573075E+00
   ------------------------------------------------------------------------

         :::::::::::::::::::::::::::::::::::::::::::::::::::::
         ::                  THERMODYNAMIC                  ::
         :::::::::::::::::::::::::::::::::::::::::::::::::::::
         :: total free energy        -138.567416386079 Eh   ::
         ::.................................................::
         :: total energy             -139.140491572129 Eh   ::
         :: zero point energy           0.644424856973 Eh   ::
         :: G(RRHO) w/o ZPVE           -0.071349670923 Eh   ::
         :: G(RRHO) contrib.            0.573075186050 Eh   ::
         :::::::::::::::::::::::::::::::::::::::::::::::::::::

           -------------------------------------------------
          | TOTAL ENERGY             -139.140491572129 Eh   |
          | TOTAL ENTHALPY           -138.451749636418 Eh   |
          | TOTAL FREE ENERGY        -138.567416386079 Eh   |
          | GRADIENT NORM               0.000041920004 Eh/α |
          | HOMO-LUMO GAP               0.814490287504 eV   |
           -------------------------------------------------

 * finished run on 2025/09/04 at 00:31:15.479
