   * xtb version 6.7.1 (edcfbbe) compiled by 'albert@albert-system' on 2024-07-22

   ID    Z sym.   atoms
    1    6 C      1-8, 10-25, 27-41, 43-52, 54-65
    2    7 N      9, 26, 53
    3    5 B      42
    4    1 H      66-131

          program call               : xtb data2507/gas/tDMAC-BN/tDMAC-BN_gas_T1_crest.xyz --gfn 2 --spinpol --tblite --uhf 2 --ohess vtight --parallel 40 --molden --ceasefiles --namespace data2507/gas/tDMAC-BN/tDMAC-BN_gas_T1_finalOpt
 * total energy  :  -174.3719053 Eh     change       -0.4059555E-07 Eh
 * total energy  :  -174.3719110 Eh     change       -0.5746791E-05 Eh
 * total energy  :  -174.3719140 Eh     change       -0.3029512E-05 Eh
 * total energy  :  -174.3719152 Eh     change       -0.1165843E-05 Eh
 * total energy  :  -174.3719170 Eh     change       -0.1796001E-05 Eh
 * total energy  :  -174.3719178 Eh     change       -0.8143039E-06 Eh
 * total energy  :  -174.3719190 Eh     change       -0.1202785E-05 Eh
 * total energy  :  -174.3719202 Eh     change       -0.1192541E-05 Eh
 * total energy  :  -174.3719211 Eh     change       -0.9431341E-06 Eh
 * total energy  :  -174.3719219 Eh     change       -0.7834265E-06 Eh
 * total energy  :  -174.3719278 Eh     change        0.1613001E-06 Eh
 * total energy  :  -174.3719280 Eh     change       -0.2280079E-06 Eh
 * total energy  :  -174.3719282 Eh     change       -0.1424507E-06 Eh
 * total energy  :  -174.3719281 Eh     change        0.7373458E-07 Eh
 * total energy  :  -174.3719283 Eh     change       -0.1563807E-06 Eh
 * total energy  :  -174.3719286 Eh     change       -0.3145648E-06 Eh
 * total energy  :  -174.3719284 Eh     change        0.1559202E-06 Eh
 * total energy  :  -174.3719288 Eh     change       -0.3361797E-06 Eh
 * total energy  :  -174.3719288 Eh     change       -0.7146815E-07 Eh
   *** GEOMETRY OPTIMIZATION CONVERGED AFTER 36 ITERATIONS ***

 final structure:
================
131
 xtb: 6.7.1 (edcfbbe)
C           -1.04515698299953        7.31230772926310        2.18421949091420
C           -2.46953837395323        6.74812647202624        2.08072403460527
C           -3.29946801331730        7.70642958224867        1.22227381004859
C           -3.10408835373554        6.68211069213109        3.47737970790262
C           -2.40826480492842        5.34541342444852        1.49884124891891
C           -1.64381650251337        4.36895507167930        2.13635615112350
C           -1.54675684399998        3.08722075183263        1.64162586220130
C           -2.21922238553821        2.72613018326770        0.47479333920941
N           -2.08286952932651        1.43527788770664       -0.04873818267660
C           -3.17892857773658        0.75669167327991       -0.57054288708604
C           -3.03245051971115       -0.18015744983951       -1.59392887715711
C           -4.12590766757438       -0.85867063757149       -2.09424863182192
C           -5.41047772485717       -0.62939431587333       -1.61363158432006
C           -6.64548572144964       -1.31988517083642       -2.16952312590525
C           -7.39056754629036       -2.03927175392586       -1.03640162520624
C           -6.30795432853924       -2.35133764604553       -3.24963082344515
C           -7.56211320465382       -0.25710522028843       -2.79329096884011
C           -5.54621455452644        0.30783257242556       -0.58978025104026
C           -4.46333964748216        0.98225692342667       -0.07043251518532
C           -0.81059790707945        0.84991708429353       -0.04946471481604
C           -0.66386035304840       -0.51980660167272        0.22428019280038
C            0.59049682417389       -1.11919171348668        0.15603531826523
C            1.74899675912061       -0.35336229891210       -0.08739179858388
C            1.58315401313864        1.03510044509261       -0.26812143163743
C            0.31943783350796        1.62075857184929       -0.31170281228149
N            2.71443270317688        1.82091505577929       -0.47926814840149
C            2.74124763642266        3.14157031055545       -0.06032100186704
C            2.03023778520789        3.54561268063390        1.07522405573921
C            2.09205467615155        4.85055832900489        1.50688096261122
C            2.87988552634746        5.76892233006435        0.82795336028135
C            3.61320472998669        5.36593820498597       -0.27781996900070
C            3.55912746570236        4.06293349807258       -0.73911966340703
C            4.26762011257706        3.56158564711465       -1.97663354195072
C            3.22865327200430        3.47401234639258       -3.11764660101400
C            5.38905658305159        4.49721320278886       -2.42851525846674
C            4.75340867217430        2.15369752160886       -1.68436137405643
C            5.97191434149870        1.66432185013978       -2.13795329286543
C            6.29073350896375        0.32347296903562       -1.96715570168395
C            5.40520634368636       -0.53658570385943       -1.35726725614303
C            4.18306821586212       -0.09511334856949       -0.82764803951830
C            3.88783148219380        1.28345839012619       -1.01201055959943
B            3.11793874094780       -0.99102507762822       -0.17041644384907
C            3.16134967897573       -2.46251756615233        0.26868021167200
C            4.33322110112162       -3.19648663793000        0.50585998054358
C            4.34843668658057       -4.54204188307954        0.83169978679032
C            5.62761412112736       -5.32205781917803        1.08301213484817
C            5.72815160761926       -6.46168796755895        0.05851942214769
C            6.88559489687516       -4.45819910680600        0.95874207500003
C            5.58621514399887       -5.90440026411258        2.50327684019683
C            3.11742668338322       -5.20037438732104        0.91531467722588
C            1.93183570433604       -4.51353383761848        0.74195075218220
C            1.92834473738250       -3.14625724790291        0.46014627161603
N            0.71597953762479       -2.48266364475863        0.35567183936477
C           -0.49329831814728       -3.21934334038753        0.48158064964790
C           -1.25426281528797       -3.48514511464016       -0.64755625109407
C           -2.46193278966660       -4.14937508088194       -0.53611993810591
C           -2.94370007717542       -4.56759682381623        0.69883046046560
C           -4.27956637587559       -5.27188091373927        0.86986743142344
C           -4.99558370692966       -5.50609851394993       -0.46256792926331
C           -5.17986940441844       -4.39801525868073        1.75556124522970
C           -4.05520198106053       -6.63628382533504        1.53642647259351
C           -2.16090522117911       -4.30259884930363        1.82117014717301
C           -0.95501746862569       -3.63813803937232        1.72300627522336
C           -2.99966025003712        3.68738990997420       -0.16186473086735
C           -3.08860145526557        4.96934980764248        0.34589910525737
H           -0.44165876829705        6.73773488196510        2.88080171762791
H           -1.07430130404187        8.34250431984491        2.53310014840448
H           -0.55800441277944        7.28848656902033        1.21154686172912
H           -2.88086891074756        7.79582497298835        0.22246347223742
H           -3.29845700590628        8.69481942601074        1.67763405813300
H           -4.33223460213026        7.37367115461682        1.14889333122630
H           -2.52705227315503        6.04656620670244        4.14361370351907
H           -3.15571719942818        7.67736424398244        3.91396412233786
H           -4.11320276539712        6.28012514504103        3.41321336840522
H           -1.11530401381421        4.60557486146193        3.04729188478268
H           -0.95616937974504        2.34600876288177        2.16032081786747
H           -2.05253398736088       -0.36525609728278       -2.00842197143264
H           -3.95523686730208       -1.56760673289002       -2.88810030577510
H           -6.74221751015140       -2.77294904099602       -0.56308839636843
H           -7.72570260061748       -1.34108285133787       -0.27465720988088
H           -8.26363393710399       -2.55531617022471       -1.43065463768695
H           -5.65077027621827       -3.12620405456493       -2.86143956324147
H           -5.83216375634664       -1.87977419736229       -4.10621530473369
H           -7.22273586091945       -2.82899387891128       -3.59500790564914
H           -7.04038526603217        0.26788858382276       -3.59085656800929
H           -7.87613371456485        0.47427318888285       -2.05357466140109
H           -8.45113858179957       -0.72517456256683       -3.21103588657551
H           -6.52127879778270        0.51939499520347       -0.17696397858983
H           -4.60392758970996        1.69095687814739        0.73267494534570
H           -1.54617181122157       -1.08980252322078        0.46993469214054
H            0.20572795162672        2.66741836242875       -0.55420136832837
H            1.45692164748695        2.81611996940830        1.62546175928464
H            1.54055572495598        5.15167497318613        2.38401028402304
H            2.93176464864022        6.79349922451892        1.16358373159272
H            4.22830849144561        6.09455224369856       -0.78080784443303
H            3.69871032243046        3.07965713699170       -4.01613703985703
H            2.82729879984075        4.46236725146091       -3.33422607215343
H            2.40435288912458        2.81851648993758       -2.84691925756737
H            5.85098793322690        4.11996106682753       -3.33699170397399
H            6.14910261675839        4.59379778339263       -1.65636280303798
H            4.98848760928397        5.48157852217576       -2.65801129663178
H            6.67338192708735        2.30787728307961       -2.64151723954206
H            7.23775751120828       -0.04542996584344       -2.33634960010389
H            5.65055397636490       -1.58443724341735       -1.29079807373352
H            5.25961487963230       -2.65304999855383        0.44328445137575
H            5.73355825842313       -6.05774088420429       -0.95185626026334
H            6.64739179020812       -7.02390377650422        0.21142716981698
H            4.89069753019307       -7.14839457948589        0.14583362130732
H            7.76532906598474       -5.06752051315839        1.15828659787360
H            6.98130688318952       -4.04877639305435       -0.04407888197039
H            6.87185879279705       -3.64107110260041        1.67612318094614
H            5.50107634903062       -5.10272448616059        3.23415524160241
H            6.49760542949081       -6.46313441790162        2.70734676935834
H            4.74007717536537       -6.57381782223105        2.63205371599792
H            3.07024303585551       -6.25730121033132        1.12816211384079
H            1.00067871630407       -5.05463483107484        0.82367295888306
H           -0.89696630173267       -3.16094128868089       -1.61380372179677
H           -3.02342410843439       -4.33230503941195       -1.43693695749029
H           -5.20635441026929       -4.56393567605847       -0.96269027630492
H           -5.94342321860862       -6.00924840571221       -0.28238692546596
H           -4.40126798998817       -6.13509778355943       -1.12148615511584
H           -6.16718195616183       -4.84590722961916        1.84610114831686
H           -5.28654029199813       -3.40583220791981        1.32067384275022
H           -4.76434984451140       -4.28648365284942        2.75323671289165
H           -3.39757224113502       -7.25000397710837        0.92426325328059
H           -3.60548882479145       -6.53100146939386        2.51962204988454
H           -5.00402293737975       -7.15586115195759        1.65122917892776
H           -2.49736658270476       -4.60936470692108        2.79970775279995
H           -0.36702195408202       -3.43293156521501        2.60555075997997
H           -3.52976574173769        3.42606293794577       -1.06638855868215
H           -3.69785873964375        5.68025487130242       -0.18798428937086

 projected vibrational frequencies (cm⁻¹)
eigval :       -0.00    -0.00     0.00     0.00     0.00     0.00
eigval :        8.01    11.68    17.45    19.16    22.28    23.11
eigval :       27.93    33.49    35.58    39.34    41.80    49.02
eigval :       51.62    58.28    59.34    69.88    72.39    75.35
eigval :       86.63    90.26    93.99    99.56   106.50   117.32
eigval :      120.43   130.26   148.57   158.53   160.76   165.08
eigval :      168.53   170.63   179.52   180.69   182.25   187.84
eigval :      193.96   202.65   206.69   216.61   220.93   222.63
eigval :      223.27   229.00   232.16   238.00   241.42   248.81
eigval :      252.76   261.49   267.82   278.72   283.02   286.82
eigval :      302.53   307.46   308.80   311.84   314.13   315.12
eigval :      316.64   318.89   323.19   327.39   338.12   340.62
eigval :      346.13   353.70   357.25   361.66   367.39   370.67
eigval :      378.87   381.91   382.98   387.05   388.18   394.31
eigval :      397.07   402.28   407.91   410.44   421.14   426.10
eigval :      428.91   438.39   440.53   444.43   454.00   457.50
eigval :      460.33   462.17   470.96   479.10   484.31   490.29
eigval :      494.48   511.11   521.99   526.01   532.99   537.05
eigval :      540.72   552.33   558.01   568.94   575.95   579.43
eigval :      583.84   588.06   603.89   607.55   609.41   613.90
eigval :      617.14   628.53   635.91   659.87   664.21   681.74
eigval :      685.41   686.54   692.56   700.35   706.57   710.81
eigval :      718.01   723.06   735.91   765.06   770.55   773.49
eigval :      784.44   796.39   801.32   810.20   814.58   817.13
eigval :      821.12   851.27   854.15   862.99   864.57   867.03
eigval :      868.71   869.85   872.80   874.99   875.74   884.87
eigval :      886.16   893.01   898.99   906.35   909.65   910.06
eigval :      911.08   913.84   916.94   922.88   924.38   925.41
eigval :      927.86   929.99   933.51   944.89   958.21   959.39
eigval :      960.08   960.14   960.58   960.73   962.18   962.22
eigval :      962.63   962.81   963.28   963.56   964.48   988.87
eigval :     1000.58  1007.26  1014.71  1023.92  1033.17  1033.60
eigval :     1034.15  1034.47  1034.90  1035.10  1035.47  1036.02
eigval :     1048.25  1061.99  1091.31  1105.25  1109.61  1127.06
eigval :     1136.81  1140.65  1143.37  1144.63  1145.02  1146.16
eigval :     1150.36  1155.21  1156.66  1159.62  1173.52  1181.92
eigval :     1188.20  1197.98  1201.35  1206.12  1209.55  1211.82
eigval :     1224.28  1225.27  1226.74  1227.08  1227.56  1229.53
eigval :     1233.45  1233.91  1234.16  1235.25  1244.59  1248.29
eigval :     1259.52  1263.34  1265.63  1272.43  1275.65  1276.79
eigval :     1278.84  1281.84  1284.63  1285.70  1289.66  1291.73
eigval :     1301.89  1306.19  1314.51  1315.89  1320.24  1324.65
eigval :     1326.73  1336.23  1337.78  1342.02  1354.18  1366.20
eigval :     1375.04  1395.13  1397.42  1399.61  1400.60  1402.77
eigval :     1403.96  1404.26  1405.31  1405.99  1406.72  1407.72
eigval :     1408.27  1410.12  1411.94  1413.91  1419.05  1425.69
eigval :     1427.06  1427.41  1428.23  1429.89  1448.46  1460.13
eigval :     1470.63  1476.51  1484.81  1484.95  1486.41  1490.52
eigval :     1491.49  1491.61  1492.15  1492.33  1493.60  1494.11
eigval :     1494.40  1495.42  1495.52  1500.35  1502.11  1502.48
eigval :     1502.85  1503.14  1505.58  1505.68  1506.22  1506.62
eigval :     1507.96  1511.20  1513.59  1514.60  1516.25  1516.83
eigval :     1519.00  1520.12  1520.50  1521.76  1526.39  1533.85
eigval :     1538.44  1548.76  1556.43  1557.28  1561.04  1567.64
eigval :     1591.65  1594.67  1597.60  3017.49  3018.76  3020.16
eigval :     3020.96  3021.55  3022.38  3023.23  3023.63  3023.94
eigval :     3026.10  3026.66  3026.97  3027.06  3027.12  3027.22
eigval :     3029.32  3029.57  3030.08  3030.16  3030.23  3031.32
eigval :     3031.87  3033.21  3034.13  3035.95  3036.20  3036.63
eigval :     3038.47  3038.69  3038.79  3038.89  3040.66  3040.87
eigval :     3045.40  3046.29  3046.76  3047.49  3047.55  3048.50
eigval :     3050.64  3051.24  3051.43  3061.93  3074.92  3075.71
eigval :     3076.29  3079.87  3080.49  3082.41  3083.19  3083.36
eigval :     3086.79  3088.78  3089.35  3089.44  3092.53  3094.42
eigval :     3100.86  3103.17  3103.28  3109.16  3109.84  3112.48
eigval :     3115.09  3120.19  3134.59

   temp. (K)  partition function   enthalpy   heat capacity  entropy
                                   cal/mol     cal/K/mol   cal/K/mol   J/K/mol
 298.15  VIB  0.145E+29            37506.500    232.837    231.240
         ROT  0.188E+09              888.752      2.981     40.845
         INT  0.272E+37            38395.252    235.818    272.085
         TR   0.241E+29             1481.254      4.968     46.083
         TOT                       39876.5059   240.7861   318.1686  1331.2175

       T/K    H(0)-H(T)+PV         H(T)/Eh          T*S/Eh         G(T)/Eh
   ------------------------------------------------------------------------
    298.15    0.635473E-01    0.115615E+01    0.151172E+00    0.100498E+01
   ------------------------------------------------------------------------

         :::::::::::::::::::::::::::::::::::::::::::::::::::::
         ::                  THERMODYNAMIC                  ::
         :::::::::::::::::::::::::::::::::::::::::::::::::::::
         :: total free energy        -173.366949620756 Eh   ::
         ::.................................................::
         :: total energy             -174.371928914452 Eh   ::
         :: zero point energy           1.092604216402 Eh   ::
         :: G(RRHO) w/o ZPVE           -0.087624922706 Eh   ::
         :: G(RRHO) contrib.            1.004979293696 Eh   ::
         :::::::::::::::::::::::::::::::::::::::::::::::::::::

           -------------------------------------------------
          | TOTAL ENERGY             -174.371928914452 Eh   |
          | TOTAL ENTHALPY           -173.215777440876 Eh   |
          | TOTAL FREE ENERGY        -173.366949620756 Eh   |
          | GRADIENT NORM               0.000153788178 Eh/α |
           -------------------------------------------------

 * finished run on 2025/09/11 at 17:26:45.016
