   * xtb version 6.7.1 (edcfbbe) compiled by 'albert@albert-system' on 2024-07-22

   ID    Z sym.   atoms
    1    6 C      1-8, 10-25, 27-41, 43-52, 54-65
    2    7 N      9, 26, 53
    3    5 B      42
    4    1 H      66-131

          program call               : xtb data2507/gas/tDMAC-BN/tDMAC-BN_gas_S0_finalOpt.xtbopt.xyz --gfn 2 --spinpol --tblite --uhf 2 --ohess vtight --parallel 40 --molden --ceasefiles --namespace data2507/gas/tDMAC-BN/tDMAC-BN_gas_T1_preOpt
 * total energy  :  -174.3704275 Eh     change       -0.6307170E-07 Eh
 * total energy  :  -174.3714556 Eh     change       -0.1028093E-02 Eh
 * total energy  :  -174.3717294 Eh     change       -0.2738543E-03 Eh
 * total energy  :  -174.3717647 Eh     change       -0.3531441E-04 Eh
 * total energy  :  -174.3717931 Eh     change       -0.2834586E-04 Eh
 * total energy  :  -174.3718093 Eh     change       -0.1624468E-04 Eh
 * total energy  :  -174.3718260 Eh     change       -0.1671328E-04 Eh
 * total energy  :  -174.3718388 Eh     change       -0.1274209E-04 Eh
 * total energy  :  -174.3718454 Eh     change       -0.6660645E-05 Eh
 * total energy  :  -174.3718540 Eh     change       -0.8522638E-05 Eh
 * total energy  :  -174.3719179 Eh     change       -0.6722159E-06 Eh
 * total energy  :  -174.3719187 Eh     change       -0.7737471E-06 Eh
 * total energy  :  -174.3719198 Eh     change       -0.1149167E-05 Eh
 * total energy  :  -174.3719209 Eh     change       -0.1063979E-05 Eh
 * total energy  :  -174.3719218 Eh     change       -0.8669144E-06 Eh
 * total energy  :  -174.3719225 Eh     change       -0.7507433E-06 Eh
 * total energy  :  -174.3719232 Eh     change       -0.6281676E-06 Eh
 * total energy  :  -174.3719235 Eh     change       -0.3040249E-06 Eh
 * total energy  :  -174.3719235 Eh     change       -0.3645809E-07 Eh
   *** GEOMETRY OPTIMIZATION CONVERGED AFTER 44 ITERATIONS ***

 final structure:
================
131
 xtb: 6.7.1 (edcfbbe)
C           -1.13005250218473        7.31536352129835        2.16289234031983
C           -2.54814109420374        6.73327589081611        2.07287584785004
C           -3.39588100731213        7.67662308174934        1.21525475951596
C           -3.17176508836915        6.66746697288562        3.47444084167293
C           -2.47352686260205        5.32828361921951        1.49805606518073
C           -1.69391355157031        4.36433715474425        2.13624068799353
C           -1.58322187120272        3.08162462963886        1.64687796074012
C           -2.25662119078502        2.70685404619428        0.48493037627085
N           -2.10610297018438        1.41586831583661       -0.03439844785556
C           -3.19651469949981        0.72194129722668       -0.54793178461400
C           -3.04481953977907       -0.21370852113249       -1.57160114084334
C           -4.13277470329280       -0.90675873444809       -2.06394026990128
C           -5.41682855527764       -0.69391097338581       -1.57448901226154
C           -6.64658403889541       -1.40142279825972       -2.12051340511638
C           -7.36569028296161       -2.13977542846863       -0.98285011846139
C           -6.30472269364199       -2.42056216124162       -3.21086904090255
C           -7.58842250660164       -0.35091754477263       -2.72726262048731
C           -5.55764141555236        0.24173947949170       -0.54987144561493
C           -4.48016498157028        0.93094322931924       -0.03881173200748
C           -0.82658648121213        0.84691657840964       -0.04067012332297
C           -0.66077861976931       -0.52090063999513        0.23172633209323
C            0.60094433974593       -1.10395219109953        0.15699238514989
C            1.74825256828567       -0.32261162289244       -0.09002031053921
C            1.56365712197261        1.06355012885482       -0.26953757096795
C            0.29220220375955        1.63248706759166       -0.30791240983501
N            2.68380246996346        1.86412649067351       -0.48499426483710
C            2.69547364949645        3.18471933326772       -0.06512720185362
C            1.98380420613313        3.57874138987558        1.07348918764304
C            2.03046296972402        4.88405190815541        1.50590270841049
C            2.80363284764857        5.81300762402011        0.82456389669648
C            3.53797310030613        5.42020736058294       -0.28418717486941
C            3.49905636322396        4.11690040692824       -0.74620996312454
C            4.20929848865473        3.62569600745410       -1.98684991460466
C            3.16721482691506        3.52713854822174       -3.12409049945329
C            5.31767720239998        4.57552553784984       -2.44138854641284
C            4.71356430349007        2.22352914942616       -1.69818474178263
C            5.93603322271794        1.74959562221641       -2.15759494865269
C            6.27259941110508        0.41280774292011       -1.98874793995247
C            5.40111483982949       -0.45848409431391       -1.37466441704881
C            4.17583521123410       -0.03253426548282       -0.83953418463258
C            3.86201607563676        1.34208160505036       -1.02262301444468
B            3.12526204884156       -0.94194628972604       -0.17777896783611
C            3.18988145900060       -2.41232251646530        0.26205125624142
C            4.37250174460922       -3.12937274510712        0.49761695544516
C            4.40733976465570       -4.47457279880959        0.82330899870134
C            5.69765672412871       -5.23620681127893        1.07394930631365
C            5.81651754951397       -6.37057824923504        0.04559864649033
C            6.94269055625048       -4.35309484366959        0.95473008748132
C            5.66316665429941       -5.82414222309980        2.49210285733511
C            3.18594283118167       -5.15062359975355        0.90651319691356
C            1.99042096962533       -4.48077773939415        0.73479758004226
C            1.96681963178006       -3.11319483960317        0.45538250544868
N            0.74509392531966       -2.46598725359840        0.35411678153380
C           -0.45323713658437       -3.22042000017696        0.47765141608309
C           -1.21436160714709       -3.48660123596435       -0.65138031234850
C           -2.40913444856769       -4.17414677339617       -0.54298487250346
C           -2.87759677087500       -4.61636375185830        0.68875263306181
C           -4.19697762216402       -5.35191040381024        0.85609089305263
C           -4.91273671689498       -5.58598782001058       -0.47652346498444
C           -5.11322188569669       -4.50981231404718        1.75600692270397
C           -3.93921154855690       -6.71904600415838        1.50483292150203
C           -2.09624421719410       -4.34795204595316        1.81129666256079
C           -0.90330021633806       -3.66011524478944        1.71620146869856
C           -3.05277497999830        3.65515611355153       -0.15174098938531
C           -3.15528728341898        4.93822891485650        0.35060243506668
H           -0.51427393961405        6.75150103927753        2.85744824542612
H           -1.16921205633548        8.34679240562409        2.50713015592409
H           -0.64995520044774        7.29284279345059        1.18668757164784
H           -2.98523668537631        7.76620428421925        0.21216634538462
H           -3.40422420682022        8.66727193802615        1.66561017753439
H           -4.42483812366476        7.33052415121797        1.15061798132683
H           -2.58218156776198        6.04299610737487        4.14014947176061
H           -3.23250468901484        7.66453409231490        3.90568413872584
H           -4.17629458423575        6.25278451023903        3.41990450924248
H           -1.16387830514460        4.61177441579207        3.04340171686858
H           -0.98085185948714        2.35029100698249        2.16602356849324
H           -2.06543435162616       -0.38621811562687       -1.99272685102654
H           -3.95842109900924       -1.61394967071791       -2.85854447151217
H           -6.70084919814077       -2.86861205375614       -0.52516715857001
H           -7.69849544565230       -1.45214784614700       -0.21051928871195
H           -8.23754839923387       -2.66418788516035       -1.36864691043602
H           -5.63290562989904       -3.18865233520466       -2.83447426163459
H           -5.84391527603016       -1.93624773461416       -4.06854555421882
H           -7.21588341075024       -2.90895767619004       -3.55076833298306
H           -7.08435694779481        0.18890629422283       -3.52627907366451
H           -7.90827076935095        0.36950186455768       -1.97938569340684
H           -8.47308716048211       -0.83204236584328       -3.13939565723415
H           -6.53239632684381        0.44022275457214       -0.12987019806675
H           -4.62432736891801        1.63843054853334        0.76473793066559
H           -1.53418098300972       -1.10273991632973        0.48152510002059
H            0.16388401637826        2.67754041947470       -0.55002858646674
H            1.42221966866591        2.84143704466089        1.62539036386039
H            1.47868962680926        5.17732603619112        2.38551056427246
H            2.84340131676802        6.83798620204376        1.16060831875817
H            4.14178887187925        6.15703832753593       -0.78887702364426
H            3.63877437371755        3.14067534200000       -4.02520566036000
H            2.75245318008348        4.51074504099387       -3.33703028742229
H            2.35240495884050        2.86062576371234       -2.85152325855660
H            5.78067702713302        4.20535584469467       -3.35222557508337
H            6.07941804587288        4.67992283224497       -1.67192439130877
H            4.90451390505962        5.55539379347472       -2.66772835344676
H            6.62704827509132        2.40205442027817       -2.66413188354663
H            7.22245471403052        0.05607196422851       -2.36259528463937
H            5.65998768653064       -1.50316547167614       -1.30913979556930
H            5.29086386401157       -2.57255080049794        0.43373566076189
H            5.81900953712563       -5.96287956695571       -0.96328088357503
H            6.74296915038510       -6.92071515460448        0.19890310503838
H            4.98823090661841       -7.06890590614610        0.12821034830517
H            7.83105340815829       -4.94946138818404        1.15515586144764
H            7.03478241508948       -3.93996411554361       -0.04689792454723
H            6.91466865972702       -3.53787864037767        1.67388284491833
H            5.56523306886959       -5.02643054662810        3.22571055124933
H            6.58256013506564       -6.36992711672394        2.69532260506136
H            4.82704630284108       -6.50662903517838        2.61755945007436
H            3.15407268504426       -6.20844176636958        1.11777868670464
H            1.06754207064750       -5.03586537624221        0.81604006767283
H           -0.86673124528365       -3.14544146401526       -1.61532063735068
H           -2.97074008660290       -4.35712808676803       -1.44372221084491
H           -5.14749618974813       -4.64284456268290       -0.96395805851983
H           -5.84782265282518       -6.11341865701274       -0.29920255966936
H           -4.30655366345083       -6.19262151438143       -1.14552902659397
H           -6.09033953551868       -4.98016486585203        1.84318252473446
H           -5.24264549970304       -3.51440168724785        1.33495497530238
H           -4.69717298530277       -4.40278161343796        2.75394873524822
H           -3.27060028881287       -7.31025123310111        0.88249665795992
H           -3.48771531162166       -6.61572340876480        2.48742724624208
H           -4.87562551616798       -7.26120773064442        1.61702633247931
H           -2.42330770930556       -4.67152670147502        2.78760962972399
H           -0.31600674140275       -3.45373654413780        2.59894565760005
H           -3.58429839240049        3.38298475430488       -1.05223092240680
H           -3.77631022579705        5.63888803678199       -0.18327566290459

 projected vibrational frequencies (cm⁻¹)
eigval :       -0.00    -0.00    -0.00     0.00     0.00     0.00
eigval :        8.10    11.70    17.49    19.26    22.21    23.16
eigval :       27.84    33.64    36.05    39.43    42.22    48.82
eigval :       51.51    58.67    59.47    69.68    72.71    75.52
eigval :       86.92    90.42    94.02    99.66   106.49   117.47
eigval :      120.52   130.77   148.75   158.47   160.85   165.02
eigval :      168.21   170.57   179.23   180.59   182.15   187.64
eigval :      193.92   202.51   206.69   216.39   220.73   222.37
eigval :      223.25   228.79   232.26   238.11   241.29   248.96
eigval :      252.66   261.51   267.81   278.45   282.84   286.85
eigval :      302.60   307.75   308.65   311.72   313.98   315.09
eigval :      316.41   318.71   323.16   327.26   338.22   340.60
eigval :      346.08   353.62   357.28   361.45   367.42   370.55
eigval :      378.95   381.62   383.11   386.93   388.12   394.30
eigval :      396.99   402.50   407.80   410.55   421.31   426.32
eigval :      428.59   438.39   440.43   444.46   453.99   457.46
eigval :      460.13   462.14   470.90   478.88   484.40   490.40
eigval :      494.54   511.09   522.08   526.03   532.92   537.21
eigval :      540.84   552.35   558.20   568.86   575.80   579.50
eigval :      583.67   588.25   603.93   607.53   609.44   613.76
eigval :      617.00   628.52   635.67   659.79   664.25   681.72
eigval :      685.39   686.48   692.57   700.34   706.50   710.67
eigval :      717.89   722.85   735.59   765.02   770.48   773.28
eigval :      784.28   796.47   801.52   810.29   814.58   817.23
eigval :      821.03   851.38   854.17   862.96   864.78   867.00
eigval :      868.83   869.93   872.83   875.09   875.69   884.79
eigval :      886.25   892.89   899.00   906.36   909.71   910.16
eigval :      910.96   914.03   916.91   922.87   924.22   925.56
eigval :      927.95   930.21   933.47   944.83   958.03   959.35
eigval :      959.99   960.02   960.49   960.63   962.06   962.11
eigval :      962.44   962.74   963.15   963.35   964.34   988.77
eigval :     1000.19  1007.10  1014.74  1023.69  1032.95  1033.50
eigval :     1034.04  1034.30  1034.72  1034.90  1035.37  1035.89
eigval :     1048.35  1061.90  1091.02  1105.35  1109.30  1126.70
eigval :     1136.47  1140.59  1143.30  1144.55  1144.79  1145.94
eigval :     1150.24  1155.57  1156.48  1159.57  1173.59  1181.90
eigval :     1188.24  1198.06  1201.43  1206.07  1209.38  1211.75
eigval :     1224.19  1225.22  1226.81  1227.03  1227.50  1229.57
eigval :     1233.35  1233.78  1234.05  1235.44  1244.81  1248.49
eigval :     1259.54  1263.37  1264.88  1272.43  1275.68  1276.76
eigval :     1278.86  1281.87  1284.67  1285.60  1289.64  1291.63
eigval :     1301.90  1305.91  1314.53  1315.97  1320.32  1324.56
eigval :     1326.69  1336.23  1337.70  1342.08  1353.93  1366.12
eigval :     1375.18  1394.93  1397.42  1399.43  1400.38  1402.53
eigval :     1403.70  1403.87  1405.20  1406.01  1406.44  1407.74
eigval :     1408.20  1410.10  1411.55  1413.94  1418.81  1425.74
eigval :     1426.29  1427.02  1427.92  1429.14  1448.79  1460.11
eigval :     1470.66  1476.66  1484.55  1484.88  1486.52  1490.24
eigval :     1491.19  1491.48  1491.78  1492.01  1493.68  1493.85
eigval :     1493.97  1495.01  1495.20  1500.26  1501.70  1502.10
eigval :     1502.50  1502.78  1505.26  1505.47  1505.88  1506.29
eigval :     1507.90  1510.81  1513.44  1514.36  1515.77  1516.83
eigval :     1518.49  1519.80  1520.16  1521.32  1526.23  1533.98
eigval :     1538.24  1548.65  1556.61  1557.09  1560.51  1567.70
eigval :     1591.68  1594.30  1597.66  3017.26  3018.49  3019.96
eigval :     3020.78  3021.32  3022.12  3023.03  3023.46  3023.90
eigval :     3025.86  3026.40  3026.69  3026.88  3026.96  3027.00
eigval :     3029.16  3029.26  3029.74  3029.82  3029.87  3030.84
eigval :     3031.55  3032.90  3033.78  3035.73  3036.02  3036.42
eigval :     3037.91  3038.09  3038.17  3038.43  3040.14  3040.24
eigval :     3044.69  3045.77  3046.35  3046.84  3046.99  3048.02
eigval :     3050.12  3050.89  3051.03  3061.80  3075.04  3075.93
eigval :     3076.08  3079.77  3080.69  3082.15  3083.12  3083.19
eigval :     3086.45  3088.57  3089.18  3089.30  3092.38  3094.24
eigval :     3100.50  3102.54  3103.24  3109.09  3109.94  3112.57
eigval :     3115.27  3120.00  3134.25

   temp. (K)  partition function   enthalpy   heat capacity  entropy
                                   cal/mol     cal/K/mol   cal/K/mol   J/K/mol
 298.15  VIB  0.138E+29            37506.509    232.880    231.218
         ROT  0.188E+09              888.752      2.981     40.846
         INT  0.259E+37            38395.261    235.861    272.064
         TR   0.241E+29             1481.254      4.968     46.083
         TOT                       39876.5151   240.8295   318.1476  1331.1298

       T/K    H(0)-H(T)+PV         H(T)/Eh          T*S/Eh         G(T)/Eh
   ------------------------------------------------------------------------
    298.15    0.635473E-01    0.115606E+01    0.151162E+00    0.100490E+01
   ------------------------------------------------------------------------

         :::::::::::::::::::::::::::::::::::::::::::::::::::::
         ::                  THERMODYNAMIC                  ::
         :::::::::::::::::::::::::::::::::::::::::::::::::::::
         :: total free energy        -173.367023388915 Eh   ::
         ::.................................................::
         :: total energy             -174.371923471510 Eh   ::
         :: zero point energy           1.092515024490 Eh   ::
         :: G(RRHO) w/o ZPVE           -0.087614941896 Eh   ::
         :: G(RRHO) contrib.            1.004900082595 Eh   ::
         :::::::::::::::::::::::::::::::::::::::::::::::::::::

           -------------------------------------------------
          | TOTAL ENERGY             -174.371923471510 Eh   |
          | TOTAL ENTHALPY           -173.215861175238 Eh   |
          | TOTAL FREE ENERGY        -173.367023388915 Eh   |
          | GRADIENT NORM               0.000051458972 Eh/α |
           -------------------------------------------------

 * finished run on 2025/09/11 at 16:39:07.929
