   * xtb version 6.7.1 (edcfbbe) compiled by 'albert@albert-system' on 2024-07-22

   ID    Z sym.   atoms
    1    6 C      1-8, 10-25, 27-41, 43-52, 54-65
    2    7 N      9, 26, 53
    3    5 B      42
    4    1 H      66-131

          program call               : xtb data2507/gas/tDMAC-BN/tDMAC-BN.xyz --gfn 2 --ohess vtight --parallel 40 --molden --ceasefiles --namespace data2507/gas/tDMAC-BN/tDMAC-BN_gas_S0_preOpt
          :  Hamiltonian                  GFN2-xTB          :
 * total energy  :  -174.2822211 Eh     change       -0.6439052E-08 Eh
 * total energy  :  -174.3515360 Eh     change       -0.6931484E-01 Eh
 * total energy  :  -174.3799844 Eh     change       -0.2844840E-01 Eh
 * total energy  :  -174.3931493 Eh     change       -0.1316495E-01 Eh
 * total energy  :  -174.4013867 Eh     change       -0.8237359E-02 Eh
 * total energy  :  -174.4074730 Eh     change       -0.6086371E-02 Eh
 * total energy  :  -174.4127075 Eh     change       -0.5234436E-02 Eh
 * total energy  :  -174.4173247 Eh     change       -0.4617254E-02 Eh
 * total energy  :  -174.4211280 Eh     change       -0.3803302E-02 Eh
 * total energy  :  -174.4240313 Eh     change       -0.2903235E-02 Eh
 * total energy  :  -174.4574648 Eh     change       -0.1577247E-06 Eh
 * total energy  :  -174.4574649 Eh     change       -0.1476453E-06 Eh
 * total energy  :  -174.4574651 Eh     change       -0.1672709E-06 Eh
 * total energy  :  -174.4574653 Eh     change       -0.2110743E-06 Eh
 * total energy  :  -174.4574655 Eh     change       -0.2360850E-06 Eh
 * total energy  :  -174.4574658 Eh     change       -0.2467295E-06 Eh
 * total energy  :  -174.4574660 Eh     change       -0.2526751E-06 Eh
 * total energy  :  -174.4574662 Eh     change       -0.1840542E-06 Eh
 * total energy  :  -174.4574663 Eh     change       -0.9075652E-07 Eh
   *** GEOMETRY OPTIMIZATION CONVERGED AFTER 260 ITERATIONS ***

 final structure:
================
131
 xtb: 6.7.1 (edcfbbe)
C           -3.62788454209490        5.06998394261802        4.60647133128113
C           -4.72686583945446        4.19169118230580        3.99119009099861
C           -5.80077790856341        5.11314061812074        3.40666530611888
C           -5.37616649181642        3.33068964703061        5.08405010671339
C           -4.10581561800314        3.27971000651092        2.94544714372980
C           -3.07658574014286        2.41495662231658        3.31206493452502
C           -2.47312394035758        1.57841984152617        2.39826606282431
C           -2.87561310952447        1.58025137188496        1.06437421721744
N           -2.22986791322698        0.75812368941037        0.13091905860252
C           -2.96544572246105        0.08472173543908       -0.84346612864032
C           -2.43860986066484       -0.15181299343199       -2.11306187814722
C           -3.18489520322055       -0.80589350475458       -3.06946003716304
C           -4.48416787363152       -1.24327835009226       -2.81937314990404
C           -5.27684145510302       -1.92112810803781       -3.92603428609814
C           -4.52751997534238       -3.17549583007130       -4.39457571375595
C           -5.42886977418945       -0.94078035815897       -5.09811366517768
C           -6.67678059036477       -2.34621571268608       -3.47471971335780
C           -4.99702281354078       -1.00931251629900       -1.54915335717814
C           -4.25623739770908       -0.36504273752567       -0.57677246333844
C           -0.83580082728515        0.66021531187639        0.17822141572816
C           -0.21145917665454       -0.54940610873487       -0.10249610463774
C            1.17902831384647       -0.63415566418001       -0.09154573623123
C            1.96091921827439        0.49033870778633        0.24239823984015
C            1.30134365768308        1.68712770878667        0.58164457083469
C           -0.08199761850251        1.78168656153682        0.51516723982644
N            2.05637755190008        2.79502467497903        0.93376363324408
C            1.56671265937087        3.74205855652754        1.84284174673357
C            0.72252521656709        3.35624945149003        2.88100048294518
C            0.28362071579997        4.28353903097510        3.80306554305905
C            0.70782437380477        5.59764712836413        3.71646669028855
C            1.58129035141142        5.97482028590024        2.71126762496950
C            2.01902656739714        5.06255870520450        1.76370322853699
C            2.94047938091055        5.40073153656276        0.61240048289033
C            2.09244765133060        5.47968803671331       -0.67520237687701
C            3.64835672115536        6.74221464869909        0.80005531453394
C            3.90559445594182        4.23797316035037        0.45848149976239
C            5.23914803644207        4.39944371821743        0.13566918325192
C            6.03379593199130        3.30163015137677       -0.16539634925146
C            5.49490536330353        2.03551328941632       -0.14725692478458
C            4.16855066913321        1.80510044928311        0.23056100938188
C            3.38536250317123        2.93563524524531        0.53948247552445
B            3.47406361928026        0.42173162229108        0.23049934586181
C            4.04923152992539       -1.00177408632997        0.11238448151139
C            5.39060090971487       -1.33908947590303        0.33644127043157
C            5.90017888062798       -2.60938265340422        0.15693135853660
C            7.35762441585815       -2.97006858941463        0.39777638600985
C            7.96802901538478       -3.49344368796128       -0.91015044450654
C            8.19145288040951       -1.77471290415963        0.86716332988734
C            7.43250431991001       -4.05882965912980        1.47744050288172
C            5.00947487458428       -3.59507147555814       -0.27799609707734
C            3.67640362111975       -3.32497442455645       -0.46901548742985
C            3.16390987604143       -2.04014463634262       -0.24912866577627
N            1.80596206462691       -1.82211707217864       -0.39702137865059
C            0.97809055780546       -2.89569554649186       -0.83725428128993
C            0.60436329943348       -2.98407041159340       -2.16845647133225
C           -0.22802826383323       -4.00510071735852       -2.59306800363955
C           -0.70743882040409       -4.96097905091973       -1.70575518260840
C           -1.63967677565946       -6.08579857352698       -2.12591405600959
C           -1.88791370321433       -6.11302933770181       -3.63630755612925
C           -2.98521358143546       -5.88687227580793       -1.41324622313519
C           -1.02992538732863       -7.43615851743839       -1.72392993935236
C           -0.32391234726951       -4.85408349422653       -0.37025714074684
C            0.50590934403369       -3.84031078415684        0.06431343546606
C           -3.91400510416391        2.42573021767810        0.68942389619842
C           -4.51520093922342        3.25548612071494        1.61743157034542
H           -2.89395030324018        4.47094627270497        5.13754962044644
H           -4.06224206010263        5.77592027144675        5.31142577416678
H           -3.11163638680084        5.62878661578729        3.82851648277600
H           -5.38460402539143        5.75541871011664        2.63395118960518
H           -6.20102561863423        5.74904071497758        4.19393847908123
H           -6.62499519886704        4.53964065495181        2.98891696521007
H           -4.64538373436207        2.68681387950378        5.56579966842860
H           -5.82649730810336        3.96531120882030        5.84455398777940
H           -6.15315134157449        2.70145288084661        4.65463911951485
H           -2.73705864701195        2.38147427368238        4.33623683720838
H           -1.68327252507047        0.91059281964369        2.71024833306573
H           -1.44209616591844        0.19116298998855       -2.34891090907902
H           -2.73949655838946       -0.96090048614779       -4.04096834462454
H           -3.53366144609913       -2.92863339754662       -4.75827090934219
H           -4.42927990565809       -3.87911650149091       -3.57058283987502
H           -5.07416854211973       -3.66265085313730       -5.19963778203661
H           -4.46159667563716       -0.65556039180272       -5.50246443581555
H           -5.93938942751370       -0.03826460069378       -4.76851397470892
H           -6.01208061616143       -1.39585257477746       -5.89615387023120
H           -7.26688212612884       -1.48587024839458       -3.16800871723142
H           -6.62432471501118       -3.05445104820450       -2.65085559211703
H           -7.19310881149115       -2.82999225506643       -4.30166251289587
H           -5.99234542222382       -1.33220405470263       -1.29031540119349
H           -4.68268389157710       -0.20424574063833        0.40282309118797
H           -0.82063212312424       -1.41118312466074       -0.32561870645402
H           -0.57990853406718        2.71923739606427        0.71125781434627
H            0.42234994986707        2.32379941773611        2.96672610874966
H           -0.37728626152191        3.97531956761159        4.59856762443613
H            0.36776146961292        6.32775612742920        4.43557291222617
H            1.91442617270007        6.99934507644014        2.67299444587503
H            2.73466159180717        5.67643095959774       -1.53137043162012
H            1.36210093680686        6.28224106224227       -0.59109257175264
H            1.56120137118786        4.54795403524979       -0.85225921751359
H            4.27325915660917        6.96257838400111       -0.06163664504899
H            4.26622174626036        6.73538959995038        1.69540158218762
H            2.91815585117453        7.54390329493764        0.87890862138017
H            5.67532752710912        5.38371373762285        0.08096017056697
H            7.06795465359729        3.45220664000878       -0.44021165783593
H            6.10408602515314        1.19787087869702       -0.44873858599922
H            6.03330599718956       -0.54956640663824        0.68621143072774
H            7.89710115751238       -2.73494998266511       -1.68722402485261
H            9.01763751504678       -3.74061108835839       -0.76317608302848
H            7.45457053705736       -4.38559407242655       -1.25815940420166
H            9.22038922970300       -2.09099139070701        1.02861142230259
H            8.19680766215325       -0.98421884391822        0.12031914086577
H            7.81111674097986       -1.37564802477676        1.80457717110869
H            6.98741277310098       -3.69974479940802        2.40323210737006
H            8.46945050780869       -4.32507707806496        1.67298825517090
H            6.90267304134555       -4.95676730822727        1.17113935139025
H            5.35678183198384       -4.60178514535651       -0.45812557653290
H            3.01883059318544       -4.12167117739978       -0.78471473835610
H            0.96494485507755       -2.24615342394136       -2.86997368983442
H           -0.49792349916749       -4.03935121171604       -3.63547285971588
H           -2.37124996896312       -5.19992987456723       -3.97278425508728
H           -2.54272491519895       -6.94699399535617       -3.88074528580447
H           -0.95599436053483       -6.24662042243965       -4.18109173517057
H           -3.69770852035351       -6.64340028395412       -1.73517085277807
H           -3.39115643947307       -4.90380747322652       -1.64475735947314
H           -2.87367068328877       -5.95936980652808       -0.33472580483540
H           -0.05850058349468       -7.56531061522574       -2.19668868560206
H           -0.89888854042542       -7.51359166897277       -0.64849670552168
H           -1.67960535876768       -8.24787651936762       -2.04405157194760
H           -0.68063890209225       -5.56988628262456        0.35444788138751
H            0.79168829761589       -3.77131484984726        1.10377841433957
H           -4.24464735752546        2.43689766506318       -0.33921320871728
H           -5.31019092450135        3.89834716859225        1.27623954626280

          :  Hamiltonian                  GFN2-xTB          :
         :: gradient norm              0.000062809407 Eh/a0 ::
         :: HOMO-LUMO gap              2.283404615859 eV    ::
         :: SCC energy              -177.499688482428 Eh    ::
         :: -> dispersion             -0.181657699382 Eh    ::
         :: repulsion energy           3.042222179570 Eh    ::

    * Orbital Energies and Occupations

         #    Occupation            Energy/Eh            Energy/eV
      -------------------------------------------------------------
         1        2.0000           -0.6597101             -17.9516
       ...           ...                  ...                  ...
       152        2.0000           -0.3962248             -10.7818
       153        2.0000           -0.3939220             -10.7192
       154        2.0000           -0.3917229             -10.6593
       155        2.0000           -0.3900433             -10.6136
       156        2.0000           -0.3886431             -10.5755
       157        2.0000           -0.3858668             -10.5000
       158        2.0000           -0.3843082             -10.4576
       159        2.0000           -0.3817731             -10.3886
       160        2.0000           -0.3726237             -10.1396
       161        2.0000           -0.3691704             -10.0456
       162        2.0000           -0.3522126              -9.5842
       163        2.0000           -0.3373085              -9.1786
       164        2.0000           -0.3345328              -9.1031 (HOMO)
       165                         -0.2506193              -6.8197 (LUMO)
       166                         -0.2274202              -6.1884
       167                         -0.2261907              -6.1550
       168                         -0.2198017              -5.9811
       169                         -0.2181868              -5.9372
       170                         -0.2146067              -5.8397
       171                         -0.2131453              -5.8000
       172                         -0.2129333              -5.7942
       173                         -0.2112256              -5.7477
       174                         -0.2097459              -5.7075
       175                         -0.2027143              -5.5161
       ...                                ...                  ...
       326                          0.7271771              19.7875
      -------------------------------------------------------------
                  HL-Gap            0.0839135 Eh            2.2834 eV

     #   Z          covCN         q      C6AA      α(0)
     1   6 C        3.762    -0.104    22.531     6.766
     2   6 C        3.903     0.026    20.085     6.370
     3   6 C        3.761    -0.107    22.592     6.776
     4   6 C        3.762    -0.105    22.549     6.769
     5   6 C        2.973     0.001    28.008     8.681
     6   6 C        2.927    -0.035    28.863     8.810
     7   6 C        2.922    -0.047    29.174     8.857
     8   6 C        2.927     0.062    26.608     8.459
     9   7 N        2.754    -0.077    22.732     7.081
    10   6 C        2.921     0.062    26.611     8.460
    11   6 C        2.921    -0.052    29.286     8.875
    12   6 C        2.927    -0.036    28.907     8.817
    13   6 C        2.972    -0.003    28.103     8.696
    14   6 C        3.903     0.025    20.090     6.371
    15   6 C        3.762    -0.102    22.497     6.761
    16   6 C        3.762    -0.105    22.549     6.769
    17   6 C        3.761    -0.107    22.585     6.775
    18   6 C        2.925    -0.041    29.017     8.834
    19   6 C        2.922    -0.053    29.321     8.880
    20   6 C        2.926     0.065    26.543     8.449
    21   6 C        2.921    -0.089    30.233     9.017
    22   6 C        2.929     0.060    26.651     8.466
    23   6 C        2.899    -0.114    30.885     9.112
    24   6 C        2.924     0.059    26.679     8.471
    25   6 C        2.922    -0.085    30.116     8.999
    26   7 N        2.759    -0.048    22.176     6.994
    27   6 C        2.942     0.056    26.748     8.482
    28   6 C        2.922    -0.048    29.193     8.860
    29   6 C        2.920    -0.033    28.830     8.805
    30   6 C        2.919    -0.041    29.018     8.834
    31   6 C        2.923    -0.040    28.993     8.830
    32   6 C        2.987    -0.009    28.243     8.718
    33   6 C        3.912     0.021    20.157     6.381
    34   6 C        3.764    -0.099    22.427     6.750
    35   6 C        3.758    -0.104    22.544     6.769
    36   6 C        2.983    -0.015    28.369     8.737
    37   6 C        2.923    -0.040    28.994     8.830
    38   6 C        2.913    -0.044    29.094     8.845
    39   6 C        2.923    -0.038    28.935     8.821
    40   6 C        2.887    -0.083    30.088     8.993
    41   6 C        2.945     0.049    26.891     8.505
    42   5 B        2.725     0.191    18.504     7.207
    43   6 C        2.887    -0.086    30.163     9.004
    44   6 C        2.929    -0.044    29.102     8.847
    45   6 C        2.968    -0.006    28.156     8.704
    46   6 C        3.903     0.025    20.098     6.372
    47   6 C        3.762    -0.104    22.530     6.766
    48   6 C        3.761    -0.106    22.576     6.773
    49   6 C        3.762    -0.104    22.533     6.767
    50   6 C        2.928    -0.034    28.851     8.809
    51   6 C        2.917    -0.059    29.455     8.900
    52   6 C        2.925     0.056    26.755     8.483
    53   7 N        2.755    -0.053    22.259     7.007
    54   6 C        2.934     0.065    26.547     8.450
    55   6 C        2.921    -0.040    28.987     8.829
    56   6 C        2.925    -0.038    28.937     8.822
    57   6 C        2.974     0.009    27.813     8.651
    58   6 C        3.903     0.026    20.082     6.370
    59   6 C        3.761    -0.110    22.649     6.784
    60   6 C        3.762    -0.104    22.527     6.766
    61   6 C        3.761    -0.106    22.580     6.774
    62   6 C        2.928    -0.035    28.866     8.811
    63   6 C        2.920    -0.040    28.996     8.830
    64   6 C        2.921    -0.050    29.236     8.867
    65   6 C        2.925    -0.040    28.999     8.831
    66   1 H        0.925     0.036     2.509     2.477
    67   1 H        0.925     0.036     2.509     2.477
    68   1 H        0.925     0.034     2.529     2.487
    69   1 H        0.925     0.036     2.508     2.476
    70   1 H        0.925     0.035     2.514     2.480
    71   1 H        0.925     0.035     2.516     2.480
    72   1 H        0.925     0.036     2.508     2.477
    73   1 H        0.925     0.036     2.499     2.472
    74   1 H        0.925     0.033     2.546     2.495
    75   1 H        0.926     0.029     2.596     2.519
    76   1 H        0.926     0.028     2.615     2.529
    77   1 H        0.926     0.028     2.609     2.526
    78   1 H        0.926     0.027     2.634     2.538
    79   1 H        0.925     0.033     2.549     2.497
    80   1 H        0.925     0.033     2.544     2.494
    81   1 H        0.925     0.035     2.519     2.482
    82   1 H        0.925     0.036     2.505     2.475
    83   1 H        0.925     0.033     2.545     2.495
    84   1 H        0.925     0.035     2.512     2.478
    85   1 H        0.925     0.035     2.512     2.479
    86   1 H        0.925     0.035     2.522     2.483
    87   1 H        0.925     0.035     2.520     2.482
    88   1 H        0.926     0.034     2.528     2.487
    89   1 H        0.926     0.027     2.625     2.534
    90   1 H        0.926     0.023     2.695     2.567
    91   1 H        0.926     0.026     2.651     2.546
    92   1 H        0.926     0.034     2.525     2.485
    93   1 H        0.926     0.029     2.606     2.524
    94   1 H        0.926     0.028     2.621     2.532
    95   1 H        0.926     0.035     2.517     2.481
    96   1 H        0.925     0.036     2.503     2.474
    97   1 H        0.925     0.035     2.519     2.482
    98   1 H        0.925     0.036     2.497     2.471
    99   1 H        0.925     0.039     2.468     2.457
   100   1 H        0.925     0.036     2.499     2.472
   101   1 H        0.925     0.037     2.490     2.468
   102   1 H        0.926     0.029     2.601     2.522
   103   1 H        0.926     0.020     2.737     2.587
   104   1 H        0.926     0.030     2.584     2.514
   105   1 H        0.926     0.039     2.460     2.453
   106   1 H        0.925     0.032     2.557     2.501
   107   1 H        0.925     0.034     2.536     2.490
   108   1 H        0.925     0.034     2.531     2.488
   109   1 H        0.925     0.033     2.544     2.494
   110   1 H        0.925     0.035     2.520     2.483
   111   1 H        0.925     0.035     2.510     2.478
   112   1 H        0.925     0.032     2.558     2.501
   113   1 H        0.925     0.033     2.538     2.491
   114   1 H        0.925     0.034     2.530     2.487
   115   1 H        0.926     0.022     2.701     2.570
   116   1 H        0.926     0.018     2.764     2.600
   117   1 H        0.926     0.038     2.482     2.463
   118   1 H        0.926     0.043     2.412     2.429
   119   1 H        0.925     0.041     2.441     2.443
   120   1 H        0.925     0.037     2.487     2.466
   121   1 H        0.925     0.036     2.502     2.474
   122   1 H        0.925     0.038     2.471     2.458
   123   1 H        0.925     0.034     2.536     2.490
   124   1 H        0.925     0.037     2.496     2.470
   125   1 H        0.925     0.035     2.522     2.483
   126   1 H        0.925     0.037     2.492     2.468
   127   1 H        0.925     0.039     2.468     2.457
   128   1 H        0.926     0.036     2.506     2.476
   129   1 H        0.926     0.038     2.470     2.458
   130   1 H        0.926     0.029     2.596     2.520
   131   1 H        0.926     0.036     2.502     2.474

molecular dipole:
                 x           y           z       tot (Debye)
 q only:       -0.727      -0.499      -0.230
   full:       -0.857      -0.521      -0.248       2.626

 projected vibrational frequencies (cm⁻¹)
eigval :       -0.00    -0.00    -0.00    -0.00     0.00     0.00
eigval :        8.69    10.78    17.95    19.42    20.08    23.29
eigval :       27.41    28.66    33.28    37.25    42.88    43.73
eigval :       53.07    58.84    61.01    69.37    71.73    75.77
eigval :       86.34    88.78    93.29   100.88   104.84   118.96
eigval :      122.42   133.82   151.91   162.46   163.68   166.61
eigval :      167.85   172.25   176.94   178.74   182.17   190.41
eigval :      196.03   203.58   208.61   217.49   220.92   223.36
eigval :      224.78   226.98   232.37   238.03   245.11   246.16
eigval :      250.53   266.03   271.72   282.45   283.77   297.79
eigval :      301.62   306.94   312.16   313.69   314.49   315.34
eigval :      315.85   317.58   324.51   325.82   341.74   344.10
eigval :      344.78   358.10   359.16   361.47   366.70   370.75
eigval :      379.32   382.52   385.84   387.64   392.69   395.81
eigval :      401.12   403.85   410.53   414.65   423.82   429.35
eigval :      439.00   440.90   446.07   448.11   456.87   458.96
eigval :      462.74   463.73   475.59   482.23   488.93   501.50
eigval :      509.34   521.44   526.52   530.53   535.68   544.39
eigval :      547.62   558.20   568.02   577.54   580.07   584.63
eigval :      593.22   598.50   608.34   610.68   615.67   617.95
eigval :      625.05   635.02   642.59   662.26   684.43   685.21
eigval :      688.49   696.53   700.39   709.49   713.11   718.68
eigval :      722.71   726.60   737.75   773.82   777.94   788.45
eigval :      795.16   811.55   814.99   818.45   821.78   824.33
eigval :      830.14   861.44   866.25   869.21   870.78   871.30
eigval :      875.13   876.85   881.93   884.15   887.13   896.01
eigval :      898.87   908.38   912.53   913.21   914.95   916.00
eigval :      918.18   921.89   922.33   926.85   928.10   929.31
eigval :      931.81   932.88   936.90   948.97   959.54   959.89
eigval :      960.22   960.23   961.84   962.29   962.42   962.77
eigval :      962.93   963.22   963.34   965.97   966.83   994.12
eigval :     1002.42  1009.28  1017.59  1027.06  1034.54  1034.75
eigval :     1035.08  1035.41  1035.69  1036.14  1036.22  1036.77
eigval :     1062.07  1072.04  1099.80  1113.51  1120.69  1134.44
eigval :     1140.89  1143.30  1144.01  1144.72  1146.37  1150.38
eigval :     1152.66  1156.47  1161.61  1175.10  1179.44  1187.15
eigval :     1193.97  1201.07  1207.92  1212.29  1213.12  1220.15
eigval :     1227.60  1227.64  1227.73  1228.66  1232.05  1233.54
eigval :     1233.98  1234.84  1235.59  1246.65  1259.87  1263.89
eigval :     1265.97  1273.42  1275.10  1277.08  1279.89  1283.65
eigval :     1286.36  1287.64  1292.91  1294.70  1296.02  1307.00
eigval :     1311.16  1312.30  1319.90  1320.18  1328.48  1330.56
eigval :     1333.72  1340.51  1351.52  1358.09  1381.95  1396.65
eigval :     1397.94  1400.04  1401.64  1403.58  1403.83  1404.92
eigval :     1405.57  1405.72  1406.07  1409.86  1410.91  1414.37
eigval :     1417.44  1418.01  1428.81  1429.10  1429.28  1429.76
eigval :     1433.98  1444.36  1451.61  1455.86  1470.19  1479.37
eigval :     1488.59  1489.22  1490.92  1491.65  1492.09  1492.26
eigval :     1493.05  1493.74  1494.61  1494.71  1495.36  1495.47
eigval :     1496.03  1502.28  1502.79  1503.40  1503.65  1505.97
eigval :     1506.13  1506.68  1507.46  1507.53  1514.30  1514.57
eigval :     1514.84  1515.38  1520.18  1520.26  1520.35  1521.29
eigval :     1527.97  1534.00  1543.02  1556.53  1564.42  1567.34
eigval :     1571.01  1571.65  1581.87  1587.57  1597.61  1601.19
eigval :     1604.12  1604.86  1608.66  3018.50  3019.63  3020.10
eigval :     3020.89  3020.97  3022.04  3022.48  3023.84  3024.02
eigval :     3025.76  3025.87  3026.81  3027.02  3027.10  3027.17
eigval :     3028.66  3029.04  3029.75  3029.82  3030.54  3031.18
eigval :     3031.55  3032.68  3032.82  3035.35  3035.51  3035.93
eigval :     3037.92  3038.00  3038.55  3038.76  3042.48  3044.44
eigval :     3045.24  3045.80  3046.21  3046.23  3047.79  3048.24
eigval :     3051.35  3051.58  3051.76  3069.73  3072.62  3075.25
eigval :     3076.12  3078.84  3080.25  3080.87  3081.40  3084.99
eigval :     3086.68  3088.82  3090.02  3091.12  3092.44  3093.96
eigval :     3098.97  3103.49  3105.28  3107.96  3109.83  3110.69
eigval :     3112.25  3118.27  3128.86

   temp. (K)  partition function   enthalpy   heat capacity  entropy
                                   cal/mol     cal/K/mol   cal/K/mol   J/K/mol
 298.15  VIB  0.155E+29            37279.295    230.970    229.957
         ROT  0.189E+09              888.752      2.981     40.854
         INT  0.294E+37            38168.048    233.951    270.811
         TR   0.241E+29             1481.254      4.968     46.083
         TOT                       39649.3016   238.9191   316.8938  1325.8835

       T/K    H(0)-H(T)+PV         H(T)/Eh          T*S/Eh         G(T)/Eh
   ------------------------------------------------------------------------
    298.15    0.631852E-01    0.116002E+01    0.150566E+00    0.100946E+01
   ------------------------------------------------------------------------

         :::::::::::::::::::::::::::::::::::::::::::::::::::::
         ::                  THERMODYNAMIC                  ::
         :::::::::::::::::::::::::::::::::::::::::::::::::::::
         :: total free energy        -173.448010728783 Eh   ::
         ::.................................................::
         :: total energy             -174.457466302858 Eh   ::
         :: zero point energy           1.096836841639 Eh   ::
         :: G(RRHO) w/o ZPVE           -0.087381267564 Eh   ::
         :: G(RRHO) contrib.            1.009455574075 Eh   ::
         :::::::::::::::::::::::::::::::::::::::::::::::::::::

           -------------------------------------------------
          | TOTAL ENERGY             -174.457466302858 Eh   |
          | TOTAL ENTHALPY           -173.297444277147 Eh   |
          | TOTAL FREE ENERGY        -173.448010728783 Eh   |
          | GRADIENT NORM               0.000062801485 Eh/α |
          | HOMO-LUMO GAP               2.283403203839 eV   |
           -------------------------------------------------

 * finished run on 2025/09/11 at 15:47:15.479
