   * xtb version 6.7.1 (edcfbbe) compiled by 'albert@albert-system' on 2024-07-22

   ID    Z sym.   atoms
    1    6 C      1-8, 10-25, 27-41, 43-52, 54-65
    2    7 N      9, 26, 53
    3    5 B      42
    4    1 H      66-131

          program call               : xtb data2507/gas/tDMAC-BN/tDMAC-BN_gas_S0_crest.xyz --gfn 2 --ohess vtight --parallel 40 --molden --ceasefiles --namespace data2507/gas/tDMAC-BN/tDMAC-BN_gas_S0_finalOpt
          :  Hamiltonian                  GFN2-xTB          :
 * total energy  :  -174.4578983 Eh     change       -0.5005887E-08 Eh
 * total energy  :  -174.4578995 Eh     change       -0.1220142E-05 Eh
 * total energy  :  -174.4579012 Eh     change       -0.1663099E-05 Eh
 * total energy  :  -174.4579032 Eh     change       -0.2015044E-05 Eh
 * total energy  :  -174.4579043 Eh     change       -0.1135487E-05 Eh
 * total energy  :  -174.4579057 Eh     change       -0.1349981E-05 Eh
 * total energy  :  -174.4579072 Eh     change       -0.1558663E-05 Eh
 * total energy  :  -174.4579084 Eh     change       -0.1201256E-05 Eh
 * total energy  :  -174.4579094 Eh     change       -0.9533617E-06 Eh
 * total energy  :  -174.4579104 Eh     change       -0.1027422E-05 Eh
 * total energy  :  -174.4579276 Eh     change       -0.2820188E-06 Eh
 * total energy  :  -174.4579279 Eh     change       -0.3023582E-06 Eh
 * total energy  :  -174.4579282 Eh     change       -0.3002424E-06 Eh
 * total energy  :  -174.4579284 Eh     change       -0.2447861E-06 Eh
 * total energy  :  -174.4579286 Eh     change       -0.1600430E-06 Eh
 * total energy  :  -174.4579287 Eh     change       -0.1137599E-06 Eh
 * total energy  :  -174.4579288 Eh     change       -0.1073835E-06 Eh
 * total energy  :  -174.4579289 Eh     change       -0.1069755E-06 Eh
 * total energy  :  -174.4579290 Eh     change       -0.9982060E-07 Eh
   *** GEOMETRY OPTIMIZATION CONVERGED AFTER 42 ITERATIONS ***

 final structure:
================
131
 xtb: 6.7.1 (edcfbbe)
C           -1.11961116890212        7.30557862435453        2.09074803226770
C           -2.53684937242602        6.71734510972811        2.03479739354195
C           -3.40386419972552        7.64472879048728        1.17907888283999
C           -3.13562284721056        6.66976317252900        3.44776202505763
C           -2.46497094633355        5.30452671030893        1.47823910957650
C           -1.68040889256664        4.35109732595589        2.12396794203934
C           -1.57196731053910        3.06130191632419        1.65107461855247
C           -2.24570287856334        2.67312947194940        0.49503066708853
N           -2.09836716233926        1.37185783903949       -0.00513410861601
C           -3.20316440085053        0.67935404771933       -0.50028881685644
C           -3.08127209339857       -0.22752205753844       -1.55054642866553
C           -4.18650954080833       -0.89604947154953       -2.04057603525624
C           -5.45811601758912       -0.68224965027873       -1.52165196917631
C           -6.70769025995783       -1.35214587395784       -2.07182105885338
C           -7.41883925221913       -2.12427782942070       -0.95213549421822
C           -6.40013180313948       -2.33251160229659       -3.20706869638641
C           -7.64347667473145       -0.26530720451283       -2.62131723962284
C           -5.56784968711584        0.22125743967582       -0.46662702332349
C           -4.47151949965812        0.88433943398481        0.04229643642229
C           -0.82158236367959        0.80266544278740       -0.02319110616855
C           -0.66312754872472       -0.55652548699200        0.21950685720361
C            0.60175045149769       -1.13530698452774        0.14696184630888
C            1.73718328121709       -0.33905673668132       -0.10387213887190
C            1.55747264694064        1.04659483494968       -0.27837220287812
C            0.28660435925270        1.60586654497544       -0.28101040442650
N            2.66759818678444        1.84481689694612       -0.50568045738259
C            2.69683503312317        3.17865416806423       -0.07739208439361
C            2.02757578553635        3.56491405146750        1.08103612359499
C            2.10101161983923        4.86847789892829        1.52603453849980
C            2.86765505572791        5.79130948359100        0.83687278768549
C            3.56916051029896        5.39975947088856       -0.29016179025167
C            3.49402665223738        4.09921373859680       -0.76410965020985
C            4.19797880196460        3.59923254399387       -2.00643418783633
C            3.15153121254212        3.47086244709498       -3.13413062370250
C            5.29724664594801        4.54854379677433       -2.48208510631333
C            4.71347480629500        2.20502748073533       -1.69395076580292
C            5.93094539159136        1.73031085995470       -2.14230127263904
C            6.27584741504572        0.39565682807359       -1.97759824720279
C            5.39993602335305       -0.47169451498315       -1.36584534525701
C            4.18009281241415       -0.03640559421929       -0.83897275640381
C            3.85801128655387        1.32516367957138       -1.01031587393722
B            3.11897994907776       -0.95389815709340       -0.18489962047004
C            3.19770825474009       -2.41652475985862        0.29053309628339
C            4.39000562605939       -3.10555977103680        0.54923195890103
C            4.44223674989856       -4.44216510008268        0.89015793137069
C            5.73824908903719       -5.18622831893428        1.17093331083515
C            5.88521145296905       -6.33654299988311        0.16480148899965
C            6.97222756878021       -4.28774346626821        1.05061551469561
C            5.69360045563463       -5.74830705599743        2.59881115609307
C            3.22549348469778       -5.12678291912004        0.96135784808677
C            2.02746705106170       -4.48548505889699        0.76130204736406
C            1.98451443690606       -3.11765517278519        0.46340557916501
N            0.75748759219496       -2.49216390238397        0.33437339241149
C           -0.43787914499131       -3.26017775264881        0.43047489830444
C           -1.16084865140010       -3.55412813277050       -0.71503675987320
C           -2.36525604657939       -4.22907360078164       -0.62716728852870
C           -2.87670020226280       -4.63332134100490        0.59995130133000
C           -4.21280992127200       -5.34294731940405        0.74657458415471
C           -4.91496956735293       -5.55678741986817       -0.59655685646004
C           -5.12541728990813       -4.48567798950922        1.63602135018108
C           -3.99002084939126       -6.71625117974643        1.39492089943463
C           -2.12559691539925       -4.34986283478292        1.73892893700091
C           -0.92672238103876       -3.66963684396022        1.66391530446019
C           -3.04624152097451        3.61026065050723       -0.14879694189131
C           -3.15175795106949        4.89918791911920        0.33988745548353
H           -0.48632866847568        6.74712062296856        2.77382220912973
H           -1.15510911022121        8.33884415052939        2.42997284359395
H           -0.66089482609945        7.27918977308487        1.10441390652089
H           -3.00961502238023        7.72461429737573        0.16865276306924
H           -3.41160559986202        8.64085600670387        1.61729457591611
H           -4.43130848263256        7.29092774502421        1.13477489048676
H           -2.52999265044521        6.06091455549758        4.11345381614200
H           -3.19683752141617        7.67324346000944        3.86391016893710
H           -4.13766499379331        6.24665814317612        3.41724411164831
H           -1.14391531699460        4.61133685873836        3.02380979745092
H           -0.96488980764628        2.33812073086229        2.17604739137538
H           -2.11202372324839       -0.40089650223444       -1.99405424429654
H           -4.03480984019001       -1.58257267283055       -2.85769921243501
H           -6.76361114762610       -2.89158367865211       -0.54686067103324
H           -7.71350694640584       -1.46543718860135       -0.14019571872049
H           -8.31401905678928       -2.60639158469861       -1.33986753404286
H           -5.73424412336646       -3.12493971939948       -2.87298679168461
H           -5.94631222216595       -1.82162695056514       -4.05299173462633
H           -7.32449214265560       -2.79352803819849       -3.54965747742408
H           -7.14282609756389        0.30101754607702       -3.40400228222720
H           -7.94393320547185        0.42722437443447       -1.83984441445880
H           -8.53986588335527       -0.71737028273937       -3.04106490344688
H           -6.53166417062978        0.41814393190216       -0.02115353595721
H           -4.59261079520785        1.57301687246226        0.86587793575298
H           -1.53343772550818       -1.14590931347364        0.46080650257915
H            0.14802413323050        2.65625194626328       -0.48802293198627
H            1.46003986860058        2.83449922235384        1.63579976348873
H            1.57203345155434        5.15871981933312        2.42080032685196
H            2.92872270563446        6.81307416199824        1.18047812190437
H            4.17601092070005        6.12957864876380       -0.80123092752751
H            3.61900633320250        3.06801586294509       -4.03042857478814
H            2.73155473832281        4.44806351094859       -3.36494155224311
H            2.34082072327878        2.80782302040935       -2.84293044292455
H            5.75410586133890        4.17001629322095       -3.39291246856882
H            6.06573459854296        4.66793101378834       -1.72141857757480
H            4.87580549771282        5.52295612689565       -2.71667098343242
H            6.61876525722375        2.38229098996368       -2.65597673604730
H            7.22261354911065        0.03954733397619       -2.35772492385791
H            5.64991054503877       -1.51926801095097       -1.30448993414591
H            5.29933264316733       -2.53239546547323        0.48998614466856
H            5.89311665484679       -5.94749190004554       -0.85144666750144
H            6.81738712851436       -6.87090023402560        0.33764283044380
H            5.06632637383806       -7.04556246319084        0.25090890218490
H            7.86655851967151       -4.86823231974245        1.26971658169839
H            7.06948483881037       -3.88939287858039        0.04338082038033
H            6.92568784435577       -3.46185001843931        1.75659842526296
H            5.57463343932297       -4.93907134574584        3.31654745470393
H            6.61737160420108       -6.27748047560763        2.82463931433474
H            4.86543438979292       -6.44027708687201        2.72589004064523
H            3.20690237065930       -6.18170624661093        1.19230252377170
H            1.10988233974807       -5.04938052311460        0.84310086324682
H           -0.78242497106869       -3.23662344012323       -1.67555486856703
H           -2.90128861323698       -4.42897986237420       -1.53992328328042
H           -5.11002028575698       -4.60649323130681       -1.08781876092548
H           -5.86938026264773       -6.05337370461390       -0.43330134335032
H           -4.31909394918179       -6.18398469075797       -1.25575153949899
H           -6.11700140074954       -4.92944654625450        1.69589194355322
H           -5.21691147805502       -3.48230159246977        1.22406512039686
H           -4.73055474078751       -4.40171535288077        2.64461611950573
H           -3.33174610091463       -7.32213244959465        0.77560607607171
H           -3.54042455122051       -6.62269896177809        2.37950390161284
H           -4.93903984124087       -7.23713412833359        1.50224490838819
H           -2.48337357683016       -4.65121742738604        2.71163767296228
H           -0.36623632480466       -3.44416067337745        2.55945387850214
H           -3.58216927823815        3.32613781959247       -1.04301800940438
H           -3.77834791303117        5.59122603301784       -0.19877868289313

          :  Hamiltonian                  GFN2-xTB          :
         :: gradient norm              0.000034013051 Eh/a0 ::
         :: HOMO-LUMO gap              2.282144937958 eV    ::
         :: SCC energy              -177.500089514773 Eh    ::
         :: -> dispersion             -0.182862439087 Eh    ::
         :: repulsion energy           3.042160524601 Eh    ::

    * Orbital Energies and Occupations

         #    Occupation            Energy/Eh            Energy/eV
      -------------------------------------------------------------
         1        2.0000           -0.6596831             -17.9509
       ...           ...                  ...                  ...
       152        2.0000           -0.3962563             -10.7827
       153        2.0000           -0.3942866             -10.7291
       154        2.0000           -0.3916399             -10.6571
       155        2.0000           -0.3900736             -10.6144
       156        2.0000           -0.3885501             -10.5730
       157        2.0000           -0.3860035             -10.5037
       158        2.0000           -0.3843927             -10.4599
       159        2.0000           -0.3819457             -10.3933
       160        2.0000           -0.3727417             -10.1428
       161        2.0000           -0.3690964             -10.0436
       162        2.0000           -0.3522463              -9.5851
       163        2.0000           -0.3374744              -9.1831
       164        2.0000           -0.3346389              -9.1060 (HOMO)
       165                         -0.2507718              -6.8238 (LUMO)
       166                         -0.2275175              -6.1911
       167                         -0.2258588              -6.1459
       168                         -0.2200299              -5.9873
       169                         -0.2182082              -5.9377
       170                         -0.2150276              -5.8512
       171                         -0.2133365              -5.8052
       172                         -0.2130704              -5.7979
       173                         -0.2112657              -5.7488
       174                         -0.2098786              -5.7111
       175                         -0.2028015              -5.5185
       ...                                ...                  ...
       326                          0.7271524              19.7868
      -------------------------------------------------------------
                  HL-Gap            0.0838671 Eh            2.2821 eV

     #   Z          covCN         q      C6AA      α(0)
     1   6 C        3.762    -0.104    22.532     6.766
     2   6 C        3.903     0.026    20.085     6.370
     3   6 C        3.761    -0.107    22.592     6.776
     4   6 C        3.762    -0.105    22.549     6.769
     5   6 C        2.973     0.001    28.005     8.681
     6   6 C        2.927    -0.035    28.862     8.810
     7   6 C        2.922    -0.047    29.171     8.857
     8   6 C        2.927     0.062    26.608     8.459
     9   7 N        2.754    -0.077    22.729     7.081
    10   6 C        2.921     0.062    26.614     8.460
    11   6 C        2.922    -0.052    29.299     8.876
    12   6 C        2.925    -0.041    29.007     8.832
    13   6 C        2.972    -0.003    28.104     8.696
    14   6 C        3.902     0.026    20.087     6.371
    15   6 C        3.761    -0.105    22.558     6.771
    16   6 C        3.761    -0.105    22.545     6.769
    17   6 C        3.762    -0.105    22.548     6.769
    18   6 C        2.927    -0.037    28.916     8.819
    19   6 C        2.922    -0.053    29.308     8.878
    20   6 C        2.926     0.065    26.545     8.449
    21   6 C        2.922    -0.089    30.233     9.017
    22   6 C        2.931     0.060    26.655     8.467
    23   6 C        2.899    -0.114    30.883     9.112
    24   6 C        2.924     0.059    26.680     8.471
    25   6 C        2.922    -0.085    30.118     9.000
    26   7 N        2.759    -0.048    22.174     6.994
    27   6 C        2.942     0.056    26.748     8.482
    28   6 C        2.922    -0.048    29.191     8.860
    29   6 C        2.920    -0.033    28.827     8.805
    30   6 C        2.919    -0.041    29.017     8.834
    31   6 C        2.923    -0.040    28.992     8.830
    32   6 C        2.987    -0.009    28.242     8.717
    33   6 C        3.912     0.021    20.157     6.381
    34   6 C        3.764    -0.099    22.427     6.750
    35   6 C        3.758    -0.104    22.545     6.769
    36   6 C        2.983    -0.015    28.369     8.737
    37   6 C        2.923    -0.040    28.994     8.830
    38   6 C        2.913    -0.044    29.092     8.845
    39   6 C        2.923    -0.038    28.934     8.821
    40   6 C        2.887    -0.083    30.086     8.993
    41   6 C        2.945     0.049    26.891     8.505
    42   5 B        2.725     0.191    18.503     7.207
    43   6 C        2.888    -0.086    30.163     9.004
    44   6 C        2.929    -0.044    29.101     8.847
    45   6 C        2.968    -0.006    28.157     8.704
    46   6 C        3.903     0.025    20.098     6.372
    47   6 C        3.762    -0.104    22.529     6.766
    48   6 C        3.761    -0.106    22.576     6.773
    49   6 C        3.762    -0.104    22.533     6.767
    50   6 C        2.928    -0.034    28.852     8.809
    51   6 C        2.917    -0.059    29.457     8.900
    52   6 C        2.924     0.056    26.755     8.482
    53   7 N        2.755    -0.052    22.249     7.005
    54   6 C        2.935     0.064    26.556     8.452
    55   6 C        2.922    -0.040    28.985     8.829
    56   6 C        2.925    -0.038    28.933     8.821
    57   6 C        2.974     0.008    27.830     8.653
    58   6 C        3.903     0.026    20.085     6.370
    59   6 C        3.761    -0.106    22.572     6.773
    60   6 C        3.762    -0.105    22.548     6.769
    61   6 C        3.761    -0.106    22.574     6.773
    62   6 C        2.928    -0.035    28.870     8.812
    63   6 C        2.920    -0.041    29.006     8.832
    64   6 C        2.921    -0.050    29.233     8.866
    65   6 C        2.925    -0.040    29.000     8.831
    66   1 H        0.925     0.036     2.507     2.476
    67   1 H        0.925     0.036     2.508     2.476
    68   1 H        0.925     0.034     2.530     2.488
    69   1 H        0.925     0.036     2.508     2.476
    70   1 H        0.925     0.035     2.514     2.479
    71   1 H        0.925     0.035     2.515     2.480
    72   1 H        0.925     0.036     2.508     2.476
    73   1 H        0.925     0.036     2.499     2.472
    74   1 H        0.925     0.033     2.546     2.495
    75   1 H        0.926     0.029     2.594     2.519
    76   1 H        0.926     0.028     2.613     2.528
    77   1 H        0.926     0.028     2.610     2.526
    78   1 H        0.926     0.033     2.541     2.493
    79   1 H        0.925     0.035     2.514     2.479
    80   1 H        0.925     0.035     2.522     2.483
    81   1 H        0.925     0.035     2.522     2.483
    82   1 H        0.925     0.032     2.559     2.501
    83   1 H        0.925     0.035     2.517     2.481
    84   1 H        0.925     0.035     2.522     2.484
    85   1 H        0.925     0.033     2.550     2.497
    86   1 H        0.925     0.036     2.505     2.475
    87   1 H        0.925     0.035     2.510     2.478
    88   1 H        0.926     0.027     2.625     2.534
    89   1 H        0.926     0.027     2.627     2.534
    90   1 H        0.926     0.023     2.690     2.565
    91   1 H        0.926     0.025     2.651     2.546
    92   1 H        0.926     0.034     2.525     2.485
    93   1 H        0.926     0.028     2.609     2.526
    94   1 H        0.926     0.028     2.620     2.531
    95   1 H        0.926     0.035     2.516     2.480
    96   1 H        0.925     0.036     2.503     2.474
    97   1 H        0.925     0.035     2.519     2.482
    98   1 H        0.925     0.036     2.496     2.471
    99   1 H        0.925     0.039     2.467     2.456
   100   1 H        0.925     0.036     2.499     2.472
   101   1 H        0.925     0.037     2.490     2.467
   102   1 H        0.926     0.029     2.600     2.522
   103   1 H        0.926     0.020     2.736     2.587
   104   1 H        0.926     0.030     2.583     2.513
   105   1 H        0.926     0.039     2.462     2.454
   106   1 H        0.925     0.032     2.558     2.501
   107   1 H        0.925     0.034     2.536     2.490
   108   1 H        0.925     0.034     2.530     2.488
   109   1 H        0.925     0.033     2.544     2.494
   110   1 H        0.925     0.035     2.521     2.483
   111   1 H        0.925     0.035     2.511     2.478
   112   1 H        0.925     0.032     2.559     2.501
   113   1 H        0.925     0.033     2.538     2.491
   114   1 H        0.925     0.034     2.530     2.487
   115   1 H        0.926     0.022     2.701     2.570
   116   1 H        0.926     0.019     2.753     2.595
   117   1 H        0.926     0.037     2.483     2.464
   118   1 H        0.926     0.042     2.422     2.434
   119   1 H        0.925     0.037     2.496     2.470
   120   1 H        0.925     0.037     2.488     2.467
   121   1 H        0.925     0.035     2.511     2.478
   122   1 H        0.925     0.038     2.472     2.458
   123   1 H        0.925     0.035     2.514     2.480
   124   1 H        0.925     0.037     2.492     2.469
   125   1 H        0.925     0.035     2.523     2.484
   126   1 H        0.925     0.037     2.491     2.468
   127   1 H        0.925     0.039     2.465     2.455
   128   1 H        0.926     0.036     2.509     2.477
   129   1 H        0.926     0.039     2.466     2.456
   130   1 H        0.926     0.029     2.594     2.519
   131   1 H        0.926     0.036     2.500     2.473

molecular dipole:
                 x           y           z       tot (Debye)
 q only:       -0.864      -0.209       0.051
   full:       -1.004      -0.178       0.060       2.596

 projected vibrational frequencies (cm⁻¹)
eigval :       -0.00    -0.00    -0.00    -0.00    -0.00     0.00
eigval :        8.69    12.09    17.76    19.73    21.70    23.25
eigval :       28.15    33.27    37.64    39.93    43.04    48.49
eigval :       52.97    59.75    60.53    71.21    73.02    77.32
eigval :       87.31    89.17    95.25    99.36   106.70   118.98
eigval :      122.55   133.29   151.48   162.36   163.09   166.34
eigval :      168.66   171.47   180.20   182.09   182.89   190.66
eigval :      196.06   203.54   208.52   217.52   220.73   222.47
eigval :      223.94   231.73   233.23   237.67   245.19   249.66
eigval :      253.68   266.71   271.44   282.90   284.35   288.28
eigval :      304.80   308.15   310.05   312.47   315.01   315.76
eigval :      317.24   320.18   323.51   329.31   339.42   342.86
eigval :      346.74   357.70   358.66   362.25   367.03   370.53
eigval :      380.92   383.36   385.38   388.17   391.60   395.06
eigval :      400.31   404.78   411.53   415.29   424.35   429.87
eigval :      438.85   440.08   445.60   448.65   457.41   459.26
eigval :      462.41   463.59   475.82   481.91   489.00   501.47
eigval :      509.36   521.67   526.82   530.82   535.93   544.42
eigval :      548.14   558.04   568.60   577.75   580.03   584.75
eigval :      593.73   598.48   608.12   610.77   615.09   617.75
eigval :      625.19   635.20   642.50   662.61   684.29   685.15
eigval :      688.70   696.43   700.32   709.00   713.08   718.70
eigval :      722.70   726.58   737.76   773.62   777.98   788.44
eigval :      795.21   811.40   815.29   818.23   822.98   824.36
eigval :      832.83   861.85   866.06   868.95   871.08   871.97
eigval :      875.02   876.47   882.03   884.44   886.73   895.77
eigval :      899.07   908.30   912.05   914.11   915.60   916.00
eigval :      918.46   921.88   922.39   926.93   929.21   929.37
eigval :      932.22   933.19   936.90   949.06   958.50   959.53
eigval :      960.24   960.51   960.96   961.81   962.25   962.42
eigval :      962.72   963.11   963.16   963.61   965.93   994.05
eigval :     1002.34  1009.29  1017.72  1026.77  1033.66  1034.63
eigval :     1034.81  1035.11  1035.39  1035.72  1036.04  1036.15
eigval :     1061.84  1072.17  1099.91  1113.44  1120.60  1134.32
eigval :     1141.01  1143.26  1144.60  1144.68  1146.31  1150.20
eigval :     1152.65  1156.53  1161.46  1175.24  1179.46  1187.32
eigval :     1194.24  1201.36  1207.68  1212.58  1213.07  1220.77
eigval :     1225.98  1227.57  1227.61  1227.92  1232.20  1233.75
eigval :     1234.09  1234.31  1235.19  1246.72  1259.69  1263.66
eigval :     1265.90  1273.32  1275.40  1277.21  1279.74  1283.07
eigval :     1286.52  1287.56  1293.01  1295.12  1295.73  1306.73
eigval :     1310.87  1312.41  1320.47  1321.52  1325.76  1330.64
eigval :     1333.70  1341.18  1351.65  1357.74  1381.27  1396.57
eigval :     1397.62  1399.89  1401.55  1403.55  1403.77  1404.59
eigval :     1405.59  1405.71  1407.16  1409.12  1410.73  1414.52
eigval :     1417.37  1417.88  1427.75  1429.07  1429.15  1430.76
eigval :     1433.92  1444.31  1451.23  1455.78  1470.29  1479.32
eigval :     1488.19  1488.60  1490.04  1491.73  1491.97  1492.32
eigval :     1493.10  1493.79  1494.52  1494.67  1495.35  1495.96
eigval :     1496.59  1502.22  1503.08  1503.23  1503.78  1506.09
eigval :     1506.41  1506.63  1507.55  1508.09  1511.59  1514.62
eigval :     1514.73  1516.14  1519.36  1520.04  1520.11  1522.27
eigval :     1527.94  1534.01  1542.84  1556.53  1563.88  1567.60
eigval :     1570.66  1571.73  1581.95  1587.62  1597.67  1601.07
eigval :     1604.17  1604.79  1608.44  3018.44  3019.59  3020.56
eigval :     3021.12  3021.70  3022.16  3022.69  3022.87  3024.29
eigval :     3025.71  3025.83  3026.49  3027.01  3027.06  3027.18
eigval :     3029.04  3029.31  3029.72  3029.80  3029.84  3031.14
eigval :     3031.51  3032.82  3033.04  3035.23  3035.84  3036.16
eigval :     3037.81  3038.03  3038.26  3038.82  3041.86  3044.37
eigval :     3045.14  3046.13  3046.50  3047.17  3047.46  3047.75
eigval :     3050.72  3051.04  3052.00  3069.78  3072.85  3075.19
eigval :     3075.61  3079.63  3080.26  3081.02  3084.41  3085.74
eigval :     3086.97  3087.93  3089.12  3091.04  3092.36  3093.40
eigval :     3099.00  3105.42  3106.09  3107.98  3109.84  3109.92
eigval :     3112.37  3119.02  3127.87

   temp. (K)  partition function   enthalpy   heat capacity  entropy
                                   cal/mol     cal/K/mol   cal/K/mol   J/K/mol
 298.15  VIB  0.730E+28            37224.842    231.306    229.399
         ROT  0.188E+09              888.752      2.981     40.844
         INT  0.137E+37            38113.595    234.287    270.243
         TR   0.241E+29             1481.254      4.968     46.083
         TOT                       39594.8485   239.2554   316.3260  1323.5081

       T/K    H(0)-H(T)+PV         H(T)/Eh          T*S/Eh         G(T)/Eh
   ------------------------------------------------------------------------
    298.15    0.630984E-01    0.116003E+01    0.150297E+00    0.100973E+01
   ------------------------------------------------------------------------

         :::::::::::::::::::::::::::::::::::::::::::::::::::::
         ::                  THERMODYNAMIC                  ::
         :::::::::::::::::::::::::::::::::::::::::::::::::::::
         :: total free energy        -173.448195034083 Eh   ::
         ::.................................................::
         :: total energy             -174.457928990172 Eh   ::
         :: zero point energy           1.096932247557 Eh   ::
         :: G(RRHO) w/o ZPVE           -0.087198291468 Eh   ::
         :: G(RRHO) contrib.            1.009733956089 Eh   ::
         :::::::::::::::::::::::::::::::::::::::::::::::::::::

           -------------------------------------------------
          | TOTAL ENERGY             -174.457928990172 Eh   |
          | TOTAL ENTHALPY           -173.297898335172 Eh   |
          | TOTAL FREE ENERGY        -173.448195034083 Eh   |
          | GRADIENT NORM               0.000034007961 Eh/α |
          | HOMO-LUMO GAP               2.282140143590 eV   |
           -------------------------------------------------

 * finished run on 2025/09/11 at 16:38:07.513
