   * xtb version 6.7.1 (edcfbbe) compiled by 'albert@albert-system' on 2024-07-22

   ID    Z sym.   atoms
    1    7 N      1, 4, 10, 40, 69, 72
    2    6 C      2, 3, 5-9, 11-39, 41-68, 70, 71
    3    1 H      73-110

          program call               : xtb data2507/toluene/DDPhCz-DCPP/DDPhCz-DCPP_toluene_S0_finalOpt.xtbopt.xyz --gfn 2 --uhf 2 --gbsa toluene --ohess vtight --parallel 40 --molden --ceasefiles --namespace data2507/toluene/DDPhCz-DCPP/DDPhCz-DCPP_toluene_T1_preOpt
      * Solvation model:               GBSA
        Solvent                        toluene
        Solvent mass                       9.2140E+01 g/mol
          :  Hamiltonian                  GFN2-xTB          :
 * total energy  :  -178.2931260 Eh     change       -0.6215828E-09 Eh
 * total energy  :  -178.2945962 Eh     change       -0.1470233E-02 Eh
 * total energy  :  -178.2943348 Eh     change        0.2614051E-03 Eh
 * total energy  :  -178.2949823 Eh     change       -0.6474931E-03 Eh
 * total energy  :  -178.2950642 Eh     change       -0.8186337E-04 Eh
 * total energy  :  -178.2950804 Eh     change       -0.1621170E-04 Eh
 * total energy  :  -178.2951145 Eh     change       -0.3409181E-04 Eh
 * total energy  :  -178.2951253 Eh     change       -0.1084175E-04 Eh
 * total energy  :  -178.2951353 Eh     change       -0.9961836E-05 Eh
 * total energy  :  -178.2951417 Eh     change       -0.6374588E-05 Eh
 * total energy  :  -178.2952045 Eh     change       -0.7995955E-06 Eh
 * total energy  :  -178.2952052 Eh     change       -0.7721365E-06 Eh
 * total energy  :  -178.2952060 Eh     change       -0.7729869E-06 Eh
 * total energy  :  -178.2952069 Eh     change       -0.8438546E-06 Eh
 * total energy  :  -178.2952077 Eh     change       -0.8444868E-06 Eh
 * total energy  :  -178.2952083 Eh     change       -0.6029927E-06 Eh
 * total energy  :  -178.2952087 Eh     change       -0.3867977E-06 Eh
 * total energy  :  -178.2952090 Eh     change       -0.3384103E-06 Eh
 * total energy  :  -178.2952090 Eh     change       -0.5701168E-08 Eh
   *** GEOMETRY OPTIMIZATION CONVERGED AFTER 44 ITERATIONS ***

 final structure:
================
110
 xtb: 6.7.1 (edcfbbe)
N            1.55750885411976        9.83353341794311        1.85901226582973
C            1.06074158676711        8.81221488635880        1.66761046352285
C            0.42626827199500        7.58291626535790        1.43157869262186
N            1.15256331911829        6.48797254308152        1.19077351470551
C            0.50452461639202        5.32664063172868        0.96557555152764
C            1.25582092143453        4.14745383767789        0.69295174137639
C            2.66276168283405        4.19731068886831        0.70482260202477
C            3.41565074791103        3.07568597294949        0.49578375004292
C            2.77345880321202        1.85095500804281        0.23730947416100
N            3.52054142543450        0.68210268517158        0.05510152730060
C            3.26258994106005       -0.52698440002115        0.67021304275767
C            2.30534551669243       -0.85509140390841        1.62245919353145
C            2.27614548849445       -2.15185430375060        2.09256086907628
C            3.17512725273420       -3.12897758107743        1.64323681545248
C            3.08452001342026       -4.50441775464870        2.15206736707194
C            2.80487776778355       -4.75541516199777        3.49524961836997
C            2.71700294189419       -6.05210867985199        3.96613724435112
C            2.90032132871955       -7.12137147222867        3.10396402931856
C            3.17676680342104       -6.88479569425222        1.76674604906441
C            3.27066076564987       -5.58890170356559        1.29480273972047
C            4.15846690360833       -2.78286760241534        0.71724512512208
C            4.20997494721008       -1.48553233889302        0.23987794679359
C            5.08718083756482       -0.80373929200358       -0.67847356338342
C            6.18491489112245       -1.20859588325925       -1.41520894317383
C            6.82897234140712       -0.28685659413024       -2.23971403274035
C            8.01466896672040       -0.68485199427778       -3.00972414785462
C            8.08383855255774       -1.93848677246902       -3.61751532443173
C            9.20456362863875       -2.31326672257659       -4.33451707209091
C           10.27928612368244       -1.44652987263353       -4.45266409106965
C           10.22306312811462       -0.19898952197473       -3.85216981279125
C            9.10049922437312        0.18087741289073       -3.14065922129568
C            6.33501057186087        1.02259175862403       -2.32961768263961
C            5.23480069898022        1.44368386096058       -1.61100771379904
C            4.62255367328640        0.53112536091243       -0.76010410725940
C            1.39380791662520        1.79063215109661        0.18689627760813
C            0.59914692198994        2.91756187774393        0.42653261704096
C           -0.83977438054152        2.86560425629407        0.44250102251377
C           -1.55683258602871        1.69065513980752        0.19044553977717
C           -2.93565759668013        1.64765480880382        0.27759992546989
N           -3.59958304397095        0.43486649447879        0.06771685858767
C           -4.71150753088476        0.23477128117583       -0.72369057514385
C           -5.42438346063172        1.13586330085090       -1.50553682941689
C           -6.51063738094995        0.66225449542307       -2.21285882289044
C           -6.89120228655517       -0.68694010990813       -2.18084106279013
C           -8.06463894490154       -1.14200974707858       -2.93806921425450
C           -9.22725525547880       -0.37245963442474       -2.97723391416606
C          -10.33686062697541       -0.80745351654578       -3.67750140111297
C          -10.30284196787949       -2.01372364415761       -4.35869816829463
C           -9.15133180486762       -2.78410087006668       -4.33219273392580
C           -8.04316405387892       -2.35521910452294       -3.62598008352333
C           -6.14477892038300       -1.59396806495970       -1.42951961343301
C           -5.05919412695262       -1.13757195999911       -0.70498807195726
C           -4.09649090688200       -1.79117308236292        0.14607298545887
C           -3.91355947152591       -3.10534234556906        0.53819920920698
C           -2.85683570072931       -3.41848864620835        1.39192504549970
C           -2.60615696045673       -4.80768783462732        1.79732245515678
C           -1.30143360539836       -5.29618008907074        1.87009032563157
C           -1.05786860493815       -6.60270055031051        2.24902619893100
C           -2.11282356285273       -7.44253372307055        2.56848455662875
C           -3.41337256791715       -6.96844492520602        2.50089974473578
C           -3.65984090094957       -5.66405689577349        2.11500061157526
C           -2.02934427436779       -2.39383254806936        1.87268234843435
C           -2.20190297449635       -1.07661985959479        1.50223904067708
C           -3.21955239315980       -0.77956604036039        0.60327039663569
C           -3.65714519316222        2.81325078606219        0.59410900964759
C           -2.98257815102583        3.98299162001162        0.80679064667483
C           -1.57712560019900        4.03987754705300        0.74647859348616
C           -0.90761252266718        5.27101843586483        1.00085638561397
N           -1.63253621396254        6.37656574006890        1.26946143993914
C           -0.98353280280408        7.52550758480672        1.47526272172248
C           -1.69982242573312        8.69865539037285        1.75862515625680
N           -2.26539880192017        9.67520148248247        1.98841415902095
H            3.12646095894334        5.14929026353735        0.91415738664332
H            4.49183733447478        3.11429855681857        0.55823569556700
H            1.61378109373087       -0.11750318112353        1.99854000771090
H            1.52733311895259       -2.42776309071703        2.81902380042618
H            2.68068124568512       -3.92877207297518        4.17948217454137
H            2.50506823345921       -6.23071519411711        5.01055510372980
H            2.82797022979544       -8.13427270450114        3.47280378958294
H            3.31574414466846       -7.71460101604540        1.08853508434854
H            3.46642237353019       -5.41279774280295        0.24707807274129
H            4.88779706419809       -3.51129151263376        0.39818564987230
H            6.55364412706271       -2.21931816795799       -1.33429226953755
H            7.24293622639565       -2.61284892720181       -3.54690325879180
H            9.24066726089519       -3.28494197782927       -4.80596297569071
H           11.15607181369250       -1.74123839428020       -5.01049015713338
H           11.05929842832927        0.48002968293099       -3.93766131351758
H            9.07322166998491        1.14757259099147       -2.65915696637282
H            6.81644625510985        1.71603551774477       -3.00250241111823
H            4.85917495583954        2.44932038282666       -1.72031484592469
H            0.93711959011446        0.84502882861489       -0.05444044269643
H           -1.03960881582589        0.79063215740511       -0.09806594601521
H           -5.13577570008202        2.17341821734617       -1.57186719063554
H           -7.07062533820345        1.34689161754401       -2.83186275851134
H           -9.26814686386574        0.56007508255775       -2.43331261620330
H          -11.23356465699962       -0.20457558431615       -3.69106481482027
H          -11.16981868167862       -2.35140407304737       -4.90754468142349
H           -9.11736161780804       -3.72251982092569       -4.86687808378051
H           -7.14299512211569       -2.95246951782959       -3.62591153308670
H           -6.42400875465126       -2.63564864524121       -1.39643646220427
H           -4.56664520296909       -3.88112366712924        0.16973725671074
H           -0.47553416457640       -4.65414454775608        1.60205662809912
H           -0.04149107473650       -6.96585480170060        2.29415299441139
H           -1.92292198505706       -8.46280211806639        2.86827988383891
H           -4.23882755015733       -7.61879206300709        2.75270296450384
H           -4.67513020792359       -5.29615606656359        2.08343964166129
H           -1.25002295326409       -2.64514256731027        2.57531830161399
H           -1.57496401795893       -0.30125787906402        1.91396679003849
H           -4.73028211168790        2.76991815202475        0.69384945303854
H           -3.50834079263896        4.89319477258467        1.05171573323224

          :  Hamiltonian                  GFN2-xTB          :
         :: gradient norm              0.000141618436 Eh/a0 ::
         :: HOMO-LUMO gap              0.140023400613 eV    ::
         :: SCC energy              -181.712136711497 Eh    ::
         :: -> dispersion             -0.162962103754 Eh    ::
         :: -> Gsolv                  -0.093328375023 Eh    ::
         :: repulsion energy           3.416927684554 Eh    ::

    * Orbital Energies and Occupations

         #    Occupation            Energy/Eh            Energy/eV
      -------------------------------------------------------------
         1        2.0000           -0.6945301             -18.8991
       ...           ...                  ...                  ...
       155        2.0000           -0.4081771             -11.1071
       156        2.0000           -0.4079603             -11.1012
       157        2.0000           -0.4077678             -11.0959
       158        2.0000           -0.4046781             -11.0119
       159        2.0000           -0.4018508             -10.9349
       160        2.0000           -0.4014340             -10.9236
       161        2.0000           -0.4009347             -10.9100
       162        2.0000           -0.3891588             -10.5896
       163        2.0000           -0.3889488             -10.5838
       164        1.9036           -0.3728351             -10.1454
       165        1.8064           -0.3720645             -10.1244
       166        1.2899           -0.3698577             -10.0643
       167        0.9375           -0.3078570              -8.3772 (HOMO)
       168        0.0625           -0.3027116              -8.2372 (LUMO)
       169                         -0.2665272              -7.2526
       170                         -0.2629120              -7.1542
       171                         -0.2588347              -7.0433
       172                         -0.2564806              -6.9792
       173                         -0.2555088              -6.9527
       174                         -0.2549906              -6.9386
       175                         -0.2454226              -6.6783
       176                         -0.2405365              -6.5453
       177                         -0.2269582              -6.1758
       178                         -0.2262942              -6.1578
       ...                                ...                  ...
       326                          1.1600448              31.5664
      -------------------------------------------------------------
                  HL-Gap            0.0051455 Eh            0.1400 eV

     #   Z          covCN         q      C6AA      α(0)
     1   7 N        0.911    -0.278    27.184     7.541
     2   6 C        1.912     0.106    28.466     8.617
     3   6 C        2.942     0.093    25.938     8.353
     4   7 N        1.849    -0.280    28.105     7.857
     5   6 C        2.950     0.082    26.179     8.392
     6   6 C        2.987    -0.012    28.308     8.728
     7   6 C        2.921    -0.025    28.636     8.775
     8   6 C        2.916    -0.043    29.072     8.842
     9   6 C        2.910     0.060    26.658     8.466
    10   7 N        2.802    -0.012    21.485     6.884
    11   6 C        3.075     0.044    26.943     8.510
    12   6 C        2.908    -0.045    29.110     8.847
    13   6 C        2.928    -0.035    28.870     8.812
    14   6 C        2.976     0.009    27.813     8.651
    15   6 C        2.977     0.012    27.737     8.639
    16   6 C        2.924    -0.033    28.820     8.804
    17   6 C        2.918    -0.029    28.713     8.787
    18   6 C        2.920    -0.029    28.730     8.790
    19   6 C        2.918    -0.029    28.724     8.789
    20   6 C        2.925    -0.033    28.825     8.805
    21   6 C        2.917    -0.033    28.822     8.804
    22   6 C        3.061    -0.011    28.223     8.712
    23   6 C        3.063    -0.011    28.229     8.713
    24   6 C        2.917    -0.033    28.825     8.804
    25   6 C        2.976     0.009    27.802     8.649
    26   6 C        2.977     0.012    27.746     8.640
    27   6 C        2.924    -0.034    28.835     8.806
    28   6 C        2.918    -0.029    28.733     8.790
    29   6 C        2.920    -0.029    28.736     8.791
    30   6 C        2.918    -0.029    28.730     8.790
    31   6 C        2.925    -0.033    28.832     8.806
    32   6 C        2.927    -0.035    28.868     8.811
    33   6 C        2.908    -0.044    29.088     8.844
    34   6 C        3.071     0.045    26.912     8.506
    35   6 C        2.924    -0.048    29.197     8.861
    36   6 C        2.977     0.002    27.982     8.677
    37   6 C        2.977     0.002    27.982     8.677
    38   6 C        2.924    -0.048    29.198     8.861
    39   6 C        2.910     0.060    26.659     8.467
    40   7 N        2.802    -0.010    21.456     6.880
    41   6 C        3.071     0.045    26.918     8.507
    42   6 C        2.908    -0.044    29.083     8.843
    43   6 C        2.927    -0.035    28.867     8.811
    44   6 C        2.976     0.010    27.794     8.648
    45   6 C        2.977     0.012    27.745     8.640
    46   6 C        2.924    -0.033    28.831     8.805
    47   6 C        2.918    -0.029    28.730     8.790
    48   6 C        2.920    -0.029    28.735     8.791
    49   6 C        2.918    -0.029    28.731     8.790
    50   6 C        2.924    -0.033    28.834     8.806
    51   6 C        2.917    -0.033    28.820     8.803
    52   6 C        3.063    -0.011    28.221     8.711
    53   6 C        3.060    -0.010    28.217     8.711
    54   6 C        2.917    -0.033    28.813     8.802
    55   6 C        2.976     0.010    27.791     8.647
    56   6 C        2.977     0.012    27.741     8.640
    57   6 C        2.925    -0.033    28.822     8.804
    58   6 C        2.918    -0.029    28.715     8.787
    59   6 C        2.920    -0.029    28.727     8.789
    60   6 C        2.918    -0.029    28.733     8.790
    61   6 C        2.924    -0.033    28.833     8.806
    62   6 C        2.928    -0.035    28.866     8.811
    63   6 C        2.908    -0.044    29.101     8.846
    64   6 C        3.075     0.044    26.946     8.511
    65   6 C        2.916    -0.043    29.074     8.842
    66   6 C        2.921    -0.025    28.636     8.776
    67   6 C        2.987    -0.012    28.308     8.728
    68   6 C        2.950     0.081    26.183     8.393
    69   7 N        1.849    -0.280    28.102     7.857
    70   6 C        2.942     0.093    25.935     8.352
    71   6 C        1.912     0.107    28.464     8.616
    72   7 N        0.911    -0.278    27.177     7.540
    73   1 H        0.926     0.053     2.286     2.364
    74   1 H        0.926     0.053     2.277     2.360
    75   1 H        0.926     0.042     2.424     2.435
    76   1 H        0.926     0.045     2.385     2.415
    77   1 H        0.926     0.035     2.513     2.479
    78   1 H        0.926     0.033     2.550     2.497
    79   1 H        0.926     0.032     2.560     2.502
    80   1 H        0.926     0.033     2.542     2.493
    81   1 H        0.926     0.037     2.496     2.470
    82   1 H        0.926     0.046     2.364     2.404
    83   1 H        0.926     0.048     2.350     2.397
    84   1 H        0.926     0.037     2.483     2.464
    85   1 H        0.926     0.034     2.527     2.486
    86   1 H        0.926     0.033     2.543     2.494
    87   1 H        0.926     0.033     2.544     2.494
    88   1 H        0.926     0.035     2.511     2.478
    89   1 H        0.926     0.043     2.403     2.424
    90   1 H        0.926     0.042     2.427     2.436
    91   1 H        0.926     0.058     2.221     2.331
    92   1 H        0.926     0.058     2.218     2.329
    93   1 H        0.926     0.042     2.419     2.432
    94   1 H        0.926     0.044     2.400     2.422
    95   1 H        0.926     0.036     2.509     2.477
    96   1 H        0.926     0.033     2.542     2.493
    97   1 H        0.926     0.033     2.542     2.493
    98   1 H        0.926     0.034     2.527     2.486
    99   1 H        0.926     0.037     2.483     2.464
   100   1 H        0.926     0.048     2.346     2.395
   101   1 H        0.926     0.047     2.354     2.399
   102   1 H        0.926     0.036     2.501     2.473
   103   1 H        0.926     0.033     2.540     2.492
   104   1 H        0.926     0.033     2.544     2.494
   105   1 H        0.926     0.034     2.537     2.491
   106   1 H        0.926     0.036     2.498     2.472
   107   1 H        0.926     0.046     2.373     2.409
   108   1 H        0.926     0.043     2.410     2.427
   109   1 H        0.926     0.054     2.271     2.356
   110   1 H        0.926     0.053     2.284     2.363

molecular dipole:
                 x           y           z       tot (Debye)
 q only:        0.265      -9.734      -1.923
   full:        0.298      -9.974      -2.011      25.873

 projected vibrational frequencies (cm⁻¹)
eigval :       -0.00    -0.00    -0.00     0.00     0.00     0.00
eigval :        5.40     7.27    16.36    16.75    19.40    21.06
eigval :       32.05    36.97    38.57    39.81    40.82    42.00
eigval :       49.80    51.28    57.57    59.46    62.60    69.01
eigval :       74.27    86.24    90.42    98.79    99.33   102.35
eigval :      112.21   118.21   127.52   132.69   135.07   141.46
eigval :      147.61   157.39   158.59   175.96   183.64   190.59
eigval :      217.59   222.72   239.08   240.29   243.53   249.12
eigval :      264.20   267.79   273.09   284.64   297.49   304.44
eigval :      311.92   318.27   325.28   329.64   365.59   367.07
eigval :      370.89   372.87   374.75   376.34   376.55   378.76
eigval :      383.94   387.94   392.53   394.29   398.63   410.40
eigval :      420.19   427.62   433.43   434.36   443.31   453.87
eigval :      469.17   473.68   478.93   480.44   481.70   494.66
eigval :      497.48   500.49   502.63   528.81   532.67   538.23
eigval :      552.47   555.52   562.50   573.11   576.17   584.44
eigval :      585.31   586.28   588.97   590.92   592.89   601.58
eigval :      608.52   610.91   620.93   621.06   625.56   627.01
eigval :      633.51   637.67   647.15   654.37   666.80   669.40
eigval :      672.65   672.90   678.80   680.33   688.50   689.32
eigval :      692.34   707.63   709.10   713.93   723.10   733.46
eigval :      737.36   739.22   754.98   756.61   757.15   760.33
eigval :      761.93   814.61   816.52   821.83   823.53   827.44
eigval :      829.80   836.20   838.43   857.81   862.20   865.54
eigval :      867.07   868.42   869.17   871.07   875.48   876.54
eigval :      877.59   879.61   886.06   901.97   902.57   902.78
eigval :      903.85   906.24   906.37   908.47   914.58   915.39
eigval :      916.67   921.31   927.07   928.74   930.14   930.30
eigval :      930.57   931.62   932.10   932.34   932.93   938.65
eigval :      962.71   969.68   970.06   978.97   979.21  1005.93
eigval :     1024.37  1025.98  1038.71  1056.42  1067.77  1068.44
eigval :     1068.49  1069.13  1083.32  1083.67  1084.11  1085.38
eigval :     1120.45  1121.00  1121.15  1121.80  1124.79  1131.80
eigval :     1137.51  1141.68  1146.55  1150.83  1152.55  1179.67
eigval :     1180.01  1180.51  1181.45  1182.90  1187.19  1197.95
eigval :     1198.62  1199.32  1199.55  1203.37  1212.96  1213.85
eigval :     1216.88  1217.90  1224.05  1224.81  1240.44  1241.23
eigval :     1248.93  1262.10  1273.84  1274.99  1278.33  1279.41
eigval :     1279.51  1281.89  1286.71  1287.69  1288.20  1296.46
eigval :     1299.09  1316.88  1317.01  1317.72  1317.99  1321.18
eigval :     1330.40  1338.15  1339.12  1339.74  1342.83  1348.43
eigval :     1352.36  1373.51  1387.73  1399.26  1404.08  1405.18
eigval :     1412.27  1418.55  1425.02  1426.99  1427.84  1427.99
eigval :     1428.12  1437.75  1447.02  1447.84  1458.84  1462.45
eigval :     1463.90  1466.31  1483.89  1484.60  1487.03  1488.47
eigval :     1494.90  1517.26  1551.30  1551.80  1556.12  1562.17
eigval :     1565.34  1565.87  1566.87  1571.44  1574.97  1575.26
eigval :     1576.07  1576.15  1582.29  1590.01  1595.64  1595.72
eigval :     1600.64  1604.43  2278.42  2307.98  3068.53  3068.98
eigval :     3069.49  3069.58  3070.87  3071.17  3071.17  3073.26
eigval :     3078.69  3078.78  3079.60  3080.15  3082.41  3082.83
eigval :     3082.94  3084.27  3088.24  3088.32  3089.49  3090.07
eigval :     3090.10  3090.48  3090.50  3091.63  3092.46  3092.79
eigval :     3094.93  3095.16  3097.19  3097.46  3099.47  3099.88
eigval :     3100.47  3102.00  3104.40  3104.66  3110.14  3119.91

   temp. (K)  partition function   enthalpy   heat capacity  entropy
                                   cal/mol     cal/K/mol   cal/K/mol   J/K/mol
 298.15  VIB  0.173E+28            33770.281    209.791    212.506
         ROT  0.350E+09              888.752      2.981     42.078
         INT  0.608E+36            34659.033    212.772    254.584
         TR   0.268E+29             1481.254      4.968     46.296
         TOT                       36140.2869   217.7400   300.8800  1258.8820

       T/K    H(0)-H(T)+PV         H(T)/Eh          T*S/Eh         G(T)/Eh
   ------------------------------------------------------------------------
    298.15    0.575932E-01    0.875168E+00    0.142958E+00    0.732210E+00
   ------------------------------------------------------------------------

         :::::::::::::::::::::::::::::::::::::::::::::::::::::
         ::                  THERMODYNAMIC                  ::
         :::::::::::::::::::::::::::::::::::::::::::::::::::::
         :: total free energy        -177.562998541666 Eh   ::
         ::.................................................::
         :: total energy             -178.295209023214 Eh   ::
         :: zero point energy           0.817575075884 Eh   ::
         :: G(RRHO) w/o ZPVE           -0.085364594335 Eh   ::
         :: G(RRHO) contrib.            0.732210481549 Eh   ::
         :::::::::::::::::::::::::::::::::::::::::::::::::::::

           -------------------------------------------------
          | TOTAL ENERGY             -178.295209023214 Eh   |
          | TOTAL ENTHALPY           -177.420040734148 Eh   |
          | TOTAL FREE ENERGY        -177.562998541666 Eh   |
          | GRADIENT NORM               0.000142138928 Eh/α |
          | HOMO-LUMO GAP               0.140014981785 eV   |
           -------------------------------------------------

 * finished run on 2025/07/16 at 12:48:40.237
