   * xtb version 6.7.1 (edcfbbe) compiled by 'albert@albert-system' on 2024-07-22

   ID    Z sym.   atoms
    1    7 N      1, 4, 10, 40, 69, 72
    2    6 C      2, 3, 5-9, 11-39, 41-68, 70, 71
    3    1 H      73-110

          program call               : xtb data2507/toluene/DDPhCz-DCPP/DDPhCz-DCPP_toluene_T1_crest.xyz --gfn 2 --uhf 2 --gbsa toluene --ohess vtight --parallel 40 --molden --ceasefiles --namespace data2507/toluene/DDPhCz-DCPP/DDPhCz-DCPP_toluene_T1_finalOpt
      * Solvation model:               GBSA
        Solvent                        toluene
        Solvent mass                       9.2140E+01 g/mol
          :  Hamiltonian                  GFN2-xTB          :
 * total energy  :  -178.2945273 Eh     change       -0.5799478E-08 Eh
 * total energy  :  -178.2947696 Eh     change       -0.2423313E-03 Eh
 * total energy  :  -178.2948309 Eh     change       -0.6127903E-04 Eh
 * total energy  :  -178.2949449 Eh     change       -0.1139840E-03 Eh
 * total energy  :  -178.2949764 Eh     change       -0.3150196E-04 Eh
 * total energy  :  -178.2950091 Eh     change       -0.3268331E-04 Eh
 * total energy  :  -178.2950312 Eh     change       -0.2212751E-04 Eh
 * total energy  :  -178.2950538 Eh     change       -0.2263526E-04 Eh
 * total energy  :  -178.2950819 Eh     change       -0.2805551E-04 Eh
 * total energy  :  -178.2951060 Eh     change       -0.2413262E-04 Eh
 * total energy  :  -178.2952020 Eh     change       -0.6122860E-06 Eh
 * total energy  :  -178.2952026 Eh     change       -0.6085681E-06 Eh
 * total energy  :  -178.2952032 Eh     change       -0.5884947E-06 Eh
 * total energy  :  -178.2952038 Eh     change       -0.6603447E-06 Eh
 * total energy  :  -178.2952046 Eh     change       -0.7654794E-06 Eh
 * total energy  :  -178.2952052 Eh     change       -0.6620556E-06 Eh
 * total energy  :  -178.2952059 Eh     change       -0.6411710E-06 Eh
 * total energy  :  -178.2952065 Eh     change       -0.5693774E-06 Eh
 * total energy  :  -178.2952065 Eh     change       -0.1718661E-07 Eh
   *** GEOMETRY OPTIMIZATION CONVERGED AFTER 44 ITERATIONS ***

 final structure:
================
110
 xtb: 6.7.1 (edcfbbe)
N            1.57290461153584        9.85420847623317        1.79488704542995
C            1.07385347077852        8.83244112329338        1.61174117239912
C            0.43701259761185        7.60241205341388        1.38639708702915
N            1.16114557348310        6.50509375252742        1.14985222448713
C            0.51089931000714        5.34295719652529        0.93556290083037
C            1.25990208963026        4.16147452415979        0.66644712278395
C            2.66696241223184        4.20920048190223        0.67189932116029
C            3.41735700874635        3.08574878419517        0.46317631173204
C            2.77249419332164        1.86144359682280        0.20921945596599
N            3.51623629040451        0.69117835009832        0.02313132904605
C            3.25387592795522       -0.51972769209192        0.63305068088241
C            2.29788831169122       -0.84841771174844        1.58641415181708
C            2.26249909052773       -2.14797199847098        2.04832108094811
C            3.15470894591079       -3.12749544120526        1.59089034800115
C            3.05950096331244       -4.50532815171649        2.09209580605262
C            2.77599118238537       -4.76277454901380        3.43324360020376
C            2.68969950489128       -6.06154833042383        3.89856458124994
C            2.87759590990761       -7.12682532952843        3.03233021238002
C            3.15547369353559       -6.88398276139997        1.69645706891687
C            3.24803153978980       -5.58593264700038        1.23035394199889
C            4.13791237357876       -2.78072145325052        0.66494355511131
C            4.19479142177188       -1.48103101830584        0.19483474725912
C            5.07245445704160       -0.79943767415220       -0.72308817899266
C            6.16439687702938       -1.20740358066792       -1.46666983525541
C            6.80988493921485       -0.28580697245804       -2.29008012912153
C            7.98832671690844       -0.68796458109662       -3.06906885268047
C            8.04361233072100       -1.93796871161736       -3.68564720181604
C            9.15680710314943       -2.31683245283719       -4.41215350387577
C           10.23791451062249       -1.45813115928740       -4.53062147201712
C           10.19559071578524       -0.21441869249052       -3.92110313545154
C            9.08036747487029        0.16977247669900       -3.20040402974648
C            6.32343054267912        1.02694437757880       -2.37144437172224
C            5.22872035626018        1.45105748672726       -1.64614697798812
C            4.61469804651250        0.53822469246350       -0.79682915943505
C            1.39248337008963        1.80308562533336        0.16623202376590
C            0.60060337184297        2.93119162905998        0.40894847670803
C           -0.83807694465984        2.87981245798428        0.43690970909360
C           -1.55680790716946        1.70261304178478        0.20173522089021
C           -2.93481057780687        1.65968523792371        0.30126199975955
N           -3.59730257150230        0.44317892693509        0.10913582048132
C           -4.71080942675440        0.22894400593877       -0.67616653115077
C           -5.43498739306068        1.11941823272610       -1.45968599340790
C           -6.51996011070124        0.63229340201541       -2.15980515167732
C           -6.88822671776990       -0.72008097647022       -2.11894693604854
C           -8.05902535026809       -1.19023702533984       -2.87104012331586
C           -9.22849096660455       -0.43133918757450       -2.91385355198928
C          -10.33454268968709       -0.88015131890748       -3.61103740084627
C          -10.29025085404732       -2.08994316166929       -4.28536115173978
C           -9.13208936920129       -2.85012463902607       -4.25473838516696
C           -8.02741416048691       -2.40736490676319       -3.55164168886180
C           -6.13129398133773       -1.61612046729455       -1.36487074257901
C           -5.04684756256487       -1.14619692588194       -0.64736402959232
C           -4.07544519913155       -1.78636855883709        0.20421327137520
C           -3.87908800477166       -3.09633864267515        0.60378971860731
C           -2.81766227741806       -3.39467295542394        1.45732970344516
C           -2.55340323829427       -4.77877829247258        1.87103119692753
C           -1.24378964928241       -5.25217993051435        1.95740303606518
C           -0.98880622109775       -6.55459903060118        2.34278441528025
C           -2.03661356424875       -7.40579372435148        2.65547018302516
C           -3.34182651637325       -6.94666086815679        2.57554355790891
C           -3.59966306866298       -5.64642709621274        2.18332621969575
C           -1.99899479852171       -2.35907706403850        1.92985850820478
C           -2.18348484177031       -1.04619701066515        1.55031713119600
C           -3.20575774146518       -0.76429871322930        0.65171293581252
C           -3.65424944513498        2.82777123398183        0.61272105498170
C           -2.97809468319224        3.99951045417817        0.80968889485577
C           -1.57313850509978        4.05626624024903        0.73776456481201
C           -0.90121058598987        5.28893929354006        0.97816346761513
N           -1.62383683081398        6.39725786157337        1.24154223117515
C           -0.97267386445490        7.54692344258703        1.43616101311400
C           -1.68655798835485        8.72287251444372        1.71378359835207
N           -2.25057775895344        9.70148848800300        1.93871281003403
H            3.13305991257019        5.16114235494332        0.87605706947188
H            4.49379462503409        3.12302216643844        0.52177956622145
H            1.61169917315524       -0.10946221826425        1.96951897570341
H            1.51392281256232       -2.42388944803762        2.77496533633497
H            2.64921191027319       -3.93960322460505        4.12115144430740
H            2.47545608772471       -6.24494056571472        4.94168537523686
H            2.80754227466074       -8.14146779377840        3.39690466934050
H            3.29698796982721       -7.71066655357935        1.01501825271470
H            3.44539615171788       -5.40518360659820        0.18376515872370
H            4.86316163354152       -3.51062434533025        0.34008481249261
H            6.52736430456105       -2.22071322418102       -1.39227141504687
H            7.19752974633168       -2.60579421184145       -3.61458004016996
H            9.18207503134391       -3.28543681615084       -4.89055807493041
H           11.10892812170114       -1.75608145988445       -5.09572175665119
H           11.03707473640459        0.45807092263659       -4.00670614117183
H            9.06366907013598        1.13339772185355       -2.71230544642569
H            6.80598301546343        1.72066313768433       -3.04325325941991
H            4.85832328939740        2.45920026841419       -1.74988819677564
H            0.93319807886198        0.85814031143893       -0.07254921730550
H           -1.04188912445459        0.79982316817400       -0.08221753159539
H           -5.15591021050033        2.15914368594031       -1.53261806451370
H           -7.08860730223605        1.30856745919278       -2.78010771374814
H           -9.27737989915750        0.50400337331126       -2.37546150933146
H          -11.23645781228802       -0.28517556589828       -3.62778364976190
H          -11.15441140220906       -2.43827557602937       -4.83198529977255
H           -9.09003023604718       -3.79138205389915       -4.78381428626034
H           -7.12205748523421       -2.99670962620959       -3.54860622633746
H           -6.40142877367270       -2.65993724980776       -1.32451747400498
H           -4.52573608479955       -3.88018411895509        0.24115028316104
H           -0.42149423695310       -4.60279477540272        1.69593465237945
H            0.03144394127256       -6.90492971020796        2.39856970554789
H           -1.83754494187663       -8.42293721659813        2.95987588217417
H           -4.16211605686874       -7.60529560648937        2.82264225010010
H           -4.61886140766359       -5.29051710007638        2.14270413562626
H           -1.21660407453310       -2.59801690632614        2.63331078818408
H           -1.56217766615033       -0.26247645102745        1.95478206757511
H           -4.72653634790405        2.78519472992721        0.72151077660527
H           -3.50210683797859        4.91161936021364        1.05126375139012

          :  Hamiltonian                  GFN2-xTB          :
         :: gradient norm              0.000123312335 Eh/a0 ::
         :: HOMO-LUMO gap              0.139490365875 eV    ::
         :: SCC energy              -181.712113972568 Eh    ::
         :: -> dispersion             -0.163423269756 Eh    ::
         :: -> Gsolv                  -0.093047893479 Eh    ::
         :: repulsion energy           3.416907483213 Eh    ::

    * Orbital Energies and Occupations

         #    Occupation            Energy/Eh            Energy/eV
      -------------------------------------------------------------
         1        2.0000           -0.6945736             -18.9003
       ...           ...                  ...                  ...
       155        2.0000           -0.4081788             -11.1071
       156        2.0000           -0.4079284             -11.1003
       157        2.0000           -0.4077016             -11.0941
       158        2.0000           -0.4046716             -11.0117
       159        2.0000           -0.4018174             -10.9340
       160        2.0000           -0.4014077             -10.9229
       161        2.0000           -0.4009523             -10.9105
       162        2.0000           -0.3891551             -10.5894
       163        2.0000           -0.3889244             -10.5832
       164        1.9049           -0.3728303             -10.1452
       165        1.8043           -0.3720321             -10.1235
       166        1.2908           -0.3698427             -10.0639
       167        0.9369           -0.3078257              -8.3764 (HOMO)
       168        0.0631           -0.3026993              -8.2369 (LUMO)
       169                         -0.2665162              -7.2523
       170                         -0.2629118              -7.1542
       171                         -0.2588478              -7.0436
       172                         -0.2564987              -6.9797
       173                         -0.2555679              -6.9544
       174                         -0.2551297              -6.9424
       175                         -0.2455012              -6.6804
       176                         -0.2406245              -6.5477
       177                         -0.2270572              -6.1785
       178                         -0.2262832              -6.1575
       ...                                ...                  ...
       326                          1.1599503              31.5639
      -------------------------------------------------------------
                  HL-Gap            0.0051264 Eh            0.1395 eV

     #   Z          covCN         q      C6AA      α(0)
     1   7 N        0.911    -0.278    27.186     7.541
     2   6 C        1.912     0.106    28.467     8.617
     3   6 C        2.942     0.093    25.938     8.353
     4   7 N        1.849    -0.280    28.106     7.857
     5   6 C        2.950     0.082    26.179     8.392
     6   6 C        2.987    -0.012    28.308     8.728
     7   6 C        2.921    -0.025    28.636     8.776
     8   6 C        2.916    -0.043    29.073     8.842
     9   6 C        2.910     0.060    26.658     8.466
    10   7 N        2.802    -0.012    21.486     6.884
    11   6 C        3.075     0.044    26.944     8.511
    12   6 C        2.908    -0.045    29.112     8.847
    13   6 C        2.928    -0.035    28.871     8.812
    14   6 C        2.976     0.009    27.814     8.651
    15   6 C        2.976     0.012    27.736     8.639
    16   6 C        2.924    -0.033    28.818     8.803
    17   6 C        2.918    -0.028    28.710     8.787
    18   6 C        2.920    -0.029    28.728     8.789
    19   6 C        2.918    -0.029    28.722     8.788
    20   6 C        2.925    -0.033    28.823     8.804
    21   6 C        2.917    -0.033    28.823     8.804
    22   6 C        3.061    -0.011    28.223     8.712
    23   6 C        3.063    -0.011    28.229     8.713
    24   6 C        2.917    -0.033    28.826     8.804
    25   6 C        2.976     0.009    27.802     8.649
    26   6 C        2.977     0.012    27.747     8.640
    27   6 C        2.924    -0.034    28.835     8.806
    28   6 C        2.918    -0.029    28.733     8.790
    29   6 C        2.920    -0.029    28.737     8.791
    30   6 C        2.918    -0.029    28.730     8.790
    31   6 C        2.924    -0.033    28.832     8.806
    32   6 C        2.927    -0.035    28.868     8.811
    33   6 C        2.908    -0.044    29.089     8.844
    34   6 C        3.071     0.045    26.912     8.506
    35   6 C        2.924    -0.048    29.199     8.862
    36   6 C        2.977     0.002    27.982     8.677
    37   6 C        2.977     0.002    27.982     8.677
    38   6 C        2.924    -0.048    29.198     8.861
    39   6 C        2.911     0.060    26.660     8.467
    40   7 N        2.802    -0.010    21.456     6.880
    41   6 C        3.071     0.045    26.917     8.507
    42   6 C        2.908    -0.044    29.083     8.843
    43   6 C        2.927    -0.035    28.867     8.811
    44   6 C        2.976     0.010    27.794     8.648
    45   6 C        2.977     0.012    27.745     8.640
    46   6 C        2.924    -0.033    28.831     8.805
    47   6 C        2.918    -0.029    28.730     8.790
    48   6 C        2.920    -0.029    28.735     8.791
    49   6 C        2.918    -0.029    28.732     8.790
    50   6 C        2.924    -0.033    28.834     8.806
    51   6 C        2.917    -0.033    28.820     8.803
    52   6 C        3.063    -0.011    28.221     8.711
    53   6 C        3.060    -0.010    28.217     8.711
    54   6 C        2.917    -0.033    28.813     8.802
    55   6 C        2.976     0.010    27.790     8.647
    56   6 C        2.977     0.012    27.741     8.640
    57   6 C        2.925    -0.033    28.822     8.804
    58   6 C        2.918    -0.029    28.721     8.788
    59   6 C        2.920    -0.029    28.725     8.789
    60   6 C        2.918    -0.029    28.734     8.790
    61   6 C        2.924    -0.033    28.834     8.806
    62   6 C        2.928    -0.035    28.866     8.811
    63   6 C        2.908    -0.044    29.100     8.845
    64   6 C        3.075     0.044    26.945     8.511
    65   6 C        2.916    -0.043    29.073     8.842
    66   6 C        2.921    -0.025    28.637     8.776
    67   6 C        2.987    -0.012    28.308     8.728
    68   6 C        2.950     0.081    26.184     8.393
    69   7 N        1.849    -0.280    28.103     7.857
    70   6 C        2.942     0.093    25.935     8.352
    71   6 C        1.912     0.107    28.464     8.616
    72   7 N        0.911    -0.278    27.178     7.540
    73   1 H        0.926     0.053     2.287     2.365
    74   1 H        0.926     0.054     2.276     2.359
    75   1 H        0.926     0.042     2.423     2.434
    76   1 H        0.926     0.045     2.385     2.415
    77   1 H        0.926     0.035     2.512     2.478
    78   1 H        0.926     0.033     2.549     2.497
    79   1 H        0.926     0.032     2.560     2.502
    80   1 H        0.926     0.033     2.542     2.493
    81   1 H        0.926     0.037     2.496     2.470
    82   1 H        0.926     0.046     2.364     2.404
    83   1 H        0.926     0.048     2.350     2.397
    84   1 H        0.926     0.037     2.484     2.465
    85   1 H        0.926     0.034     2.527     2.486
    86   1 H        0.926     0.033     2.544     2.494
    87   1 H        0.926     0.033     2.544     2.494
    88   1 H        0.926     0.035     2.511     2.478
    89   1 H        0.926     0.043     2.404     2.425
    90   1 H        0.926     0.042     2.427     2.436
    91   1 H        0.926     0.058     2.221     2.330
    92   1 H        0.926     0.058     2.218     2.329
    93   1 H        0.926     0.042     2.419     2.432
    94   1 H        0.926     0.044     2.400     2.422
    95   1 H        0.926     0.036     2.509     2.477
    96   1 H        0.926     0.033     2.542     2.493
    97   1 H        0.926     0.033     2.543     2.493
    98   1 H        0.926     0.034     2.527     2.486
    99   1 H        0.926     0.037     2.483     2.464
   100   1 H        0.926     0.048     2.345     2.395
   101   1 H        0.926     0.047     2.353     2.399
   102   1 H        0.926     0.036     2.501     2.473
   103   1 H        0.926     0.034     2.536     2.490
   104   1 H        0.926     0.033     2.544     2.494
   105   1 H        0.926     0.033     2.537     2.491
   106   1 H        0.926     0.036     2.498     2.471
   107   1 H        0.926     0.046     2.373     2.409
   108   1 H        0.926     0.043     2.411     2.428
   109   1 H        0.926     0.054     2.270     2.356
   110   1 H        0.926     0.053     2.284     2.364

molecular dipole:
                 x           y           z       tot (Debye)
 q only:        0.248      -9.767      -1.862
   full:        0.282     -10.007      -1.950      25.924

 projected vibrational frequencies (cm⁻¹)
eigval :       -0.00    -0.00    -0.00     0.00     0.00     0.00
eigval :        3.12     6.44    12.88    15.88    17.99    20.46
eigval :       31.57    33.44    38.35    39.09    39.87    41.96
eigval :       47.71    49.39    56.94    59.73    60.75    66.91
eigval :       73.27    86.09    90.28    98.79    99.57   102.34
eigval :      112.82   117.91   127.80   132.67   134.92   141.71
eigval :      147.54   157.78   158.96   175.36   183.25   190.67
eigval :      217.94   222.52   238.91   240.59   243.75   249.43
eigval :      264.14   268.13   273.08   284.83   297.80   304.55
eigval :      312.02   318.11   325.47   330.12   365.12   365.94
eigval :      367.37   371.95   375.14   375.43   376.63   378.90
eigval :      384.20   388.05   392.61   394.63   398.87   410.41
eigval :      419.88   427.75   433.56   434.34   443.24   453.86
eigval :      469.02   473.91   478.56   480.47   481.69   494.64
eigval :      497.52   500.14   502.19   528.84   532.67   538.14
eigval :      552.39   555.55   562.29   573.05   576.13   584.40
eigval :      585.22   586.23   588.89   590.97   592.80   601.61
eigval :      608.66   610.90   620.84   621.46   625.48   626.94
eigval :      633.37   637.43   647.25   654.56   665.07   669.31
eigval :      672.03   672.63   678.80   680.42   688.79   689.17
eigval :      691.87   707.69   709.31   713.95   723.25   733.17
eigval :      737.38   739.27   754.70   756.31   757.12   760.25
eigval :      761.95   814.42   816.50   821.80   823.34   827.99
eigval :      829.38   836.66   838.56   858.00   861.43   865.62
eigval :      867.05   868.97   869.23   870.99   874.75   876.62
eigval :      878.14   879.60   886.25   901.64   902.20   903.03
eigval :      903.98   906.21   906.28   907.68   915.02   915.16
eigval :      916.29   922.09   926.31   928.99   929.47   929.85
eigval :      930.39   931.44   931.76   931.93   933.40   938.46
eigval :      962.58   969.65   969.96   978.96   979.04  1006.02
eigval :     1024.43  1026.05  1039.13  1056.53  1067.80  1068.47
eigval :     1068.67  1069.05  1083.26  1083.56  1084.60  1085.42
eigval :     1120.41  1120.63  1121.03  1122.22  1124.95  1132.05
eigval :     1137.43  1141.68  1146.36  1151.45  1152.67  1178.36
eigval :     1179.82  1181.10  1182.22  1182.93  1187.47  1198.00
eigval :     1198.52  1198.78  1200.25  1203.61  1213.08  1214.09
eigval :     1217.14  1218.16  1224.23  1224.89  1240.53  1241.45
eigval :     1248.86  1262.31  1273.90  1275.09  1278.31  1279.23
eigval :     1280.62  1281.14  1286.73  1287.67  1288.27  1296.85
eigval :     1299.27  1316.86  1316.97  1317.71  1317.96  1321.30
eigval :     1330.77  1338.26  1339.17  1339.88  1342.93  1348.56
eigval :     1352.54  1373.39  1387.48  1399.13  1404.13  1405.27
eigval :     1412.34  1418.61  1425.03  1426.93  1427.74  1427.87
eigval :     1428.39  1437.77  1447.21  1447.82  1458.87  1462.58
eigval :     1463.93  1466.31  1484.21  1484.40  1487.09  1488.35
eigval :     1495.00  1517.29  1551.32  1551.88  1556.02  1562.15
eigval :     1565.29  1565.76  1567.03  1571.37  1574.96  1575.04
eigval :     1575.87  1576.09  1582.51  1590.01  1595.61  1595.86
eigval :     1600.69  1604.54  2278.18  2307.71  3068.83  3068.84
eigval :     3069.39  3069.56  3070.80  3071.08  3071.58  3074.24
eigval :     3078.75  3078.77  3079.45  3080.40  3082.41  3082.82
eigval :     3083.23  3084.37  3088.12  3088.24  3089.67  3090.02
eigval :     3090.34  3090.39  3090.91  3092.09  3092.80  3092.84
eigval :     3095.08  3095.19  3097.37  3097.53  3099.24  3099.94
eigval :     3100.81  3102.67  3104.35  3104.75  3110.26  3120.02

   temp. (K)  partition function   enthalpy   heat capacity  entropy
                                   cal/mol     cal/K/mol   cal/K/mol   J/K/mol
 298.15  VIB  0.657E+28            33806.467    209.545    213.650
         ROT  0.349E+09              888.752      2.981     42.071
         INT  0.229E+37            34695.220    212.526    255.721
         TR   0.268E+29             1481.254      4.968     46.296
         TOT                       36176.4736   217.4941   302.0168  1263.6385

       T/K    H(0)-H(T)+PV         H(T)/Eh          T*S/Eh         G(T)/Eh
   ------------------------------------------------------------------------
    298.15    0.576509E-01    0.875169E+00    0.143498E+00    0.731671E+00
   ------------------------------------------------------------------------

         :::::::::::::::::::::::::::::::::::::::::::::::::::::
         ::                  THERMODYNAMIC                  ::
         :::::::::::::::::::::::::::::::::::::::::::::::::::::
         :: total free energy        -177.563535322545 Eh   ::
         ::.................................................::
         :: total energy             -178.295206481012 Eh   ::
         :: zero point energy           0.817518225568 Eh   ::
         :: G(RRHO) w/o ZPVE           -0.085847067101 Eh   ::
         :: G(RRHO) contrib.            0.731671158467 Eh   ::
         :::::::::::::::::::::::::::::::::::::::::::::::::::::

           -------------------------------------------------
          | TOTAL ENERGY             -178.295206481012 Eh   |
          | TOTAL ENTHALPY           -177.420037375150 Eh   |
          | TOTAL FREE ENERGY        -177.563535322545 Eh   |
          | GRADIENT NORM               0.000119036107 Eh/α |
          | HOMO-LUMO GAP               0.139496126427 eV   |
           -------------------------------------------------

 * finished run on 2025/07/16 at 12:59:51.043
