   * xtb version 6.7.1 (edcfbbe) compiled by 'albert@albert-system' on 2024-07-22

   ID    Z sym.   atoms
    1    7 N      1, 4, 10, 40, 69, 72
    2    6 C      2, 3, 5-9, 11-39, 41-68, 70, 71
    3    1 H      73-110

          program call               : xtb data2507/toluene/DDPhCz-DCPP/DDPhCz-DCPP_toluene_S0_crest.xyz --gfn 2 --gbsa toluene --ohess vtight --parallel 40 --molden --ceasefiles --namespace data2507/toluene/DDPhCz-DCPP/DDPhCz-DCPP_toluene_S0_finalOpt
      * Solvation model:               GBSA
        Solvent                        toluene
        Solvent mass                       9.2140E+01 g/mol
          :  Hamiltonian                  GFN2-xTB          :
 * total energy  :  -178.3486444 Eh     change       -0.3618652E-08 Eh
 * total energy  :  -178.3487208 Eh     change       -0.7640673E-04 Eh
 * total energy  :  -178.3487096 Eh     change        0.1126881E-04 Eh
 * total energy  :  -178.3487834 Eh     change       -0.7379500E-04 Eh
 * total energy  :  -178.3487701 Eh     change        0.1321235E-04 Eh
 * total energy  :  -178.3488236 Eh     change       -0.5341056E-04 Eh
 * total energy  :  -178.3488587 Eh     change       -0.3513994E-04 Eh
 * total energy  :  -178.3488978 Eh     change       -0.3910135E-04 Eh
 * total energy  :  -178.3489184 Eh     change       -0.2057533E-04 Eh
 * total energy  :  -178.3489264 Eh     change       -0.8043552E-05 Eh
 * total energy  :  -178.3489835 Eh     change       -0.1323734E-05 Eh
 * total energy  :  -178.3489844 Eh     change       -0.9122846E-06 Eh
 * total energy  :  -178.3489847 Eh     change       -0.3519221E-06 Eh
 * total energy  :  -178.3489849 Eh     change       -0.2084629E-06 Eh
 * total energy  :  -178.3489851 Eh     change       -0.1626523E-06 Eh
 * total energy  :  -178.3489852 Eh     change       -0.1376739E-06 Eh
 * total energy  :  -178.3489854 Eh     change       -0.1217518E-06 Eh
 * total energy  :  -178.3489855 Eh     change       -0.1132618E-06 Eh
 * total energy  :  -178.3489856 Eh     change       -0.8706360E-07 Eh
   *** GEOMETRY OPTIMIZATION CONVERGED AFTER 61 ITERATIONS ***

 final structure:
================
110
 xtb: 6.7.1 (edcfbbe)
N            1.60375621346578        9.86291310566132        1.67389347487694
C            1.10345953780130        8.84311919075088        1.51518328393553
C            0.44023314984241        7.60725875414139        1.32668959303801
N            1.15783679651621        6.52047259469561        1.08859834903064
C            0.51732496918648        5.36568876012115        0.90737131024569
C            1.27738627400912        4.17473465851547        0.66079407878856
C            2.67924446003773        4.22105821754948        0.66499377254712
C            3.42525702669425        3.08858748774048        0.46433476673204
C            2.77854559671689        1.86518363539714        0.23604655908976
N            3.51055223673071        0.69611651973386        0.05942421508767
C            3.22998743540467       -0.52509056672767        0.65486406232774
C            2.26392217661936       -0.85842565734290        1.59334853721769
C            2.22596925360540       -2.15945921604329        2.05364012187695
C            3.12631055968640       -3.13501072890715        1.60775974072042
C            3.02742537581135       -4.51586238299590        2.10721203073186
C            2.76769805541737       -4.77517434630557        3.45151232839312
C            2.67828079207758       -6.07517567434119        3.91406578834740
C            2.84185265280522       -7.13852758746014        3.04139727726636
C            3.09760793853844       -6.89304604973722        1.70205821061941
C            3.19085690418590       -5.59354926809602        1.23885058797693
C            4.11877824170682       -2.78452928057649        0.69963298744570
C            4.17906078110416       -1.48146471233576        0.23164469388295
C            5.07650842628429       -0.79978603982514       -0.66353804722346
C            6.17934512947241       -1.21586912771539       -1.39176981590677
C            6.84241163942565       -0.30148792441721       -2.20174088313082
C            8.03079756143326       -0.71097765933195       -2.96693355912105
C            8.07122517191364       -1.94457106290022       -3.61388676821081
C            9.19209455170127       -2.33143468012011       -4.32516550717901
C           10.29366154294212       -1.49485631002652       -4.39961196584541
C           10.26516090462118       -0.26637416370794       -3.76018255660915
C            9.14314034917588        0.12395616927836       -3.05251409594179
C            6.36649621893666        1.01321281292993       -2.28984303530803
C            5.26432018446594        1.44548826549126       -1.57889737620820
C            4.63299461475653        0.53934123680797       -0.73908708391751
C            1.39044409764505        1.81621322850939        0.20586632509533
C            0.61091974255395        2.95036133032837        0.42805567567037
C           -0.84351261925985        2.89884610496197        0.45178072097062
C           -1.54863884835512        1.71984675909941        0.21689188508552
C           -2.93468557662106        1.66635061111546        0.30093934463008
N           -3.58731930278450        0.45626697305469        0.09670115553667
C           -4.72564506603171        0.25259388103985       -0.66853104137507
C           -5.46439073673633        1.14963840040249       -1.42636056281024
C           -6.55649966307296        0.66805389435359       -2.12109035564783
C           -6.91777534836193       -0.68522215938925       -2.09788805727023
C           -8.09791546657444       -1.14753431421246       -2.84572908525007
C           -9.28097858640149       -0.41143062358142       -2.83223947900480
C          -10.39283897437052       -0.85086843666715       -3.52710873110016
C          -10.34057658598919       -2.03030276512467       -4.25174943654201
C           -9.16859716482402       -2.76839215957413       -4.27565135729800
C           -8.05735685924876       -2.33267931120195       -3.57752890691817
C           -6.14712453358708       -1.58648574365223       -1.37295783682314
C           -5.05203740604387       -1.12197352001629       -0.66241184830296
C           -4.06315954661648       -1.77764453976768        0.15259083604665
C           -3.87007609540523       -3.09830097863936        0.52743399276097
C           -2.80243660759634       -3.41826969918397        1.35762911646375
C           -2.54622299517744       -4.81177015327481        1.75422037138402
C           -1.24427961312772       -5.30787881440871        1.78955177145768
C           -0.99727816611284       -6.61545420495298        2.16444988521443
C           -2.04702930334360       -7.44890937179181        2.51404029114792
C           -3.34561309953355       -6.96719550817153        2.48204205076695
C           -3.59436746345104       -5.66065382050737        2.10357664300661
C           -1.96870408009439       -2.39769837867874        1.83220273594894
C           -2.14804379579303       -1.07654869510512        1.47588386749384
C           -3.18042903955719       -0.77077803280389        0.60047515549529
C           -3.65645468736702        2.82962678726357        0.60602544788767
C           -2.98596398779333        4.00785520994631        0.80969230361110
C           -1.58630975155884        4.06653437362591        0.73890667716083
C           -0.90559292517900        5.30909367080532        0.95980449011671
N           -1.61980057610785        6.40700519997143        1.20803128083124
C           -0.97505591350399        7.54778240508941        1.39530691062505
C           -1.71754720230259        8.72195481578824        1.66511808068257
N           -2.28368754230121        9.69449720642985        1.88646420604683
H            3.15433392428055        5.17107669387270        0.85374565814930
H            4.50187320282764        3.12601983532613        0.51292489896611
H            1.56961606446325       -0.12561628641955        1.97421174417900
H            1.46897367859236       -2.43879454038361        2.77080914045860
H            2.65665502262164       -3.95227812911170        4.14295660307131
H            2.48040698303896       -6.26063664789177        4.96021994722742
H            2.76941535790779       -8.15403122831857        3.40350033237480
H            3.22072856401663       -7.71827534138607        1.01485580259897
H            3.37306087068815       -5.40922224302963        0.18974287406647
H            4.85154155366100       -3.51134256606176        0.38357384392778
H            6.52971322623599       -2.23382887781953       -1.31510105571699
H            7.20955620240821       -2.59542150920881       -3.57432053843046
H            9.20643277631083       -3.28905836679390       -4.82608469263807
H           11.17001386658848       -1.79841014558100       -4.95370984210914
H           11.12280526022084        0.38932079350713       -3.81161158254108
H            9.13518075216398        1.07645769853756       -2.54222045933697
H            6.86450517044335        1.70383312136913       -2.95413391561084
H            4.90487093847300        2.45662492112466       -1.69282571599718
H            0.92770532641953        0.86821344444910       -0.00998987900750
H           -1.02874925451123        0.81846004866893       -0.05973776648049
H           -5.19483365185058        2.19249691476800       -1.49135489484050
H           -7.13756314173856        1.35186731950721       -2.72199570845526
H           -9.33439115291196        0.50083822637851       -2.25544179029994
H          -11.30537166584470       -0.27222192333892       -3.50180630333735
H          -11.20929173973015       -2.37234846756189       -4.79546292840449
H           -9.12017494626006       -3.68687123658989       -4.84330128724787
H           -7.14141276810906       -2.90491618074378       -3.61418398410442
H           -6.40639588185414       -2.63394144515380       -1.34947795590526
H           -4.53218485758187       -3.86948693469606        0.16449924194270
H           -0.42081460058927       -4.67075529224452        1.50135588136972
H            0.01866990696236       -6.98254322396634        2.18339813417852
H           -1.85447211485057       -8.47001703484323        2.80991633125472
H           -4.16813310684083       -7.61234219782968        2.75677764744719
H           -4.60818237612646       -5.28652863998864        2.09840540807789
H           -1.17565804729526       -2.65442868140161        2.51781027915640
H           -1.51090483593797       -0.30952032152622        1.88783653659532
H           -4.72930462605049        2.78594693251530        0.70537945492139
H           -3.51974256544689        4.91476799608965        1.04678970303772

          :  Hamiltonian                  GFN2-xTB          :
         :: gradient norm              0.000060846900 Eh/a0 ::
         :: HOMO-LUMO gap              1.074914831277 eV    ::
         :: SCC energy              -181.777584454672 Eh    ::
         :: -> dispersion             -0.163801320000 Eh    ::
         :: -> Gsolv                  -0.080734067253 Eh    ::
         :: repulsion energy           3.428598899152 Eh    ::

    * Orbital Energies and Occupations

         #    Occupation            Energy/Eh            Energy/eV
      -------------------------------------------------------------
         1        2.0000           -0.7183495             -19.5473
       ...           ...                  ...                  ...
       154        2.0000           -0.4051250             -11.0240
       155        2.0000           -0.4042243             -10.9995
       156        2.0000           -0.4040627             -10.9951
       157        2.0000           -0.4032615             -10.9733
       158        2.0000           -0.4031114             -10.9692
       159        2.0000           -0.4017820             -10.9330
       160        2.0000           -0.3956298             -10.7656
       161        2.0000           -0.3944323             -10.7330
       162        2.0000           -0.3903147             -10.6210
       163        2.0000           -0.3834230             -10.4335
       164        2.0000           -0.3828267             -10.4172
       165        2.0000           -0.3687800             -10.0350
       166        2.0000           -0.3670043              -9.9867 (HOMO)
       167                         -0.3275020              -8.9118 (LUMO)
       168                         -0.3240127              -8.8168
       169                         -0.2762174              -7.5163
       170                         -0.2732442              -7.4354
       171                         -0.2537143              -6.9039
       172                         -0.2515990              -6.8464
       173                         -0.2484433              -6.7605
       174                         -0.2475910              -6.7373
       175                         -0.2448532              -6.6628
       176                         -0.2444622              -6.6522
       177                         -0.2388357              -6.4990
       ...                                ...                  ...
       326                          1.1458024              31.1789
      -------------------------------------------------------------
                  HL-Gap            0.0395023 Eh            1.0749 eV

     #   Z          covCN         q      C6AA      α(0)
     1   7 N        0.911    -0.227    25.975     7.371
     2   6 C        1.909     0.113    28.317     8.594
     3   6 C        2.952     0.098    25.828     8.336
     4   7 N        1.852    -0.235    27.006     7.702
     5   6 C        2.962     0.088    26.050     8.372
     6   6 C        2.987    -0.009    28.227     8.715
     7   6 C        2.921    -0.023    28.568     8.765
     8   6 C        2.918    -0.039    28.968     8.826
     9   6 C        2.910     0.074    26.355     8.418
    10   7 N        2.800    -0.030    21.815     6.937
    11   6 C        3.069     0.042    26.990     8.519
    12   6 C        2.909    -0.051    29.259     8.870
    13   6 C        2.929    -0.036    28.904     8.817
    14   6 C        2.976     0.002    27.977     8.676
    15   6 C        2.977     0.010    27.782     8.646
    16   6 C        2.924    -0.034    28.858     8.810
    17   6 C        2.918    -0.030    28.744     8.792
    18   6 C        2.920    -0.032    28.790     8.799
    19   6 C        2.918    -0.030    28.754     8.793
    20   6 C        2.925    -0.035    28.861     8.810
    21   6 C        2.918    -0.037    28.914     8.818
    22   6 C        3.062    -0.014    28.292     8.722
    23   6 C        3.063    -0.014    28.302     8.724
    24   6 C        2.918    -0.037    28.919     8.818
    25   6 C        2.976     0.002    27.974     8.676
    26   6 C        2.977     0.010    27.798     8.648
    27   6 C        2.925    -0.035    28.880     8.813
    28   6 C        2.918    -0.031    28.770     8.796
    29   6 C        2.920    -0.033    28.812     8.802
    30   6 C        2.918    -0.031    28.770     8.796
    31   6 C        2.925    -0.035    28.882     8.813
    32   6 C        2.928    -0.037    28.916     8.819
    33   6 C        2.908    -0.050    29.250     8.868
    34   6 C        3.066     0.043    26.970     8.516
    35   6 C        2.926    -0.049    29.221     8.865
    36   6 C        2.976     0.013    27.710     8.635
    37   6 C        2.976     0.013    27.711     8.635
    38   6 C        2.926    -0.049    29.227     8.866
    39   6 C        2.910     0.074    26.353     8.418
    40   7 N        2.800    -0.029    21.803     6.935
    41   6 C        3.066     0.043    26.973     8.516
    42   6 C        2.908    -0.050    29.251     8.868
    43   6 C        2.929    -0.037    28.919     8.819
    44   6 C        2.976     0.002    27.973     8.676
    45   6 C        2.977     0.010    27.797     8.648
    46   6 C        2.925    -0.035    28.881     8.813
    47   6 C        2.918    -0.031    28.771     8.796
    48   6 C        2.920    -0.033    28.812     8.802
    49   6 C        2.918    -0.031    28.769     8.796
    50   6 C        2.925    -0.035    28.879     8.813
    51   6 C        2.918    -0.037    28.919     8.818
    52   6 C        3.064    -0.014    28.297     8.723
    53   6 C        3.061    -0.014    28.294     8.723
    54   6 C        2.918    -0.037    28.912     8.817
    55   6 C        2.976     0.002    27.966     8.675
    56   6 C        2.977     0.010    27.796     8.648
    57   6 C        2.925    -0.035    28.861     8.810
    58   6 C        2.918    -0.030    28.754     8.793
    59   6 C        2.920    -0.032    28.801     8.801
    60   6 C        2.918    -0.031    28.774     8.796
    61   6 C        2.924    -0.036    28.884     8.813
    62   6 C        2.929    -0.036    28.907     8.817
    63   6 C        2.909    -0.051    29.258     8.869
    64   6 C        3.069     0.042    26.996     8.519
    65   6 C        2.918    -0.039    28.971     8.826
    66   6 C        2.921    -0.023    28.569     8.765
    67   6 C        2.987    -0.009    28.230     8.716
    68   6 C        2.962     0.087    26.051     8.372
    69   7 N        1.853    -0.235    27.006     7.702
    70   6 C        2.952     0.098    25.825     8.335
    71   6 C        1.909     0.113    28.315     8.594
    72   7 N        0.911    -0.227    25.970     7.370
    73   1 H        0.926     0.064     2.149     2.293
    74   1 H        0.926     0.062     2.176     2.307
    75   1 H        0.926     0.036     2.508     2.476
    76   1 H        0.926     0.038     2.480     2.463
    77   1 H        0.926     0.031     2.566     2.505
    78   1 H        0.926     0.029     2.595     2.519
    79   1 H        0.926     0.028     2.609     2.526
    80   1 H        0.926     0.029     2.594     2.519
    81   1 H        0.926     0.032     2.557     2.501
    82   1 H        0.926     0.038     2.477     2.461
    83   1 H        0.926     0.039     2.468     2.457
    84   1 H        0.926     0.032     2.552     2.498
    85   1 H        0.926     0.030     2.583     2.513
    86   1 H        0.926     0.029     2.595     2.519
    87   1 H        0.926     0.030     2.589     2.516
    88   1 H        0.926     0.032     2.559     2.502
    89   1 H        0.926     0.037     2.485     2.465
    90   1 H        0.926     0.036     2.501     2.473
    91   1 H        0.926     0.065     2.143     2.289
    92   1 H        0.926     0.065     2.143     2.289
    93   1 H        0.926     0.036     2.498     2.472
    94   1 H        0.926     0.037     2.485     2.465
    95   1 H        0.926     0.032     2.559     2.502
    96   1 H        0.926     0.030     2.588     2.516
    97   1 H        0.926     0.029     2.595     2.519
    98   1 H        0.926     0.030     2.584     2.514
    99   1 H        0.926     0.032     2.553     2.498
   100   1 H        0.926     0.039     2.468     2.457
   101   1 H        0.926     0.038     2.472     2.458
   102   1 H        0.926     0.031     2.568     2.506
   103   1 H        0.926     0.029     2.596     2.520
   104   1 H        0.926     0.029     2.599     2.521
   105   1 H        0.926     0.030     2.587     2.515
   106   1 H        0.926     0.032     2.557     2.501
   107   1 H        0.926     0.038     2.472     2.459
   108   1 H        0.926     0.036     2.500     2.473
   109   1 H        0.926     0.062     2.174     2.306
   110   1 H        0.926     0.064     2.149     2.293

molecular dipole:
                 x           y           z       tot (Debye)
 q only:        0.139      -4.368      -0.796
   full:        0.179      -4.774      -0.885      12.350

 projected vibrational frequencies (cm⁻¹)
eigval :       -0.00    -0.00    -0.00     0.00     0.00     0.00
eigval :        6.04     8.42    12.68    17.20    18.07    22.35
eigval :       24.31    30.10    38.01    38.98    40.04    42.25
eigval :       48.68    50.90    58.35    61.02    61.56    68.93
eigval :       73.33    86.83    88.34    95.37    97.47   100.16
eigval :      114.94   117.47   130.49   133.51   135.50   141.93
eigval :      149.35   161.11   162.99   176.38   183.65   190.78
eigval :      219.09   222.10   240.34   243.04   244.90   250.97
eigval :      262.47   272.59   274.32   285.08   297.49   303.88
eigval :      311.52   323.12   327.19   340.87   367.05   369.68
eigval :      374.46   375.61   376.29   377.47   381.77   385.85
eigval :      393.46   395.10   397.70   397.76   400.66   412.28
eigval :      427.48   429.29   434.51   438.53   448.57   460.63
eigval :      463.12   474.56   479.03   481.42   484.23   493.81
eigval :      502.74   504.83   524.08   535.02   539.17   551.88
eigval :      554.51   559.80   568.55   572.85   574.34   586.10
eigval :      586.79   590.73   591.63   593.67   595.69   603.31
eigval :      614.25   622.67   623.84   625.66   628.48   637.08
eigval :      646.00   652.28   658.52   668.67   670.02   673.40
eigval :      674.85   684.63   687.39   687.44   692.28   704.77
eigval :      707.48   708.85   713.01   714.76   737.34   740.28
eigval :      742.21   754.92   757.58   757.68   758.03   758.92
eigval :      763.52   814.87   821.19   822.74   824.49   826.67
eigval :      841.28   844.87   859.36   865.37   866.92   871.29
eigval :      873.50   874.03   875.32   879.16   880.80   881.84
eigval :      884.33   891.68   900.77   901.44   901.93   905.75
eigval :      906.64   908.65   908.99   913.65   914.45   914.73
eigval :      922.49   929.56   930.47   931.38   931.68   932.64
eigval :      932.76   934.33   934.51   937.18   941.80   964.68
eigval :      971.14   971.42   980.53   981.57  1010.00  1026.45
eigval :     1028.07  1042.59  1064.29  1071.50  1072.10  1072.43
eigval :     1073.12  1085.26  1086.20  1086.40  1087.08  1120.68
eigval :     1121.40  1121.45  1121.96  1128.02  1135.59  1143.07
eigval :     1144.36  1156.41  1159.90  1161.59  1180.82  1182.79
eigval :     1182.94  1183.39  1184.88  1190.30  1200.27  1200.88
eigval :     1201.87  1202.77  1216.37  1217.25  1218.32  1219.52
eigval :     1225.77  1228.06  1243.60  1244.58  1260.45  1270.53
eigval :     1274.36  1277.80  1280.44  1281.15  1281.63  1282.05
eigval :     1282.97  1300.55  1301.55  1303.15  1303.28  1316.50
eigval :     1316.55  1317.65  1318.00  1329.02  1334.21  1342.09
eigval :     1343.49  1345.18  1351.06  1355.10  1356.11  1357.44
eigval :     1393.17  1401.54  1405.37  1406.99  1414.41  1422.73
eigval :     1423.82  1428.79  1429.03  1431.50  1431.53  1437.37
eigval :     1454.51  1455.80  1458.42  1459.61  1465.90  1466.58
eigval :     1481.72  1489.77  1491.61  1492.28  1494.43  1495.06
eigval :     1529.70  1539.38  1563.33  1563.71  1570.46  1572.06
eigval :     1573.74  1580.80  1581.02  1581.61  1582.36  1584.00
eigval :     1591.09  1591.22  1596.09  1596.16  1601.04  1601.20
eigval :     1609.98  1610.49  2355.87  2357.91  3065.19  3065.68
eigval :     3065.74  3065.85  3067.00  3067.28  3067.68  3070.72
eigval :     3074.98  3075.17  3075.43  3076.21  3078.49  3078.69
eigval :     3079.00  3080.30  3082.83  3082.83  3084.62  3085.13
eigval :     3087.02  3087.55  3087.69  3089.30  3089.47  3089.95
eigval :     3091.67  3092.06  3095.14  3095.24  3096.69  3097.82
eigval :     3102.02  3102.44  3112.35  3113.02  3121.26  3130.73

   temp. (K)  partition function   enthalpy   heat capacity  entropy
                                   cal/mol     cal/K/mol   cal/K/mol   J/K/mol
 298.15  VIB  0.225E+28            33549.433    207.671    211.377
         ROT  0.349E+09              888.752      2.981     42.070
         INT  0.784E+36            34438.185    210.651    253.447
         TR   0.268E+29             1481.254      4.968     46.296
         TOT                       35919.4392   215.6196   299.7429  1254.1241

       T/K    H(0)-H(T)+PV         H(T)/Eh          T*S/Eh         G(T)/Eh
   ------------------------------------------------------------------------
    298.15    0.572413E-01    0.879423E+00    0.142418E+00    0.737006E+00
   ------------------------------------------------------------------------

         :::::::::::::::::::::::::::::::::::::::::::::::::::::
         ::                  THERMODYNAMIC                  ::
         :::::::::::::::::::::::::::::::::::::::::::::::::::::
         :: total free energy        -177.611979640817 Eh   ::
         ::.................................................::
         :: total energy             -178.348985548568 Eh   ::
         :: zero point energy           0.822182140268 Eh   ::
         :: G(RRHO) w/o ZPVE           -0.085176232517 Eh   ::
         :: G(RRHO) contrib.            0.737005907751 Eh   ::
         :::::::::::::::::::::::::::::::::::::::::::::::::::::

           -------------------------------------------------
          | TOTAL ENERGY             -178.348985548568 Eh   |
          | TOTAL ENTHALPY           -177.469562138302 Eh   |
          | TOTAL FREE ENERGY        -177.611979640817 Eh   |
          | GRADIENT NORM               0.000060875193 Eh/α |
          | HOMO-LUMO GAP               1.074913523503 eV   |
           -------------------------------------------------

 * finished run on 2025/07/16 at 12:48:21.862
