   * xtb version 6.7.1 (edcfbbe) compiled by 'albert@albert-system' on 2024-07-22

   ID    Z sym.   atoms
    1    7 N      1, 4, 10, 40, 69, 72
    2    6 C      2, 3, 5-9, 11-39, 41-68, 70, 71
    3    1 H      73-110

          program call               : xtb data2507/toluene/DDPhCz-DCPP/DDPhCz-DCPP.xyz --gfn 2 --gbsa toluene --ohess vtight --parallel 40 --molden --ceasefiles --namespace data2507/toluene/DDPhCz-DCPP/DDPhCz-DCPP_toluene_S0_preOpt
      * Solvation model:               GBSA
        Solvent                        toluene
        Solvent mass                       9.2140E+01 g/mol
          :  Hamiltonian                  GFN2-xTB          :
 * total energy  :  -178.3156922 Eh     change       -0.5206118E-08 Eh
 * total energy  :  -178.3378844 Eh     change       -0.2219217E-01 Eh
 * total energy  :  -178.3438929 Eh     change       -0.6008564E-02 Eh
 * total energy  :  -178.3456732 Eh     change       -0.1780229E-02 Eh
 * total energy  :  -178.3464707 Eh     change       -0.7975109E-03 Eh
 * total energy  :  -178.3461978 Eh     change        0.2728571E-03 Eh
 * total energy  :  -178.3470146 Eh     change       -0.8167428E-03 Eh
 * total energy  :  -178.3471605 Eh     change       -0.1458880E-03 Eh
 * total energy  :  -178.3473958 Eh     change       -0.2353762E-03 Eh
 * total energy  :  -178.3477131 Eh     change       -0.3172267E-03 Eh
 * total energy  :  -178.3490391 Eh     change       -0.3048875E-06 Eh
 * total energy  :  -178.3490394 Eh     change       -0.3346472E-06 Eh
 * total energy  :  -178.3490397 Eh     change       -0.2792576E-06 Eh
 * total energy  :  -178.3490399 Eh     change       -0.2004094E-06 Eh
 * total energy  :  -178.3490401 Eh     change       -0.2233814E-06 Eh
 * total energy  :  -178.3490404 Eh     change       -0.2505223E-06 Eh
 * total energy  :  -178.3490406 Eh     change       -0.2197513E-06 Eh
 * total energy  :  -178.3490407 Eh     change       -0.1319145E-06 Eh
 * total energy  :  -178.3490408 Eh     change       -0.9532062E-07 Eh
   *** GEOMETRY OPTIMIZATION CONVERGED AFTER 86 ITERATIONS ***

 final structure:
================
110
 xtb: 6.7.1 (edcfbbe)
N            2.06122051037811       10.18720285285832        2.92147844193101
C            1.51223315778898        9.22346994769881        2.62955546834773
C            0.79120401296091        8.05879003626784        2.27412119154743
N            1.45783989730989        6.95243786361997        1.98414186523519
C            0.76436985728665        5.86368896763651        1.65191747263134
C            1.46886659080137        4.65658196888452        1.33050151257065
C            2.86985915251703        4.62339394781492        1.38865926900017
C            3.56292435663951        3.47744238863097        1.09615919530803
C            2.86286455742897        2.32229307300409        0.71848518474413
N            3.54267383926366        1.14592492880692        0.42170300034502
C            3.18386189690816       -0.12415405975649        0.84837928205743
C            2.18186149469932       -0.52123632043925        1.72218957606042
C            2.06008315330555       -1.86750678540759        2.00286598800644
C            2.91267705308435       -2.82667767229482        1.44206378207009
C            2.72313828867054       -4.25332098461316        1.74981560237196
C            2.41872399141391       -4.67293735804602        3.04326034276071
C            2.24129007896126       -6.01488318642252        3.32556569034605
C            2.35914120737323       -6.96067172727428        2.31997962655781
C            2.65866898285370       -6.55509362669591        1.02956473955717
C            2.84167030459950       -5.21403623918753        0.74712996900131
C            3.94192292726022       -2.41806127862779        0.60167855740546
C            4.08566474811342       -1.07021658282252        0.31319834825047
C            5.03373940731142       -0.33084964578409       -0.47810298836198
C            6.11702561386065       -0.71239794993653       -1.25341865199070
C            6.83522549339398        0.25877431096189       -1.94086844453065
C            7.99345365364779       -0.11503938301224       -2.76808029794187
C            7.95104833711421       -1.24717665033560       -3.57939656652428
C            9.03737319740549       -1.59634078762613       -4.36031781670551
C           10.18665738056736       -0.82328264714391       -4.34116659696819
C           10.24145909725078        0.30270758788919       -3.53619402090034
C            9.15415043270977        0.65584229260705       -2.75831214790402
C            6.43704535073535        1.59927712394304       -1.85700489496729
C            5.35669578094883        1.99913531416202       -1.09560020037134
C            4.66663089741169        1.02988024734584       -0.38209841504955
C            1.47562636086305        2.35051729284336        0.64867789619854
C            0.74835865967122        3.49781846402530        0.96209931310553
C           -0.70671412633453        3.52602179525391        0.93358275241679
C           -1.46441464543065        2.40468589408652        0.60070580615902
C           -2.85363609554718        2.42783763397042        0.61865874394949
N           -3.56081348629995        1.27008473610697        0.31477736432698
C           -4.65574045252723        1.17028619289002       -0.53018068922283
C           -5.30025892722744        2.14712019275418       -1.27512607738247
C           -6.35871735705692        1.76230095031011       -2.07424063605330
C           -6.77851393701471        0.42889881111050       -2.16502232694826
C           -7.91025688272351        0.07028159227976       -3.03457370481580
C           -9.05490349120042        0.86368880038947       -3.07788547992735
C          -10.11634840980018        0.52580257061762       -3.89720389422658
C          -10.05108020696726       -0.60742766537506       -4.69113987523950
C           -8.91791065317388       -1.40343214797983       -4.65692851203762
C           -7.85761411804189       -1.06945196418597       -3.83468601108282
C           -6.10533085957878       -0.55054044608651       -1.44442796866826
C           -5.04545051894979       -0.18409232717301       -0.63063416654446
C           -4.14485598450887       -0.93589772218060        0.20350503047544
C           -4.03871454046008       -2.28419009215938        0.50809568357886
C           -3.03991413274830       -2.70619882521151        1.37738015951135
C           -2.87285979452798       -4.13280865058203        1.69694001790257
C           -1.60057944160135       -4.69867732319318        1.75448597595112
C           -1.43763462466079       -6.03885143345039        2.05236475631579
C           -2.54291852811933       -6.83518230877540        2.30321185320208
C           -3.81268761922552       -6.28367108821512        2.24928344342808
C           -3.97743784219408       -4.94458558575508        1.94605905620065
C           -2.18897060030813       -1.75951009636850        1.96168267083661
C           -2.28349911716373       -0.41218540373541        1.67789136960359
C           -3.24516232206470       -0.00360778057395        0.76469339298327
C           -3.52363559121694        3.61296034976368        0.95535723241345
C           -2.79918305364510        4.73495137925565        1.26485495151452
C           -1.39664953035260        4.71397880257447        1.26629716323142
C           -0.65973919934474        5.89375484868535        1.61468324343991
N           -1.32273581940088        7.01373855327929        1.90301585454206
C           -0.62593152100146        8.09104259216840        2.22893675217972
C           -1.31370129224608        9.28978609716850        2.53371967842901
N           -1.83472133706412       10.27964561930059        2.78684057591572
H            3.38613903204279        5.52245833787113        1.68672783181138
H            4.63761630819601        3.45033500741885        1.18128241163301
H            1.52173244731201        0.19441359920665        2.18716887891797
H            1.27314734919401       -2.19450211873772        2.66559872024389
H            2.34135446366838       -3.94444199788759        3.83750979125600
H            2.00943301969833       -6.32515202653581        4.33461013516060
H            2.21736341058947       -8.00895352170330        2.54089990423229
H            2.74701881205399       -7.28741635647255        0.23960090220613
H            3.05878128917889       -4.90342033968790       -0.26482318172951
H            4.63819792532337       -3.13794853734457        0.19929095618725
H            6.40735897402740       -1.75045935622586       -1.30974783650271
H            7.05138132356558       -1.84478799791384       -3.61285998497493
H            8.98701059362262       -2.47404517964923       -4.98900518206041
H           11.03577247977234       -1.09701013383742       -4.95049700425981
H           11.13688629403259        0.90756410177791       -3.51363882847653
H            9.21051731038398        1.52694105691418       -2.12132643869032
H            6.97787569042414        2.33970653625342       -2.42751206809931
H            5.05669574686287        3.03551638008907       -1.07854084449568
H            0.97242905470380        1.45657906306868        0.32134974292074
H           -0.98343342457896        1.48941983761832        0.30015552640049
H           -4.98161251482675        3.17778985538447       -1.25362887652614
H           -6.86331331945771        2.50886306894978       -2.66943514630246
H           -9.11978221608148        1.74084880015955       -2.45010032210457
H          -10.99970250850713        1.14830545422725       -3.91587616302651
H          -10.87917873403383       -0.86895644643342       -5.33374640207670
H           -8.85958723987361       -2.28713114732037       -5.27648100435791
H           -6.96954139493819       -1.68506093105712       -3.82696031896588
H           -6.41198529142377       -1.58352456217064       -1.50646664603113
H           -4.71323987671201       -2.99825175248551        0.06090070568947
H           -0.73352400164846       -4.09004321107019        1.54226768553862
H           -0.44372885802787       -6.46064752348808        2.08775138313632
H           -2.41552893436538       -7.88170147099993        2.53934534305165
H           -4.67833901724912       -6.89987100442323        2.44733512490545
H           -4.96965746980127       -4.51697836678532        1.92191288458814
H           -1.45237503335996       -2.09616513782818        2.67533095901390
H           -1.63691753834238        0.29649334803790        2.17184933879738
H           -4.60103025543048        3.62749517043522        0.99784367003981
H           -3.29225255870609        5.65588522814474        1.53431489346350

          :  Hamiltonian                  GFN2-xTB          :
         :: gradient norm              0.000034105074 Eh/a0 ::
         :: HOMO-LUMO gap              1.073413686057 eV    ::
         :: SCC energy              -181.777689317726 Eh    ::
         :: -> dispersion             -0.163811628927 Eh    ::
         :: -> Gsolv                  -0.080719204800 Eh    ::
         :: repulsion energy           3.428648496664 Eh    ::

    * Orbital Energies and Occupations

         #    Occupation            Energy/Eh            Energy/eV
      -------------------------------------------------------------
         1        2.0000           -0.7183976             -19.5486
       ...           ...                  ...                  ...
       154        2.0000           -0.4051496             -11.0247
       155        2.0000           -0.4042492             -11.0002
       156        2.0000           -0.4040556             -10.9949
       157        2.0000           -0.4032390             -10.9727
       158        2.0000           -0.4030571             -10.9677
       159        2.0000           -0.4017403             -10.9319
       160        2.0000           -0.3956210             -10.7654
       161        2.0000           -0.3944692             -10.7341
       162        2.0000           -0.3903482             -10.6219
       163        2.0000           -0.3834098             -10.4331
       164        2.0000           -0.3828523             -10.4179
       165        2.0000           -0.3687968             -10.0355
       166        2.0000           -0.3670020              -9.9866 (HOMO)
       167                         -0.3275547              -8.9132 (LUMO)
       168                         -0.3240566              -8.8180
       169                         -0.2762595              -7.5174
       170                         -0.2732737              -7.4362
       171                         -0.2536791              -6.9030
       172                         -0.2516178              -6.8469
       173                         -0.2484247              -6.7600
       174                         -0.2474873              -6.7345
       175                         -0.2448721              -6.6633
       176                         -0.2444319              -6.6513
       177                         -0.2388734              -6.5001
       ...                                ...                  ...
       326                          1.1458425              31.1800
      -------------------------------------------------------------
                  HL-Gap            0.0394473 Eh            1.0734 eV

     #   Z          covCN         q      C6AA      α(0)
     1   7 N        0.911    -0.227    25.971     7.371
     2   6 C        1.909     0.113    28.316     8.594
     3   6 C        2.952     0.098    25.827     8.335
     4   7 N        1.853    -0.235    27.004     7.702
     5   6 C        2.962     0.088    26.050     8.372
     6   6 C        2.987    -0.009    28.226     8.715
     7   6 C        2.921    -0.023    28.569     8.765
     8   6 C        2.918    -0.039    28.967     8.826
     9   6 C        2.910     0.074    26.354     8.418
    10   7 N        2.800    -0.030    21.817     6.937
    11   6 C        3.068     0.042    26.989     8.519
    12   6 C        2.909    -0.051    29.260     8.870
    13   6 C        2.929    -0.036    28.905     8.817
    14   6 C        2.976     0.002    27.977     8.676
    15   6 C        2.977     0.010    27.781     8.646
    16   6 C        2.924    -0.034    28.856     8.809
    17   6 C        2.918    -0.030    28.740     8.791
    18   6 C        2.920    -0.032    28.792     8.799
    19   6 C        2.918    -0.030    28.753     8.793
    20   6 C        2.925    -0.035    28.860     8.810
    21   6 C        2.918    -0.037    28.914     8.818
    22   6 C        3.062    -0.014    28.293     8.723
    23   6 C        3.063    -0.014    28.302     8.724
    24   6 C        2.918    -0.037    28.919     8.818
    25   6 C        2.976     0.002    27.974     8.676
    26   6 C        2.977     0.010    27.798     8.648
    27   6 C        2.925    -0.035    28.879     8.813
    28   6 C        2.918    -0.031    28.770     8.796
    29   6 C        2.920    -0.033    28.812     8.802
    30   6 C        2.918    -0.031    28.770     8.796
    31   6 C        2.925    -0.035    28.881     8.813
    32   6 C        2.929    -0.037    28.916     8.819
    33   6 C        2.908    -0.050    29.252     8.869
    34   6 C        3.067     0.043    26.970     8.516
    35   6 C        2.926    -0.049    29.219     8.865
    36   6 C        2.976     0.013    27.709     8.635
    37   6 C        2.976     0.013    27.711     8.635
    38   6 C        2.926    -0.049    29.222     8.865
    39   6 C        2.910     0.074    26.353     8.418
    40   7 N        2.800    -0.029    21.810     6.936
    41   6 C        3.066     0.043    26.971     8.516
    42   6 C        2.908    -0.050    29.253     8.869
    43   6 C        2.929    -0.037    28.918     8.819
    44   6 C        2.976     0.002    27.974     8.676
    45   6 C        2.977     0.010    27.797     8.648
    46   6 C        2.925    -0.035    28.882     8.813
    47   6 C        2.918    -0.031    28.771     8.796
    48   6 C        2.920    -0.033    28.813     8.802
    49   6 C        2.918    -0.031    28.770     8.796
    50   6 C        2.925    -0.035    28.879     8.813
    51   6 C        2.918    -0.037    28.919     8.818
    52   6 C        3.064    -0.014    28.298     8.723
    53   6 C        3.061    -0.014    28.294     8.723
    54   6 C        2.918    -0.037    28.912     8.817
    55   6 C        2.976     0.002    27.965     8.674
    56   6 C        2.977     0.010    27.796     8.648
    57   6 C        2.925    -0.035    28.860     8.810
    58   6 C        2.918    -0.031    28.763     8.795
    59   6 C        2.920    -0.032    28.802     8.801
    60   6 C        2.918    -0.031    28.774     8.796
    61   6 C        2.924    -0.035    28.884     8.813
    62   6 C        2.929    -0.036    28.903     8.817
    63   6 C        2.909    -0.051    29.257     8.869
    64   6 C        3.069     0.042    26.995     8.519
    65   6 C        2.918    -0.039    28.968     8.826
    66   6 C        2.921    -0.023    28.568     8.765
    67   6 C        2.987    -0.009    28.229     8.715
    68   6 C        2.962     0.087    26.051     8.372
    69   7 N        1.853    -0.235    27.005     7.702
    70   6 C        2.952     0.098    25.825     8.335
    71   6 C        1.909     0.113    28.315     8.594
    72   7 N        0.911    -0.227    25.969     7.370
    73   1 H        0.926     0.064     2.148     2.292
    74   1 H        0.926     0.062     2.175     2.306
    75   1 H        0.926     0.036     2.505     2.475
    76   1 H        0.926     0.038     2.478     2.462
    77   1 H        0.926     0.032     2.564     2.504
    78   1 H        0.926     0.029     2.593     2.518
    79   1 H        0.926     0.028     2.611     2.527
    80   1 H        0.926     0.030     2.592     2.518
    81   1 H        0.926     0.032     2.558     2.501
    82   1 H        0.926     0.038     2.477     2.461
    83   1 H        0.926     0.039     2.468     2.457
    84   1 H        0.926     0.032     2.553     2.499
    85   1 H        0.926     0.030     2.583     2.513
    86   1 H        0.926     0.029     2.595     2.519
    87   1 H        0.926     0.030     2.588     2.516
    88   1 H        0.926     0.032     2.559     2.502
    89   1 H        0.926     0.037     2.486     2.465
    90   1 H        0.926     0.036     2.502     2.473
    91   1 H        0.926     0.065     2.145     2.291
    92   1 H        0.926     0.065     2.144     2.290
    93   1 H        0.926     0.036     2.499     2.472
    94   1 H        0.926     0.037     2.485     2.465
    95   1 H        0.926     0.032     2.558     2.501
    96   1 H        0.926     0.030     2.588     2.516
    97   1 H        0.926     0.029     2.595     2.519
    98   1 H        0.926     0.030     2.584     2.514
    99   1 H        0.926     0.032     2.553     2.498
   100   1 H        0.926     0.039     2.468     2.457
   101   1 H        0.926     0.038     2.473     2.459
   102   1 H        0.926     0.031     2.572     2.508
   103   1 H        0.926     0.030     2.588     2.516
   104   1 H        0.926     0.029     2.600     2.521
   105   1 H        0.926     0.030     2.588     2.516
   106   1 H        0.926     0.032     2.560     2.502
   107   1 H        0.926     0.038     2.479     2.462
   108   1 H        0.926     0.036     2.504     2.474
   109   1 H        0.926     0.062     2.174     2.305
   110   1 H        0.926     0.064     2.148     2.292

molecular dipole:
                 x           y           z       tot (Debye)
 q only:       -0.054      -4.273      -1.165
   full:       -0.036      -4.674      -1.300      12.331

 projected vibrational frequencies (cm⁻¹)
eigval :       -0.00    -0.00    -0.00    -0.00    -0.00     0.00
eigval :        7.19    10.28    14.36    15.68    18.99    23.95
eigval :       25.19    37.39    40.13    43.18    43.93    45.99
eigval :       48.05    54.63    57.01    61.01    62.89    66.94
eigval :       72.65    85.78    87.37    93.62    97.54    99.91
eigval :      114.52   116.74   130.80   133.74   135.38   141.69
eigval :      149.16   160.42   161.68   175.47   182.70   190.17
eigval :      219.15   221.20   240.30   242.99   246.25   251.55
eigval :      262.26   272.69   274.06   284.95   296.99   305.07
eigval :      310.78   323.10   327.69   340.17   367.55   369.77
eigval :      371.91   372.65   373.51   375.22   381.89   385.83
eigval :      392.15   395.32   397.02   398.00   400.35   412.10
eigval :      427.11   429.58   434.61   438.45   448.52   460.11
eigval :      463.85   474.86   478.76   481.47   484.31   495.02
eigval :      503.41   505.62   523.69   535.37   539.21   551.68
eigval :      554.07   559.74   567.92   572.77   573.82   585.80
eigval :      586.67   590.75   591.58   593.68   595.68   603.55
eigval :      614.26   622.49   624.60   626.50   627.61   637.11
eigval :      645.33   652.17   658.58   667.55   671.34   673.97
eigval :      674.45   684.67   686.79   687.21   691.64   704.79
eigval :      707.27   707.68   712.42   714.73   737.58   740.27
eigval :      742.22   755.99   758.58   759.43   759.64   760.01
eigval :      761.34   815.05   821.00   822.05   824.93   826.35
eigval :      841.01   842.61   859.28   864.94   866.42   871.81
eigval :      875.32   875.64   876.16   879.71   882.74   883.12
eigval :      884.65   890.76   902.21   902.29   903.40   905.56
eigval :      906.05   907.25   909.01   912.89   913.07   915.50
eigval :      921.90   931.31   931.41   931.85   933.01   933.16
eigval :      933.36   934.21   934.30   936.28   937.95   964.73
eigval :      971.12   971.39   980.50   981.54  1010.04  1026.52
eigval :     1028.02  1042.99  1064.70  1071.69  1072.34  1072.96
eigval :     1073.62  1084.56  1085.55  1085.78  1086.38  1119.68
eigval :     1120.66  1121.24  1122.10  1127.98  1135.98  1145.88
eigval :     1146.98  1156.91  1160.83  1161.85  1179.38  1180.20
eigval :     1180.99  1182.70  1184.57  1190.16  1199.24  1199.76
eigval :     1201.01  1201.91  1216.21  1217.01  1219.42  1219.49
eigval :     1226.32  1228.53  1244.02  1245.13  1260.53  1270.93
eigval :     1274.68  1278.39  1279.56  1281.01  1281.27  1281.58
eigval :     1282.12  1300.73  1301.35  1303.25  1303.39  1316.46
eigval :     1316.79  1317.61  1318.09  1329.29  1334.00  1341.86
eigval :     1343.42  1345.11  1351.10  1355.07  1356.21  1357.34
eigval :     1393.05  1401.72  1405.41  1407.05  1414.44  1422.64
eigval :     1423.80  1428.64  1429.00  1431.27  1431.69  1437.34
eigval :     1454.58  1455.54  1458.19  1459.52  1465.68  1466.37
eigval :     1481.69  1489.71  1491.75  1492.24  1494.68  1495.09
eigval :     1529.67  1539.29  1563.32  1563.76  1570.36  1572.13
eigval :     1573.75  1580.53  1581.31  1581.68  1582.47  1584.00
eigval :     1591.18  1591.31  1596.07  1596.18  1601.01  1601.19
eigval :     1610.05  1610.44  2356.20  2357.98  3064.94  3065.18
eigval :     3065.52  3065.66  3067.14  3067.17  3067.61  3071.74
eigval :     3074.66  3074.71  3075.36  3076.30  3078.67  3078.84
eigval :     3079.17  3080.60  3082.74  3082.92  3084.44  3085.54
eigval :     3087.00  3087.03  3087.44  3089.51  3089.81  3090.67
eigval :     3092.00  3092.86  3095.02  3095.37  3096.65  3097.70
eigval :     3103.02  3104.59  3112.63  3113.77  3120.42  3130.27

   temp. (K)  partition function   enthalpy   heat capacity  entropy
                                   cal/mol     cal/K/mol   cal/K/mol   J/K/mol
 298.15  VIB  0.834E+27            33528.434    208.139    210.993
         ROT  0.347E+09              888.752      2.981     42.063
         INT  0.290E+36            34417.187    211.120    253.056
         TR   0.268E+29             1481.254      4.968     46.296
         TOT                       35898.4407   216.0879   299.3518  1252.4879

       T/K    H(0)-H(T)+PV         H(T)/Eh          T*S/Eh         G(T)/Eh
   ------------------------------------------------------------------------
    298.15    0.572078E-01    0.879420E+00    0.142232E+00    0.737188E+00
   ------------------------------------------------------------------------

         :::::::::::::::::::::::::::::::::::::::::::::::::::::
         ::                  THERMODYNAMIC                  ::
         :::::::::::::::::::::::::::::::::::::::::::::::::::::
         :: total free energy        -177.611852723300 Eh   ::
         ::.................................................::
         :: total energy             -178.349040822236 Eh   ::
         :: zero point energy           0.822211993065 Eh   ::
         :: G(RRHO) w/o ZPVE           -0.085023894128 Eh   ::
         :: G(RRHO) contrib.            0.737188098936 Eh   ::
         :::::::::::::::::::::::::::::::::::::::::::::::::::::

           -------------------------------------------------
          | TOTAL ENERGY             -178.349040822236 Eh   |
          | TOTAL ENTHALPY           -177.469621022442 Eh   |
          | TOTAL FREE ENERGY        -177.611852723300 Eh   |
          | GRADIENT NORM               0.000034015437 Eh/α |
          | HOMO-LUMO GAP               1.073416282709 eV   |
           -------------------------------------------------

 * finished run on 2025/07/16 at 12:39:07.124
