   * xtb version 6.7.1 (edcfbbe) compiled by 'albert@albert-system' on 2024-07-22

   ID    Z sym.   atoms
    1    6 C      1-8, 10-19, 22-35
    2    8 O      9, 21
    3   15 P      20
    4    1 H      36-70

          program call               : xtb data2507/gas/POBBPE/POBBPE_gas_S0_finalOpt.xtbopt.xyz --gfn 2 --spinpol --tblite --uhf 2 --ohess vtight --parallel 40 --molden --ceasefiles --namespace data2507/gas/POBBPE/POBBPE_gas_T1_preOpt
 * total energy  :   -96.9564267 Eh     change        0.8543871E-07 Eh
 * total energy  :   -96.9631337 Eh     change       -0.6707005E-02 Eh
 * total energy  :   -96.9663414 Eh     change       -0.3207765E-02 Eh
 * total energy  :   -96.9667582 Eh     change       -0.4167306E-03 Eh
 * total energy  :   -96.9670541 Eh     change       -0.2959072E-03 Eh
 * total energy  :   -96.9671230 Eh     change       -0.6893216E-04 Eh
 * total energy  :   -96.9672251 Eh     change       -0.1021244E-03 Eh
 * total energy  :   -96.9672758 Eh     change       -0.5072507E-04 Eh
 * total energy  :   -96.9673323 Eh     change       -0.5642190E-04 Eh
 * total energy  :   -96.9673884 Eh     change       -0.5609853E-04 Eh
 * total energy  :   -96.9680105 Eh     change       -0.7484605E-06 Eh
 * total energy  :   -96.9680111 Eh     change       -0.6148432E-06 Eh
 * total energy  :   -96.9680116 Eh     change       -0.4802940E-06 Eh
 * total energy  :   -96.9680120 Eh     change       -0.4356202E-06 Eh
 * total energy  :   -96.9680122 Eh     change       -0.1721111E-06 Eh
 * total energy  :   -96.9680125 Eh     change       -0.2821971E-06 Eh
 * total energy  :   -96.9680123 Eh     change        0.2152774E-06 Eh
 * total energy  :   -96.9680126 Eh     change       -0.3082995E-06 Eh
 * total energy  :   -96.9680126 Eh     change       -0.5125007E-07 Eh
   *** GEOMETRY OPTIMIZATION CONVERGED AFTER 48 ITERATIONS ***

 final structure:
================
70
 xtb: 6.7.1 (edcfbbe)
C            6.70111011505592        0.04643654939260       -1.10385296847085
C            5.82641919209482       -1.04180205976148       -0.47591353142395
C            6.17884318608742       -1.13844698569706        1.01630935898432
C            6.14504535341729       -2.37334744567368       -1.17189890730562
C            4.34356927051999       -0.75050162096964       -0.60951345334533
C            3.84406066117306        0.41001316852838       -1.20503386508711
C            2.49293777134202        0.65097930418853       -1.28739572652861
C            1.57446291919045       -0.27684189798047       -0.77739491920440
O            0.27013605228634        0.07193605933948       -0.81834177664273
C           -0.74154093880246       -0.80506264735920       -0.67124857571309
C           -0.76668845404390       -2.11359067871486       -1.14786331975201
C           -1.84134084118794       -2.93318583037871       -0.92820155504637
C           -2.96895384412932       -2.48334013856484       -0.10619515747957
C           -4.13059027600635       -3.38762108710390        0.22965406460413
C           -5.43666434105727       -2.73011522967632       -0.24529904039652
C           -4.18333628930678       -3.57416520062100        1.75682740631955
C           -4.02318916309943       -4.77075412625188       -0.41779363907644
C           -2.93156209344309       -1.19208832342772        0.37401431092974
C           -1.88646740325778       -0.31221278239922        0.12341178320605
P           -1.85225532989503        1.26273920883596        0.97020121381721
O           -2.81690283449510        1.33873239676921        2.07595239025787
C           -0.11281440338361        1.47056741994264        1.50962807251236
C            0.40845044093463        0.43551593418929        2.27592791019960
C            1.73495830274804        0.45401265280069        2.65972735446004
C            2.54693287626375        1.51141026463385        2.27707749114083
C            2.02338259975478        2.55371956434671        1.53130735707924
C            0.69334881264633        2.53803115404297        1.14711723608047
C           -2.16751401156281        2.52350929965498       -0.30967573719357
C           -1.41496375300316        2.66127711962097       -1.47206999917958
C           -1.77098860412037        3.60955702133989       -2.41132295621670
C           -2.88471479145391        4.41213945108872       -2.20982114404946
C           -3.64593454303775        4.26334763819733       -1.06049748002548
C           -3.29245179297155        3.31828182660888       -0.11668422850170
C            2.05828022856698       -1.44634220174633       -0.17757657544385
C            3.41287558209487       -1.66129641020465       -0.09729129942524
H            6.49773635491750        0.14690151416636       -2.16740876671376
H            7.74949332477112       -0.21972148822001       -0.98645143036333
H            6.54287783360536        1.00576383707427       -0.61701906652398
H            5.63367911955571       -1.94293964287547        1.50162521038315
H            7.24348176436502       -1.32587687892786        1.13735177880696
H            5.93190774319800       -0.20664446721404        1.52043849651211
H            5.87854700425410       -2.31956026421947       -2.22532051655258
H            5.59838948162150       -3.19798833382387       -0.72353538670097
H            7.20844428103137       -2.58900562477796       -1.09544161664663
H            4.51618746198086        1.14762895084860       -1.61062891725472
H            2.11877762196951        1.55544086957037       -1.74116820812093
H            0.05383800455341       -2.45183511109862       -1.76786281498417
H           -1.87497322377500       -3.89835842876911       -1.39879182144940
H           -5.40832967267855       -2.57340345580862       -1.32151714937688
H           -5.59222501548408       -1.76900767824959        0.23548261342428
H           -6.28267276065211       -3.37232943816729       -0.01008211128204
H           -5.02123847718948       -4.21450024983703        2.02384738923921
H           -3.26532460332791       -4.03899311241339        2.11017709180976
H           -4.30150352813339       -2.62144666406736        2.26426584105910
H           -4.88552505907013       -5.37051390607685       -0.13383766891863
H           -4.01056718062158       -4.69493451688870       -1.50265130605803
H           -3.12848124638793       -5.29161070133815       -0.08513206908035
H           -3.71643160488658       -0.81399464050401        1.01428719750301
H           -0.24524032583980       -0.38161287032395        2.55625854199661
H            2.14188171917017       -0.35467107056723        3.24962467469429
H            3.58801574869319        1.52265362042812        2.56481744727107
H            2.65562977006950        3.38192198015164        1.24444695352174
H            0.27992651058647        3.35033222409525        0.56583747570042
H           -0.55190587683530        2.03393843296525       -1.63138234001250
H           -1.18025553168698        3.72434170447581       -3.30941041772367
H           -3.15995872698199        5.14856900592578       -2.95067294312353
H           -4.51431033914734        4.88648903420629       -0.90197830253595
H           -3.86637576059090        3.18836443464914        0.78914311929916
H            1.36511550124453       -2.14350107533650        0.26867854617788
H            3.75525219995704       -2.55907340303209        0.39413239736407

 projected vibrational frequencies (cm⁻¹)
eigval :       -0.00    -0.00     0.00     0.00     0.00     0.00
eigval :       12.71    17.73    21.22    22.71    28.21    32.44
eigval :       41.03    52.75    63.24    64.42    67.66    76.16
eigval :       84.13   110.08   122.44   154.31   160.45   163.48
eigval :      174.17   177.02   197.77   203.89   214.52   219.73
eigval :      224.19   232.10   246.88   256.26   269.64   273.00
eigval :      296.04   301.77   312.16   315.23   317.51   334.85
eigval :      342.29   346.18   359.19   361.20   367.77   377.53
eigval :      382.12   394.29   403.09   413.91   427.44   446.27
eigval :      456.36   460.99   474.44   484.17   497.00   512.99
eigval :      515.74   566.11   584.40   585.17   592.29   602.08
eigval :      616.50   646.56   656.10   670.43   673.61   685.14
eigval :      693.55   704.26   734.66   737.25   743.27   796.88
eigval :      808.03   833.95   841.73   864.72   870.16   875.84
eigval :      876.74   882.71   887.86   893.01   896.72   903.59
eigval :      918.17   922.07   925.03   925.72   927.95   955.22
eigval :      959.13   960.40   961.94   963.16   963.38   965.90
eigval :      972.04   991.99  1000.17  1025.34  1032.43  1032.71
eigval :     1034.45  1054.62  1076.37  1076.77  1086.43  1105.50
eigval :     1112.33  1115.45  1115.93  1134.92  1144.34  1153.06
eigval :     1167.71  1178.92  1179.66  1189.73  1192.98  1205.49
eigval :     1222.85  1223.81  1229.87  1231.48  1250.62  1252.38
eigval :     1264.93  1269.51  1271.06  1272.28  1291.26  1297.97
eigval :     1317.95  1323.14  1325.10  1332.03  1374.30  1399.00
eigval :     1401.24  1402.38  1404.08  1414.10  1421.50  1422.40
eigval :     1425.09  1425.62  1427.18  1444.23  1453.67  1456.20
eigval :     1469.27  1472.24  1485.72  1489.58  1490.58  1492.22
eigval :     1497.29  1499.11  1499.86  1503.29  1512.13  1513.31
eigval :     1517.38  1518.36  1546.73  1558.23  1567.90  1576.67
eigval :     1579.11  3024.02  3024.45  3025.62  3027.23  3028.93
eigval :     3029.72  3031.57  3032.02  3033.21  3033.73  3037.17
eigval :     3038.26  3039.41  3040.72  3042.82  3048.61  3051.87
eigval :     3052.25  3054.34  3057.26  3065.58  3066.79  3069.18
eigval :     3071.53  3072.71  3077.17  3083.77  3084.65  3087.65
eigval :     3088.85  3095.86  3097.22  3104.32  3120.81  3142.00

   temp. (K)  partition function   enthalpy   heat capacity  entropy
                                   cal/mol     cal/K/mol   cal/K/mol   J/K/mol
 298.15  VIB  0.191E+17            20764.184    125.281    129.520
         ROT  0.318E+08              888.752      2.981     37.309
         INT  0.606E+24            21652.936    128.262    166.829
         TR   0.103E+29             1481.254      4.968     44.390
         TOT                       23134.1899   133.2297   211.2183   883.7372

       T/K    H(0)-H(T)+PV         H(T)/Eh          T*S/Eh         G(T)/Eh
   ------------------------------------------------------------------------
    298.15    0.368667E-01    0.605163E+00    0.100357E+00    0.504806E+00
   ------------------------------------------------------------------------

         :::::::::::::::::::::::::::::::::::::::::::::::::::::
         ::                  THERMODYNAMIC                  ::
         :::::::::::::::::::::::::::::::::::::::::::::::::::::
         :: total free energy         -96.463206551576 Eh   ::
         ::.................................................::
         :: total energy              -96.968012664362 Eh   ::
         :: zero point energy           0.568296047965 Eh   ::
         :: G(RRHO) w/o ZPVE           -0.063489935179 Eh   ::
         :: G(RRHO) contrib.            0.504806112786 Eh   ::
         :::::::::::::::::::::::::::::::::::::::::::::::::::::

           -------------------------------------------------
          | TOTAL ENERGY              -96.968012664362 Eh   |
          | TOTAL ENTHALPY            -96.362849938050 Eh   |
          | TOTAL FREE ENERGY         -96.463206551576 Eh   |
          | GRADIENT NORM               0.000060847689 Eh/α |
           -------------------------------------------------

 * finished run on 2025/08/30 at 11:28:27.489
