   * xtb version 6.7.1 (edcfbbe) compiled by 'albert@albert-system' on 2024-07-22

   ID    Z sym.   atoms
    1    6 C      1-8, 10-19, 22-35
    2    8 O      9, 21
    3   15 P      20
    4    1 H      36-70

          program call               : xtb data2507/gas/POBBPE/POBBPE.xyz --gfn 2 --ohess vtight --parallel 40 --molden --ceasefiles --namespace data2507/gas/POBBPE/POBBPE_gas_S0_preOpt
          :  Hamiltonian                  GFN2-xTB          :
 * total energy  :   -97.0692339 Eh     change       -0.4360103E-08 Eh
 * total energy  :   -97.0798937 Eh     change       -0.1065983E-01 Eh
 * total energy  :   -97.0831505 Eh     change       -0.3256807E-02 Eh
 * total energy  :   -97.0839864 Eh     change       -0.8358359E-03 Eh
 * total energy  :   -97.0848560 Eh     change       -0.8696933E-03 Eh
 * total energy  :   -97.0853046 Eh     change       -0.4485649E-03 Eh
 * total energy  :   -97.0856513 Eh     change       -0.3466969E-03 Eh
 * total energy  :   -97.0859605 Eh     change       -0.3091587E-03 Eh
 * total energy  :   -97.0862093 Eh     change       -0.2488596E-03 Eh
 * total energy  :   -97.0864042 Eh     change       -0.1948658E-03 Eh
 * total energy  :   -97.0899381 Eh     change       -0.1384597E-05 Eh
 * total energy  :   -97.0899392 Eh     change       -0.1117397E-05 Eh
 * total energy  :   -97.0899401 Eh     change       -0.8972479E-06 Eh
 * total energy  :   -97.0899410 Eh     change       -0.8440106E-06 Eh
 * total energy  :   -97.0899418 Eh     change       -0.8455345E-06 Eh
 * total energy  :   -97.0899427 Eh     change       -0.9088711E-06 Eh
 * total energy  :   -97.0899437 Eh     change       -0.1032430E-05 Eh
 * total energy  :   -97.0899450 Eh     change       -0.1208971E-05 Eh
 * total energy  :   -97.0899450 Eh     change       -0.7102329E-08 Eh
   *** GEOMETRY OPTIMIZATION CONVERGED AFTER 122 ITERATIONS ***

 final structure:
================
70
 xtb: 6.7.1 (edcfbbe)
C            6.37267804031096       -1.16118914068072       -0.65946345661340
C            5.78702062472127        0.21102434450449       -0.29837131097332
C            5.71683352029022        1.09440693291176       -1.55197316271891
C            6.72944062023192        0.88048813717090        0.70532122391644
C            4.38043736307387        0.02994407885599        0.25068240820924
C            3.41210343197784       -0.59019325006963       -0.53234328332496
C            2.11287735438187       -0.75857145789672       -0.09449129516343
C            1.74769730440186       -0.30465681137528        1.16522315080542
O            0.47072993653645       -0.33218961416307        1.65487104730089
C           -0.50525875283484       -1.09516400425287        1.08361402929055
C           -0.40045435022511       -2.44170682997822        0.77925106743937
C           -1.50779406381475       -3.11471779972410        0.28624876240393
C           -2.73205613264085       -2.48184708844108        0.10287007754224
C           -3.96791314129101       -3.19554316407971       -0.42318074247145
C           -4.44348114589956       -2.49521295034192       -1.70435164647658
C           -5.06880842594105       -3.12977656692849        0.64430517471172
C           -3.70464048388146       -4.66738337505025       -0.75188607208255
C           -2.81786205765762       -1.12795803314555        0.42249101063465
C           -1.71770198648337       -0.43740370023772        0.88753697006463
P           -1.67331944432564        1.32308541523767        1.36987095606840
O           -1.62656846083696        1.56010289070241        2.81555324616855
C           -0.25938492181057        2.01260850485874        0.44881330911782
C            0.56442136373907        2.89288859764904        1.13379919519632
C            1.69711800317649        3.40069074677091        0.52451845924767
C            2.00722381528953        3.02890913926786       -0.77286930526327
C            1.18429332362210        2.15171668921258       -1.45954866976324
C            0.05248038518294        1.64081054547174       -0.85139239106563
C           -3.15620781166142        2.04760802518493        0.59290588091586
C           -3.47172695030714        1.89430359249789       -0.75139531450010
C           -4.61805258144547        2.47667210619662       -1.25994813373756
C           -5.44988242865647        3.21630518348170       -0.43340571205616
C           -5.13511950791698        3.37463593698190        0.90589026693062
C           -3.98949480964201        2.79036133412631        1.41638665774827
C            2.70088887803148        0.31298706206069        1.96468962286135
C            3.99432375496712        0.47495041087940        1.51001264904583
H            6.39572189671711       -1.80194465689898        0.21944833007950
H            7.38887870183012       -1.04889619922914       -1.03161045802450
H            5.78338937499885       -1.65582244823241       -1.42631352028979
H            5.29324247268972        2.06440496049107       -1.30073186409671
H            6.71339586957513        1.24687755562979       -1.96119892713471
H            5.09701292332346        0.64135022955967       -2.32067498329526
H            6.82106929966869        0.28609123581601        1.61127032421000
H            6.38034257265289        1.87678978482537        0.96577300910881
H            7.71967925439606        0.97662046329371        0.26433678323207
H            3.66164735449047       -0.94718351932421       -1.52018901457311
H            1.38202314449259       -1.22345250591247       -0.73999420652283
H            0.53179086165963       -2.96454623392245        0.93701116533743
H           -1.39512240957781       -4.16147207767140        0.05606245396850
H           -3.65788470619949       -2.51316835519269       -2.45720871494726
H           -4.71313828826768       -1.45986193047524       -1.51460499788840
H           -5.31654135022323       -3.00487409622501       -2.10608281745708
H           -5.96026971612049       -3.64637141789871        0.29502025231900
H           -4.73055871770976       -3.60560420876255        1.56223036865875
H           -5.33757176672005       -2.10238969672455        0.87366530041021
H           -4.61878013621029       -5.12294853666908       -1.12683914595192
H           -2.94065409423876       -4.76749721528637       -1.51950599677590
H           -3.39601036867883       -5.21707264066601        0.13405161673616
H           -3.74763261524268       -0.59124874738314        0.30384772712999
H            0.30878855006237        3.15013756519837        2.15151193348065
H            2.34281446122450        4.07977827066793        1.06186601909384
H            2.89411334897407        3.41831654198890       -1.25075023145964
H            1.43251202499318        1.85686524575591       -2.46893913627758
H           -0.57463442437001        0.93565964308741       -1.37901097494643
H           -2.82725847048683        1.31582098645460       -1.39670043376485
H           -4.86630112751497        2.35362463023297       -2.30456877538162
H           -6.34452039022905        3.66835693135646       -0.83630583319067
H           -5.78281959170868        3.95111050060712        1.55015065501670
H           -3.72334322632540        2.89278791505284        2.45841528219385
H            2.40174999525232        0.67488351362540        2.93556370101905
H            4.70003103025531        0.96388862526954        2.16076544053919

          :  Hamiltonian                  GFN2-xTB          :
         :: gradient norm              0.000065547874 Eh/a0 ::
         :: HOMO-LUMO gap              3.378877777454 eV    ::
         :: SCC energy               -98.726520546278 Eh    ::
         :: -> dispersion             -0.093869370791 Eh    ::
         :: repulsion energy           1.636575588347 Eh    ::

    * Orbital Energies and Occupations

         #    Occupation            Energy/Eh            Energy/eV
      -------------------------------------------------------------
         1        2.0000           -0.7217653             -19.6402
       ...           ...                  ...                  ...
        78        2.0000           -0.4247269             -11.5574
        79        2.0000           -0.4202179             -11.4347
        80        2.0000           -0.4173985             -11.3580
        81        2.0000           -0.4138429             -11.2612
        82        2.0000           -0.4116913             -11.2027
        83        2.0000           -0.4105040             -11.1704
        84        2.0000           -0.4102480             -11.1634
        85        2.0000           -0.4074940             -11.0885
        86        2.0000           -0.4010064             -10.9119
        87        2.0000           -0.3993177             -10.8660
        88        2.0000           -0.3946707             -10.7395
        89        2.0000           -0.3918292             -10.6622
        90        2.0000           -0.3717818             -10.1167 (HOMO)
        91                         -0.2476103              -6.7378 (LUMO)
        92                         -0.2400493              -6.5321
        93                         -0.2324512              -6.3253
        94                         -0.2298064              -6.2534
        95                         -0.2290082              -6.2316
        96                         -0.2269342              -6.1752
        97                         -0.2208172              -6.0087
        98                         -0.2093749              -5.6974
        99                         -0.1198702              -3.2618
       100                         -0.1161616              -3.1609
       101                         -0.1073927              -2.9223
       ...                                ...                  ...
       180                          1.2492252              33.9931
      -------------------------------------------------------------
                  HL-Gap            0.1241715 Eh            3.3789 eV

     #   Z          covCN         q      C6AA      α(0)
     1   6 C        3.761    -0.106    22.579     6.774
     2   6 C        3.903     0.026    20.077     6.369
     3   6 C        3.762    -0.105    22.547     6.769
     4   6 C        3.761    -0.109    22.624     6.780
     5   6 C        2.973     0.000    28.017     8.682
     6   6 C        2.930    -0.037    28.914     8.818
     7   6 C        2.916    -0.062    29.542     8.913
     8   6 C        2.866     0.138    24.978     8.192
     9   8 O        1.733    -0.229    17.787     5.695
    10   6 C        3.013     0.144    24.849     8.177
    11   6 C        2.914    -0.058    29.436     8.897
    12   6 C        2.927    -0.039    28.966     8.826
    13   6 C        2.973     0.004    27.919     8.667
    14   6 C        3.903     0.027    20.066     6.367
    15   6 C        3.761    -0.106    22.565     6.772
    16   6 C        3.762    -0.107    22.582     6.774
    17   6 C        3.761    -0.109    22.635     6.782
    18   6 C        2.965    -0.031    28.769     8.798
    19   6 C        2.919    -0.010    28.269     8.719
    20  15 P        4.118     0.077   156.829    22.496
    21   8 O        0.808    -0.349    20.706     6.100
    22   6 C        2.921     0.017    27.621     8.618
    23   6 C        3.029    -0.020    28.468     8.752
    24   6 C        2.920    -0.027    28.684     8.783
    25   6 C        2.921    -0.027    28.665     8.780
    26   6 C        2.920    -0.028    28.710     8.787
    27   6 C        2.974    -0.025    28.633     8.777
    28   6 C        2.920     0.008    27.843     8.653
    29   6 C        2.970    -0.027    28.664     8.782
    30   6 C        2.920    -0.030    28.746     8.792
    31   6 C        2.921    -0.026    28.662     8.779
    32   6 C        2.919    -0.028    28.693     8.784
    33   6 C        3.030    -0.021    28.504     8.757
    34   6 C        2.919    -0.054    29.339     8.882
    35   6 C        2.927    -0.039    28.975     8.828
    36   1 H        0.925     0.035     2.520     2.482
    37   1 H        0.925     0.038     2.476     2.461
    38   1 H        0.925     0.036     2.501     2.473
    39   1 H        0.925     0.033     2.543     2.494
    40   1 H        0.925     0.038     2.473     2.459
    41   1 H        0.925     0.035     2.511     2.478
    42   1 H        0.925     0.037     2.487     2.466
    43   1 H        0.925     0.037     2.496     2.470
    44   1 H        0.925     0.037     2.484     2.465
    45   1 H        0.926     0.034     2.531     2.488
    46   1 H        0.926     0.029     2.597     2.520
    47   1 H        0.926     0.043     2.404     2.425
    48   1 H        0.926     0.049     2.336     2.390
    49   1 H        0.925     0.034     2.537     2.491
    50   1 H        0.925     0.037     2.490     2.467
    51   1 H        0.925     0.040     2.448     2.447
    52   1 H        0.925     0.040     2.447     2.446
    53   1 H        0.925     0.037     2.489     2.467
    54   1 H        0.925     0.038     2.473     2.459
    55   1 H        0.925     0.040     2.453     2.449
    56   1 H        0.925     0.037     2.496     2.470
    57   1 H        0.925     0.038     2.474     2.460
    58   1 H        0.926     0.044     2.393     2.419
    59   1 H        0.926     0.063     2.166     2.302
    60   1 H        0.926     0.037     2.494     2.470
    61   1 H        0.926     0.033     2.543     2.494
    62   1 H        0.926     0.033     2.550     2.497
    63   1 H        0.926     0.031     2.573     2.508
    64   1 H        0.926     0.037     2.488     2.467
    65   1 H        0.926     0.033     2.549     2.497
    66   1 H        0.926     0.035     2.521     2.483
    67   1 H        0.926     0.037     2.487     2.466
    68   1 H        0.926     0.063     2.160     2.298
    69   1 H        0.926     0.052     2.294     2.369
    70   1 H        0.926     0.045     2.380     2.412

molecular dipole:
                 x           y           z       tot (Debye)
 q only:        0.249      -0.497      -1.591
   full:        0.210      -0.592      -1.908       5.107

 projected vibrational frequencies (cm⁻¹)
eigval :       -0.00    -0.00    -0.00     0.00     0.00     0.00
eigval :       13.13    19.56    21.93    26.92    31.23    34.75
eigval :       40.92    49.98    62.66    65.30    75.17    83.12
eigval :      100.42   112.80   137.61   156.79   164.01   170.06
eigval :      177.53   185.75   198.15   211.49   218.97   220.99
eigval :      226.83   240.68   242.03   262.01   279.68   289.19
eigval :      302.61   315.52   317.64   321.06   337.24   356.52
eigval :      358.28   362.41   366.46   369.05   378.29   385.47
eigval :      410.50   419.07   423.31   432.21   438.12   451.25
eigval :      458.58   466.28   498.34   517.62   522.99   534.16
eigval :      560.99   585.33   587.12   596.35   606.06   655.98
eigval :      657.08   661.20   671.79   683.80   688.89   708.45
eigval :      712.77   735.86   745.05   768.27   810.57   815.81
eigval :      838.16   865.09   867.00   874.74   881.08   895.01
eigval :      895.35   898.72   905.40   909.01   915.12   917.58
eigval :      923.85   926.24   929.01   931.03   934.33   960.38
eigval :      960.60   962.64   963.41   963.69   964.49   973.70
eigval :      975.13  1009.63  1034.67  1035.64  1036.03  1036.46
eigval :     1059.23  1076.50  1080.87  1109.03  1118.29  1125.75
eigval :     1126.75  1135.03  1137.21  1148.04  1178.86  1180.16
eigval :     1180.89  1188.58  1191.36  1196.47  1226.68  1228.36
eigval :     1228.75  1233.76  1234.63  1244.49  1260.48  1266.05
eigval :     1267.32  1275.96  1279.55  1290.79  1296.65  1322.42
eigval :     1324.83  1326.43  1327.22  1397.69  1401.90  1404.77
eigval :     1406.79  1409.75  1415.81  1424.25  1427.00  1428.71
eigval :     1430.06  1454.31  1457.11  1458.96  1485.83  1490.96
eigval :     1491.29  1494.31  1494.48  1500.80  1502.32  1505.19
eigval :     1505.46  1513.81  1514.14  1519.06  1519.84  1566.49
eigval :     1579.30  1583.62  1586.65  1588.33  1590.65  1593.67
eigval :     1609.37  3022.77  3024.12  3024.87  3025.50  3028.14
eigval :     3029.23  3031.34  3032.36  3033.16  3033.70  3037.33
eigval :     3038.07  3039.88  3041.01  3046.40  3047.29  3050.50
eigval :     3050.94  3061.34  3070.30  3073.14  3075.99  3077.50
eigval :     3077.95  3079.12  3081.79  3082.36  3084.62  3086.96
eigval :     3090.29  3090.86  3091.50  3105.59  3116.47  3120.07

   temp. (K)  partition function   enthalpy   heat capacity  entropy
                                   cal/mol     cal/K/mol   cal/K/mol   J/K/mol
 298.15  VIB  0.445E+16            20203.990    122.720    125.541
         ROT  0.305E+08              888.752      2.981     37.229
         INT  0.136E+24            21092.742    125.701    162.770
         TR   0.103E+29             1481.254      4.968     44.390
         TOT                       22573.9963   130.6687   207.1595   866.7554

       T/K    H(0)-H(T)+PV         H(T)/Eh          T*S/Eh         G(T)/Eh
   ------------------------------------------------------------------------
    298.15    0.359740E-01    0.610117E+00    0.984282E-01    0.511689E+00
   ------------------------------------------------------------------------

         :::::::::::::::::::::::::::::::::::::::::::::::::::::
         ::                  THERMODYNAMIC                  ::
         :::::::::::::::::::::::::::::::::::::::::::::::::::::
         :: total free energy         -96.578256045990 Eh   ::
         ::.................................................::
         :: total energy              -97.089944957840 Eh   ::
         :: zero point energy           0.574143124137 Eh   ::
         :: G(RRHO) w/o ZPVE           -0.062454212287 Eh   ::
         :: G(RRHO) contrib.            0.511688911850 Eh   ::
         :::::::::::::::::::::::::::::::::::::::::::::::::::::

           -------------------------------------------------
          | TOTAL ENERGY              -97.089944957840 Eh   |
          | TOTAL ENTHALPY            -96.479827880837 Eh   |
          | TOTAL FREE ENERGY         -96.578256045990 Eh   |
          | GRADIENT NORM               0.000065688493 Eh/α |
          | HOMO-LUMO GAP               3.378877661475 eV   |
           -------------------------------------------------

 * finished run on 2025/08/30 at 11:20:20.436
