   * xtb version 6.7.1 (edcfbbe) compiled by 'albert@albert-system' on 2024-07-22

   ID    Z sym.   atoms
    1    6 C      1-8, 10-19, 22-35
    2    8 O      9, 21
    3   15 P      20
    4    1 H      36-70

          program call               : xtb data2507/gas/POBBPE/POBBPE_gas_T1_crest.xyz --gfn 2 --spinpol --tblite --uhf 2 --ohess vtight --parallel 40 --molden --ceasefiles --namespace data2507/gas/POBBPE/POBBPE_gas_T1_finalOpt
 * total energy  :   -96.9757924 Eh     change        0.6423605E-07 Eh
 * total energy  :   -96.9758897 Eh     change       -0.9728003E-04 Eh
 * total energy  :   -96.9759444 Eh     change       -0.5472116E-04 Eh
 * total energy  :   -96.9759618 Eh     change       -0.1741015E-04 Eh
 * total energy  :   -96.9759881 Eh     change       -0.2627351E-04 Eh
 * total energy  :   -96.9760029 Eh     change       -0.1478901E-04 Eh
 * total energy  :   -96.9760147 Eh     change       -0.1184404E-04 Eh
 * total energy  :   -96.9760251 Eh     change       -0.1041789E-04 Eh
 * total energy  :   -96.9760370 Eh     change       -0.1184633E-04 Eh
 * total energy  :   -96.9760526 Eh     change       -0.1558300E-04 Eh
 * total energy  :   -96.9763135 Eh     change       -0.6697265E-06 Eh
 * total energy  :   -96.9763141 Eh     change       -0.5965948E-06 Eh
 * total energy  :   -96.9763145 Eh     change       -0.3268253E-06 Eh
 * total energy  :   -96.9763148 Eh     change       -0.3853398E-06 Eh
 * total energy  :   -96.9763153 Eh     change       -0.4541585E-06 Eh
 * total energy  :   -96.9763158 Eh     change       -0.4772539E-06 Eh
 * total energy  :   -96.9763162 Eh     change       -0.4670306E-06 Eh
 * total energy  :   -96.9763167 Eh     change       -0.4648818E-06 Eh
 * total energy  :   -96.9763168 Eh     change       -0.7636837E-07 Eh
   *** GEOMETRY OPTIMIZATION CONVERGED AFTER 44 ITERATIONS ***

 final structure:
================
70
 xtb: 6.7.1 (edcfbbe)
C           -5.45329838927433        0.83877167455686       -0.55182575287153
C           -5.19091422630757       -0.34575218090564        0.38913952574925
C           -6.31343896252330       -1.38379230772624        0.24754786041541
C           -5.19725227956167        0.18156300432834        1.82627993540417
C           -3.86883304207839       -0.98776576224281        0.00900343761318
C           -3.69028737053438       -1.47579826486284       -1.29353619342151
C           -2.50784133522440       -2.04305190282595       -1.69910617358063
C           -1.43769249786376       -2.13341392357922       -0.80640915943988
O           -0.26368643652318       -2.61910699843966       -1.26647890551099
C            0.87408253923072       -2.18063230353626       -0.69294391608826
C            2.04916153400291       -2.87339740276809       -0.87805585704747
C            3.20682355071992       -2.48259106776023       -0.22087717928608
C            3.19455006189309       -1.40675979878518        0.72919010934868
C            4.48352591652424       -1.07136719187626        1.45556218017210
C            5.52601999207403       -0.65402653780230        0.40867986721166
C            4.97322063720402       -2.30661726932854        2.22599856860783
C            4.32244800719438        0.08009047328849        2.45115239427573
C            2.03746749398550       -0.72071852883180        0.92777606761918
C            0.89862230475329       -0.92255160391249        0.06929338330711
P            0.25828645926148        0.51159295752675       -0.85881040527572
O           -0.38834693794897        0.17140667704604       -2.13334138840418
C           -0.84520728973377        1.43348004329626        0.26769574780593
C           -0.83003500499695        1.34157753273703        1.65100696501171
C           -1.69342059850239        2.12197850891938        2.40034970341608
C           -2.56595297080194        2.99620879074843        1.77315158770215
C           -2.58058052887799        3.08892633310692        0.39035620940328
C           -1.72157242514955        2.30657953781167       -0.35993117173566
C            1.70870810688641        1.58862089062933       -1.04307605077362
C            2.19304174786095        2.39236557313307       -0.01498364106239
C            3.40276324698000        3.04322709572501       -0.16591492355983
C            4.13894598496281        2.89040941062157       -1.33080522142041
C            3.65562845619158        2.09078281762010       -2.35781643028978
C            2.44927382491577        1.43671553390021       -2.21108289391042
C           -1.62078329735080       -1.72140976542157        0.51782910066505
C           -2.82038207485982       -1.14514199013786        0.90239363374756
H           -4.63254112367050        1.54939018992026       -0.48877532973141
H           -6.37495994528509        1.34303344511543       -0.26881428303798
H           -5.54630928831867        0.51504669750770       -1.58416573180516
H           -6.12621367428460       -2.23237935316525        0.90224175926536
H           -7.26871845138453       -0.94071919770164        0.52068751057235
H           -6.38640353514545       -1.75053723500619       -0.77240235269690
H           -4.40997690661137        0.91792941880097        1.97117458937992
H           -5.06925135506403       -0.62688172654347        2.54237412107393
H           -6.15216931729012        0.66115901819806        2.03157810606278
H           -4.49015088451759       -1.39199504975655       -2.01248864009588
H           -2.36273930849278       -2.37582173177464       -2.71411207882771
H            2.03406208478194       -3.76934836835503       -1.48070174846451
H            4.10093011802207       -3.06558555660305       -0.35883141142255
H            5.16794093134935        0.20978860221462       -0.14870126393065
H            5.72222955219703       -1.45635156974745       -0.29688725167722
H            6.46188140239726       -0.38972424390890        0.89658423566649
H            4.22244289266194       -2.62141748038435        2.94780493020679
H            5.17563873056882       -3.13929781179025        1.55904306640023
H            5.89005011698847       -2.06932555019402        2.76152764495008
H            5.27645596727481        0.27375809196916        2.93741192441196
H            4.01350398856341        0.99049718603053        1.94259518733725
H            3.59632648809325       -0.16670421325915        3.22245772574717
H            1.98997856851678        0.09697478419709        1.62652894426226
H           -0.15831583304487        0.65420046658800        2.14245583942805
H           -1.68572382814982        2.04891889132913        3.47882402817462
H           -3.23625884473027        3.60497969549003        2.36277487646033
H           -3.25866355756902        3.77381613378110       -0.09858425206714
H           -1.72137680209998        2.35133172123987       -1.43981170459568
H            1.61122780145275        2.52152764785659        0.88725848447379
H            3.77738004644868        3.67346081682754        0.62878228306190
H            5.08735473588200        3.39581615185579       -1.43955732926449
H            4.22726449390550        1.97658902433882       -3.26748084234604
H            2.05274907691264        0.80560301364837       -2.99389320565571
H           -0.85764278510846       -1.92299386403255        1.25539656954357
H           -2.92104970016138       -0.83023840382384        1.92801020099869

 projected vibrational frequencies (cm⁻¹)
eigval :       -0.00    -0.00    -0.00     0.00     0.00     0.00
eigval :       14.19    21.22    27.57    32.42    33.59    40.68
eigval :       54.18    58.18    63.93    66.55    72.50    83.47
eigval :       89.62   115.88   140.54   153.46   160.85   165.26
eigval :      172.00   184.21   189.11   206.77   216.94   220.01
eigval :      224.23   233.19   240.59   259.87   277.24   285.68
eigval :      294.04   313.65   318.19   324.06   334.08   343.06
eigval :      346.56   360.87   364.88   366.50   368.46   382.02
eigval :      392.94   397.53   414.55   431.07   438.74   440.97
eigval :      455.54   464.47   478.44   498.71   518.33   530.03
eigval :      537.44   569.47   584.59   585.14   600.45   603.56
eigval :      644.83   648.68   656.31   675.85   681.09   697.52
eigval :      704.97   712.85   723.00   736.15   743.35   775.07
eigval :      780.85   812.46   836.92   853.90   858.77   874.82
eigval :      877.71   884.34   890.90   891.97   896.43   901.20
eigval :      914.00   923.50   926.25   927.79   934.95   960.96
eigval :      961.61   961.65   963.09   964.56   964.66   969.16
eigval :      971.91   977.69   998.57  1031.83  1033.72  1034.44
eigval :     1037.34  1074.76  1077.80  1094.26  1103.00  1113.16
eigval :     1114.76  1122.06  1131.60  1139.18  1142.47  1165.39
eigval :     1175.03  1179.73  1180.35  1190.91  1192.78  1223.91
eigval :     1226.79  1228.56  1232.89  1235.90  1244.47  1251.98
eigval :     1265.02  1267.98  1270.03  1274.22  1286.04  1290.91
eigval :     1322.14  1327.42  1328.16  1342.07  1377.85  1396.76
eigval :     1402.54  1404.33  1404.75  1408.38  1423.25  1423.65
eigval :     1426.85  1427.61  1443.50  1452.34  1454.95  1462.38
eigval :     1489.38  1489.71  1492.71  1493.10  1499.04  1499.88
eigval :     1502.84  1503.07  1513.32  1513.95  1518.88  1519.69
eigval :     1525.96  1538.66  1563.13  1569.19  1575.32  1581.60
eigval :     1583.55  3021.82  3022.96  3023.50  3025.59  3026.31
eigval :     3029.64  3029.89  3030.27  3031.71  3035.69  3035.86
eigval :     3037.52  3038.40  3043.26  3049.42  3049.86  3054.75
eigval :     3054.91  3059.88  3068.20  3069.72  3071.55  3071.93
eigval :     3072.25  3079.39  3079.62  3081.33  3086.40  3088.96
eigval :     3092.00  3094.51  3112.12  3113.87  3115.60  3116.80

   temp. (K)  partition function   enthalpy   heat capacity  entropy
                                   cal/mol     cal/K/mol   cal/K/mol   J/K/mol
 298.15  VIB  0.223E+16            20475.282    125.474    127.026
         ROT  0.244E+08              888.752      2.981     36.788
         INT  0.545E+23            21364.034    128.455    163.814
         TR   0.103E+29             1481.254      4.968     44.390
         TOT                       22845.2881   133.4232   208.2033   871.1226

       T/K    H(0)-H(T)+PV         H(T)/Eh          T*S/Eh         G(T)/Eh
   ------------------------------------------------------------------------
    298.15    0.364063E-01    0.606388E+00    0.989241E-01    0.507464E+00
   ------------------------------------------------------------------------

         :::::::::::::::::::::::::::::::::::::::::::::::::::::
         ::                  THERMODYNAMIC                  ::
         :::::::::::::::::::::::::::::::::::::::::::::::::::::
         :: total free energy         -96.468852519256 Eh   ::
         ::.................................................::
         :: total energy              -96.976316763333 Eh   ::
         :: zero point energy           0.569982061050 Eh   ::
         :: G(RRHO) w/o ZPVE           -0.062517816972 Eh   ::
         :: G(RRHO) contrib.            0.507464244077 Eh   ::
         :::::::::::::::::::::::::::::::::::::::::::::::::::::

           -------------------------------------------------
          | TOTAL ENERGY              -96.976316763333 Eh   |
          | TOTAL ENTHALPY            -96.369928418305 Eh   |
          | TOTAL FREE ENERGY         -96.468852519256 Eh   |
          | GRADIENT NORM               0.000064390573 Eh/α |
           -------------------------------------------------

 * finished run on 2025/08/30 at 11:34:04.626
