   * xtb version 6.7.1 (edcfbbe) compiled by 'albert@albert-system' on 2024-07-22

   ID    Z sym.   atoms
    1    6 C      1-8, 10-19, 22-35
    2    8 O      9, 21
    3   15 P      20
    4    1 H      36-70

          program call               : xtb data2507/gas/POBBPE/POBBPE_gas_S0_crest.xyz --gfn 2 --ohess vtight --parallel 40 --molden --ceasefiles --namespace data2507/gas/POBBPE/POBBPE_gas_S0_finalOpt
          :  Hamiltonian                  GFN2-xTB          :
 * total energy  :   -97.0907733 Eh     change       -0.4603180E-09 Eh
 * total energy  :   -97.0907743 Eh     change       -0.9701484E-06 Eh
 * total energy  :   -97.0907753 Eh     change       -0.1045784E-05 Eh
 * total energy  :   -97.0907777 Eh     change       -0.2335786E-05 Eh
 * total energy  :   -97.0907794 Eh     change       -0.1750400E-05 Eh
 * total energy  :   -97.0907809 Eh     change       -0.1457296E-05 Eh
 * total energy  :   -97.0907825 Eh     change       -0.1628921E-05 Eh
 * total energy  :   -97.0907841 Eh     change       -0.1562585E-05 Eh
 * total energy  :   -97.0907854 Eh     change       -0.1355153E-05 Eh
 * total energy  :   -97.0907870 Eh     change       -0.1551302E-05 Eh
 * total energy  :   -97.0907908 Eh     change       -0.4758003E-06 Eh
 * total energy  :   -97.0907913 Eh     change       -0.4721207E-06 Eh
 * total energy  :   -97.0907919 Eh     change       -0.5744571E-06 Eh
 * total energy  :   -97.0907925 Eh     change       -0.6451994E-06 Eh
 * total energy  :   -97.0907931 Eh     change       -0.5857595E-06 Eh
 * total energy  :   -97.0907935 Eh     change       -0.4208331E-06 Eh
 * total energy  :   -97.0907939 Eh     change       -0.3433981E-06 Eh
 * total energy  :   -97.0907942 Eh     change       -0.3033739E-06 Eh
 * total energy  :   -97.0907942 Eh     change       -0.3772570E-08 Eh
   *** GEOMETRY OPTIMIZATION CONVERGED AFTER 22 ITERATIONS ***

 final structure:
================
70
 xtb: 6.7.1 (edcfbbe)
C            6.68009660899132        0.05332748915007       -0.88581705611835
C            5.76078916421609       -1.01239685621023       -0.28351261992982
C            6.00035254690769       -1.04767329505912        1.23241992189622
C            6.13100788664236       -2.36867773574853       -0.90000353349253
C            4.28955457393057       -0.73149082976502       -0.54588182059837
C            3.84297071554275        0.36987720956393       -1.26626963334720
C            2.49648565043545        0.59839413019137       -1.47166645251928
C            1.55012084931908       -0.27542766901356       -0.95355593842312
O            0.23554137019986        0.06782148059014       -1.12998752613673
C           -0.75694679927511       -0.82940303801109       -0.81957433770857
C           -0.85566626086490       -2.07228760496064       -1.42503752376554
C           -1.92114974222729       -2.90791162039318       -1.13457553738735
C           -2.91410683898438       -2.53614640210487       -0.23494137682722
C           -4.09656304718960       -3.42375488376559        0.11727271093981
C           -5.39486230214293       -2.67620289437356       -0.21662853706953
C           -4.04909843839372       -3.73754697776172        1.61907552774326
C           -4.09140468043392       -4.74648523077364       -0.65360563377646
C           -2.79386220106400       -1.28793240823358        0.36742813352879
C           -1.73830275731455       -0.43902030673315        0.08715437999287
P           -1.67786265762045        1.13983806926025        0.99902439694195
O           -2.48746502494551        1.08432554738754        2.22384348732790
C            0.09393079976656        1.41577667657165        1.33557407048427
C            0.71476603483658        0.45662220525109        2.12424355220312
C            2.05659615224716        0.57512988320675        2.43452413881344
C            2.77820078564109        1.65720489325687        1.95874083534046
C            2.15565010212684        2.62237088174757        1.18538957297095
C            0.81243801308725        2.50618378468965        0.87301743413488
C           -2.22664931763156        2.43197376923521       -0.15828302676164
C           -1.71029126374210        2.58101083959656       -1.43950976947135
C           -2.18921419858424        3.59017251519235       -2.25494617766094
C           -3.18006195722964        4.44632680573394       -1.79929483001881
C           -3.69816571587748        4.29413475811899       -0.52377082812327
C           -3.22188023004437        3.28615165221839        0.29545803781244
C            1.97483902699324       -1.38444766942065       -0.23591103206103
C            3.32516266136204       -1.60039379488379       -0.04522441249143
H            6.57062603709692        0.09944419721628       -1.96672919389860
H            7.71626106814110       -0.19434407335396       -0.66400010468386
H            6.47093838209330        1.03341854533593       -0.46358387275856
H            5.42204180084430       -1.83497680570540        1.70741389760287
H            7.05321317225460       -1.22481606017716        1.44196787357330
H            5.71374242771112       -0.09814732027069        1.67903456318098
H            5.94670748467081       -2.35646720070194       -1.97221565449759
H            5.54723368698085       -3.17424211918798       -0.46351995787812
H            7.18473947650308       -2.58195341836071       -0.73308519195376
H            4.54232456321273        1.07721081162818       -1.68017127403412
H            2.16208490627241        1.46344634993459       -2.02307911108040
H           -0.09536031305867       -2.38175565541403       -2.12825502988687
H           -1.95915418653894       -3.86412180053555       -1.63029439769471
H           -5.42233395570301       -2.42261127699633       -1.27447930509539
H           -5.48031748273395       -1.75773578149064        0.35655681044231
H           -6.25510040445791       -3.30197279741603        0.01092331556363
H           -4.88994303319101       -4.36994029967558        1.89548013748176
H           -3.12773365960099       -4.26139182105156        1.86553758670541
H           -4.09402091584882       -2.82939043679712        2.21299695774213
H           -4.96158671034646       -5.33394110324269       -0.36841665723173
H           -4.13959657751458       -4.57452034043457       -1.72648666460542
H           -3.20359439574626       -5.33140783395119       -0.42445362260478
H           -3.51347281524495       -0.94161075857237        1.09468046854369
H            0.12872021316451       -0.37714962640191        2.48917496761946
H            2.54178206365021       -0.17507033341646        3.04154696517314
H            3.82779366797466        1.75170902081971        2.19515777565357
H            2.71994439242734        3.46916321435696        0.82227199940430
H            0.32399532659985        3.25568812338568        0.26660331697682
H           -0.93904139418188        1.91224804713769       -1.78828607449219
H           -1.78952749428025        3.71107536176869       -3.25167826617685
H           -3.54932520882554        5.23241585294877       -2.44197288250591
H           -4.47172694489533        4.95999047537897       -0.16986036033343
H           -3.60961510798787        3.14254767989770        1.29373157883150
H            1.25305267957098       -2.06754144415622        0.18749862417074
H            3.62125441740494       -2.47027227025037        0.52123438180452

          :  Hamiltonian                  GFN2-xTB          :
         :: gradient norm              0.000046782325 Eh/a0 ::
         :: HOMO-LUMO gap              3.422050041513 eV    ::
         :: SCC energy               -98.726054634025 Eh    ::
         :: -> dispersion             -0.094092412347 Eh    ::
         :: repulsion energy           1.635260471223 Eh    ::

    * Orbital Energies and Occupations

         #    Occupation            Energy/Eh            Energy/eV
      -------------------------------------------------------------
         1        2.0000           -0.7236084             -19.6904
       ...           ...                  ...                  ...
        78        2.0000           -0.4229514             -11.5091
        79        2.0000           -0.4195618             -11.4169
        80        2.0000           -0.4178785             -11.3711
        81        2.0000           -0.4153212             -11.3015
        82        2.0000           -0.4121138             -11.2142
        83        2.0000           -0.4105637             -11.1720
        84        2.0000           -0.4088532             -11.1255
        85        2.0000           -0.4060715             -11.0498
        86        2.0000           -0.4018542             -10.9350
        87        2.0000           -0.4001198             -10.8878
        88        2.0000           -0.3954494             -10.7607
        89        2.0000           -0.3921065             -10.6698
        90        2.0000           -0.3747304             -10.1969 (HOMO)
        91                         -0.2489724              -6.7749 (LUMO)
        92                         -0.2379996              -6.4763
        93                         -0.2329453              -6.3388
        94                         -0.2307092              -6.2779
        95                         -0.2275473              -6.1919
        96                         -0.2262299              -6.1560
        97                         -0.2230360              -6.0691
        98                         -0.2122933              -5.7768
        99                         -0.1231403              -3.3508
       100                         -0.1160269              -3.1573
       101                         -0.1066213              -2.9013
       ...                                ...                  ...
       180                          1.2217371              33.2452
      -------------------------------------------------------------
                  HL-Gap            0.1257580 Eh            3.4221 eV

     #   Z          covCN         q      C6AA      α(0)
     1   6 C        3.761    -0.108    22.613     6.779
     2   6 C        3.903     0.026    20.076     6.369
     3   6 C        3.762    -0.105    22.549     6.769
     4   6 C        3.762    -0.106    22.576     6.773
     5   6 C        2.973     0.000    28.017     8.682
     6   6 C        2.927    -0.040    28.986     8.829
     7   6 C        2.919    -0.056    29.385     8.889
     8   6 C        2.870     0.140    24.954     8.189
     9   8 O        1.709    -0.260    18.304     5.776
    10   6 C        2.921     0.138    24.991     8.198
    11   6 C        2.917    -0.055    29.377     8.888
    12   6 C        2.927    -0.039    28.957     8.825
    13   6 C        2.972     0.007    27.869     8.659
    14   6 C        3.903     0.027    20.064     6.367
    15   6 C        3.762    -0.108    22.610     6.778
    16   6 C        3.762    -0.108    22.615     6.779
    17   6 C        3.761    -0.109    22.630     6.781
    18   6 C        3.035    -0.029    28.690     8.786
    19   6 C        2.917    -0.014    28.360     8.733
    20  15 P        4.083     0.089   156.326    22.460
    21   8 O        0.808    -0.370    21.112     6.159
    22   6 C        2.921     0.020    27.563     8.610
    23   6 C        3.039    -0.018    28.428     8.745
    24   6 C        2.919    -0.026    28.664     8.780
    25   6 C        2.921    -0.025    28.638     8.776
    26   6 C        2.921    -0.027    28.668     8.780
    27   6 C        2.967    -0.022    28.544     8.763
    28   6 C        2.921     0.013    27.720     8.634
    29   6 C        2.971    -0.028    28.706     8.788
    30   6 C        2.920    -0.029    28.721     8.788
    31   6 C        2.920    -0.026    28.649     8.777
    32   6 C        2.919    -0.028    28.702     8.785
    33   6 C        3.034    -0.021    28.501     8.757
    34   6 C        2.916    -0.062    29.534     8.912
    35   6 C        2.930    -0.036    28.894     8.815
    36   1 H        0.925     0.036     2.499     2.472
    37   1 H        0.925     0.037     2.483     2.464
    38   1 H        0.925     0.036     2.503     2.474
    39   1 H        0.925     0.036     2.502     2.474
    40   1 H        0.925     0.038     2.474     2.460
    41   1 H        0.925     0.033     2.542     2.493
    42   1 H        0.925     0.034     2.528     2.486
    43   1 H        0.925     0.036     2.496     2.471
    44   1 H        0.925     0.038     2.472     2.459
    45   1 H        0.926     0.043     2.407     2.426
    46   1 H        0.926     0.042     2.427     2.436
    47   1 H        0.926     0.042     2.420     2.433
    48   1 H        0.926     0.048     2.341     2.392
    49   1 H        0.925     0.034     2.533     2.489
    50   1 H        0.925     0.042     2.418     2.432
    51   1 H        0.925     0.041     2.436     2.441
    52   1 H        0.925     0.041     2.438     2.442
    53   1 H        0.925     0.034     2.526     2.486
    54   1 H        0.925     0.045     2.384     2.415
    55   1 H        0.925     0.040     2.449     2.447
    56   1 H        0.925     0.036     2.499     2.472
    57   1 H        0.925     0.036     2.498     2.472
    58   1 H        0.926     0.069     2.099     2.265
    59   1 H        0.925     0.044     2.394     2.420
    60   1 H        0.926     0.036     2.503     2.474
    61   1 H        0.926     0.033     2.547     2.496
    62   1 H        0.926     0.035     2.518     2.481
    63   1 H        0.926     0.038     2.473     2.459
    64   1 H        0.926     0.057     2.238     2.340
    65   1 H        0.926     0.034     2.533     2.489
    66   1 H        0.926     0.035     2.521     2.483
    67   1 H        0.926     0.037     2.491     2.468
    68   1 H        0.926     0.063     2.165     2.301
    69   1 H        0.926     0.030     2.589     2.516
    70   1 H        0.926     0.035     2.522     2.484

molecular dipole:
                 x           y           z       tot (Debye)
 q only:        0.763      -0.560      -0.982
   full:        0.917      -0.601      -1.232       4.192

 projected vibrational frequencies (cm⁻¹)
eigval :       -0.00    -0.00    -0.00     0.00     0.00     0.00
eigval :       14.52    20.94    23.96    26.87    31.92    36.41
eigval :       43.97    53.14    62.55    70.60    78.82    82.57
eigval :       95.60   106.32   135.34   154.94   164.13   170.18
eigval :      178.40   183.47   202.41   213.40   220.88   223.41
eigval :      227.41   234.34   250.36   262.61   271.91   278.87
eigval :      305.74   315.28   317.39   320.41   334.17   349.00
eigval :      358.27   360.69   361.91   366.05   381.50   385.06
eigval :      411.11   412.82   425.28   431.84   445.11   455.83
eigval :      458.54   489.47   496.97   509.45   524.61   532.11
eigval :      558.53   585.87   586.85   596.71   606.09   653.17
eigval :      657.35   661.19   670.03   683.09   685.06   707.30
eigval :      722.33   739.20   744.05   763.62   809.62   816.89
eigval :      839.80   861.31   864.71   877.17   882.80   894.14
eigval :      894.94   897.94   906.11   908.29   915.62   917.92
eigval :      922.95   925.35   929.56   931.26   934.94   960.25
eigval :      961.13   962.56   962.92   963.62   964.89   972.71
eigval :      976.69  1009.12  1034.71  1035.52  1035.68  1036.53
eigval :     1061.88  1079.28  1079.83  1114.12  1115.40  1123.76
eigval :     1130.69  1138.30  1139.86  1149.90  1179.64  1180.43
eigval :     1181.15  1191.98  1194.12  1195.21  1224.54  1228.51
eigval :     1228.81  1233.88  1234.53  1242.69  1253.11  1253.93
eigval :     1271.52  1274.13  1280.83  1293.81  1296.83  1319.54
eigval :     1322.09  1323.28  1328.37  1388.97  1401.90  1405.11
eigval :     1406.28  1407.21  1415.57  1424.52  1426.92  1428.71
eigval :     1429.67  1452.84  1457.91  1464.96  1487.42  1490.10
eigval :     1491.07  1493.02  1494.32  1499.87  1502.57  1503.88
eigval :     1505.78  1513.95  1513.97  1518.63  1519.79  1562.02
eigval :     1580.51  1582.84  1586.84  1587.50  1590.40  1591.49
eigval :     1611.09  3023.03  3024.54  3025.35  3026.02  3028.59
eigval :     3028.87  3031.09  3031.60  3033.29  3033.76  3036.43
eigval :     3037.58  3039.47  3040.28  3047.96  3051.46  3053.47
eigval :     3054.05  3057.05  3069.51  3071.25  3075.41  3076.34
eigval :     3077.79  3080.11  3082.05  3083.14  3083.38  3089.67
eigval :     3090.97  3092.14  3096.68  3111.23  3115.14  3118.08

   temp. (K)  partition function   enthalpy   heat capacity  entropy
                                   cal/mol     cal/K/mol   cal/K/mol   J/K/mol
 298.15  VIB  0.293E+16            20197.698    122.977    125.428
         ROT  0.310E+08              888.752      2.981     37.260
         INT  0.909E+23            21086.450    125.958    162.688
         TR   0.103E+29             1481.254      4.968     44.390
         TOT                       22567.7040   130.9262   207.0778   866.4137

       T/K    H(0)-H(T)+PV         H(T)/Eh          T*S/Eh         G(T)/Eh
   ------------------------------------------------------------------------
    298.15    0.359639E-01    0.610102E+00    0.983894E-01    0.511712E+00
   ------------------------------------------------------------------------

         :::::::::::::::::::::::::::::::::::::::::::::::::::::
         ::                  THERMODYNAMIC                  ::
         :::::::::::::::::::::::::::::::::::::::::::::::::::::
         :: total free energy         -96.579081914738 Eh   ::
         ::.................................................::
         :: total energy              -97.090794162801 Eh   ::
         :: zero point energy           0.574137685202 Eh   ::
         :: G(RRHO) w/o ZPVE           -0.062425437139 Eh   ::
         :: G(RRHO) contrib.            0.511712248063 Eh   ::
         :::::::::::::::::::::::::::::::::::::::::::::::::::::

           -------------------------------------------------
          | TOTAL ENERGY              -97.090794162801 Eh   |
          | TOTAL ENTHALPY            -96.480692552062 Eh   |
          | TOTAL FREE ENERGY         -96.579081914738 Eh   |
          | GRADIENT NORM               0.000046743692 Eh/α |
          | HOMO-LUMO GAP               3.422050249101 eV   |
           -------------------------------------------------

 * finished run on 2025/08/30 at 11:28:20.257
