   * xtb version 6.7.1 (edcfbbe) compiled by 'albert@albert-system' on 2024-07-22

   ID    Z sym.   atoms
    1    6 C      1-34
    2    1 H      35-56

          program call               : xtb data2507/gas/19a/19a.xyz --gfn 2 --ohess vtight --parallel 40 --molden --ceasefiles --namespace data2507/gas/19a/19a_gas_S0_preOpt
          :  Hamiltonian                  GFN2-xTB          :
 * total energy  :   -84.0154509 Eh     change       -0.3816893E-09 Eh
 * total energy  :   -84.0264617 Eh     change       -0.1101077E-01 Eh
 * total energy  :   -84.0291191 Eh     change       -0.2657446E-02 Eh
 * total energy  :   -84.0295489 Eh     change       -0.4298088E-03 Eh
 * total energy  :   -84.0298925 Eh     change       -0.3435586E-03 Eh
 * total energy  :   -84.0299829 Eh     change       -0.9043482E-04 Eh
 * total energy  :   -84.0300868 Eh     change       -0.1038975E-03 Eh
 * total energy  :   -84.0302075 Eh     change       -0.1206937E-03 Eh
 * total energy  :   -84.0303349 Eh     change       -0.1273792E-03 Eh
 * total energy  :   -84.0304677 Eh     change       -0.1327740E-03 Eh
 * total energy  :   -84.0309966 Eh     change        0.2158671E-06 Eh
 * total energy  :   -84.0309971 Eh     change       -0.4689513E-06 Eh
 * total energy  :   -84.0309970 Eh     change        0.1202773E-06 Eh
 * total energy  :   -84.0309973 Eh     change       -0.3494672E-06 Eh
 * total energy  :   -84.0309976 Eh     change       -0.2390131E-06 Eh
 * total energy  :   -84.0309979 Eh     change       -0.3495240E-06 Eh
 * total energy  :   -84.0309983 Eh     change       -0.4130096E-06 Eh
 * total energy  :   -84.0309986 Eh     change       -0.2328350E-06 Eh
 * total energy  :   -84.0309986 Eh     change       -0.5379695E-07 Eh
   *** GEOMETRY OPTIMIZATION CONVERGED AFTER 32 ITERATIONS ***

 final structure:
================
56
 xtb: 6.7.1 (edcfbbe)
C           -9.86724873636137        1.19157141901209       -0.10489830368704
C           -9.02558883912825        2.25315204035615       -0.47321198175493
C           -7.67379653974062        2.06883783651741       -0.54840798637160
C           -7.10001266853326        0.81267368116879       -0.25790454722116
C           -5.71153597589070        0.59145224221803       -0.32749549583200
C           -5.16681933416426       -0.64030811884881       -0.05043619459941
C           -3.71688763322983       -0.86219020660456       -0.13487192896012
C           -3.21998443727931       -2.05598640359867       -0.72163556030710
C           -1.88421297829360       -2.28290117244283       -0.82323678993503
C           -0.94107022802636       -1.33994915586661       -0.33961816768203
C            0.43112225745186       -1.54623110294114       -0.43278692330031
C            1.34291698640596       -0.60648128054807        0.04360967124133
C            2.74093026644712       -0.80239651851511       -0.05121259278359
C            3.62976140214114        0.13276294060850        0.40850271463581
C            5.07953813511360       -0.07095537661201        0.28588377089453
C            5.64027925010124       -1.34232590645269        0.54042598160236
C            6.98337553198449       -1.55191218508262        0.42651981140980
C            7.85125911936751       -0.50746512504342        0.04312725301464
C            9.24231373076398       -0.69199718351873       -0.08868705051444
C           10.05142136223637        0.34384317618496       -0.46423345847709
C            9.50578239299157        1.61091675273754       -0.72445696640984
C            8.16110449086919        1.82173888670438       -0.60438608744806
C            7.29874156572273        0.77382828569968       -0.21762088633494
C            5.90995939200699        0.96104957657953       -0.08328121631671
C            3.13259201377835        1.32174432153122        1.00506665211804
C            1.79702018226541        1.54127015398806        1.12247602632237
C            0.85346688910844        0.59572016560578        0.64437971292547
C           -0.51865299313400        0.80086275393433        0.73989589192004
C           -1.43054340360763       -0.13641734692271        0.25855447925007
C           -2.82840614582807        0.06601985364033        0.33926434991056
C           -6.02446981137986       -1.70080074662880        0.31723058260123
C           -7.37331552112247       -1.51443422954535        0.40082269486829
C           -7.95220322132710       -0.26024527667198        0.11340033235132
C           -9.34224742750873       -0.03745555895103        0.18217968382746
H          -10.93369083822924        1.35560944147686       -0.05119355246184
H           -9.45788906302957        3.21763358728003       -0.69721373494337
H           -7.02213391383334        2.88342283251502       -0.83181422308429
H           -5.07202205286555        1.40945794902946       -0.62860014920587
H           -3.92575931414511       -2.77526669360328       -1.11117609977156
H           -1.51426160738015       -3.18981797226686       -1.28065246141239
H            0.79924885967409       -2.45616089447504       -0.88711926914248
H            3.09807464386987       -1.70604847537797       -0.52517950626129
H            4.98847510006947       -2.14635803956688        0.85006636106820
H            7.40438955824138       -2.52629439712216        0.63172214874959
H            9.65760888797044       -1.66960521743262        0.11241612376104
H           11.11681994240271        0.19558119723901       -0.56446099741315
H           10.16005288658250        2.41792820086227       -1.02096262996259
H            7.73676555118638        2.79582727268669       -0.80364539406345
H            5.49848742773732        1.93656001007526       -0.30243729777035
H            3.83994033238147        2.04368771203673        1.38653235581377
H            1.42724936919481        2.44532111405364        1.58566989660449
H           -0.88689187573929        1.71049273772572        1.19469333537664
H           -3.18808042116219        0.97169805749984        0.80729591150698
H           -5.59391019898369       -2.66262813045674        0.55582663829306
H           -8.02107643682634       -2.32985168939299        0.69115344765015
H           -9.98598291131535       -0.85818079447721        0.46612262571242

          :  Hamiltonian                  GFN2-xTB          :
         :: gradient norm              0.000077298489 Eh/a0 ::
         :: HOMO-LUMO gap              2.103748051410 eV    ::
         :: SCC energy               -85.699920888658 Eh    ::
         :: -> dispersion             -0.070926035858 Eh    ::
         :: repulsion energy           1.668922254783 Eh    ::

    * Orbital Energies and Occupations

         #    Occupation            Energy/Eh            Energy/eV
      -------------------------------------------------------------
         1        2.0000           -0.6504503             -17.6997
       ...           ...                  ...                  ...
        67        2.0000           -0.4224942             -11.4967
        68        2.0000           -0.4158905             -11.3170
        69        2.0000           -0.4140325             -11.2664
        70        2.0000           -0.4126453             -11.2287
        71        2.0000           -0.4100773             -11.1588
        72        2.0000           -0.4078959             -11.0994
        73        2.0000           -0.4065655             -11.0632
        74        2.0000           -0.4036714             -10.9845
        75        2.0000           -0.3931590             -10.6984
        76        2.0000           -0.3894935             -10.5987
        77        2.0000           -0.3765069             -10.2453
        78        2.0000           -0.3759235             -10.2294
        79        2.0000           -0.3583578              -9.7514 (HOMO)
        80                         -0.2810465              -7.6477 (LUMO)
        81                         -0.2592917              -7.0557
        82                         -0.2586568              -7.0384
        83                         -0.2389460              -6.5021
        84                         -0.2335654              -6.3556
        85                         -0.2143524              -5.8328
        86                         -0.2142905              -5.8311
        87                         -0.1892208              -5.1490
        88                         -0.1865301              -5.0757
        89                         -0.1730798              -4.7097
        90                         -0.1715869              -4.6691
       ...                                ...                  ...
       158                          0.7275098              19.7966
      -------------------------------------------------------------
                  HL-Gap            0.0773113 Eh            2.1037 eV

     #   Z          covCN         q      C6AA      α(0)
     1   6 C        2.916    -0.030    28.761     8.794
     2   6 C        2.916    -0.030    28.752     8.793
     3   6 C        2.918    -0.035    28.879     8.812
     4   6 C        2.985     0.012    27.729     8.638
     5   6 C        2.925    -0.041    29.025     8.835
     6   6 C        2.974     0.009    27.821     8.652
     7   6 C        2.972     0.009    27.812     8.651
     8   6 C        2.918    -0.034    28.836     8.806
     9   6 C        2.915    -0.036    28.899     8.815
    10   6 C        2.983     0.010    27.778     8.645
    11   6 C        2.921    -0.043    29.068     8.841
    12   6 C        2.981     0.011    27.766     8.644
    13   6 C        2.923    -0.041    29.015     8.833
    14   6 C        2.972     0.009    27.812     8.651
    15   6 C        2.974     0.009    27.821     8.652
    16   6 C        2.920    -0.035    28.867     8.811
    17   6 C        2.916    -0.036    28.897     8.815
    18   6 C        2.987     0.011    27.755     8.642
    19   6 C        2.918    -0.035    28.869     8.811
    20   6 C        2.916    -0.030    28.761     8.794
    21   6 C        2.916    -0.030    28.752     8.793
    22   6 C        2.918    -0.035    28.880     8.813
    23   6 C        2.986     0.012    27.735     8.639
    24   6 C        2.925    -0.041    29.012     8.833
    25   6 C        2.918    -0.034    28.847     8.808
    26   6 C        2.915    -0.036    28.895     8.815
    27   6 C        2.983     0.010    27.777     8.645
    28   6 C        2.921    -0.043    29.067     8.841
    29   6 C        2.981     0.011    27.761     8.643
    30   6 C        2.923    -0.041    29.025     8.835
    31   6 C        2.920    -0.034    28.852     8.808
    32   6 C        2.916    -0.036    28.903     8.816
    33   6 C        2.987     0.011    27.755     8.642
    34   6 C        2.918    -0.035    28.869     8.811
    35   1 H        0.926     0.029     2.604     2.523
    36   1 H        0.926     0.029     2.603     2.523
    37   1 H        0.926     0.030     2.589     2.516
    38   1 H        0.926     0.032     2.564     2.504
    39   1 H        0.926     0.031     2.568     2.506
    40   1 H        0.926     0.030     2.585     2.514
    41   1 H        0.925     0.031     2.578     2.511
    42   1 H        0.926     0.031     2.567     2.505
    43   1 H        0.926     0.031     2.568     2.506
    44   1 H        0.926     0.030     2.581     2.513
    45   1 H        0.926     0.030     2.590     2.517
    46   1 H        0.926     0.029     2.604     2.523
    47   1 H        0.926     0.029     2.603     2.523
    48   1 H        0.926     0.030     2.591     2.517
    49   1 H        0.926     0.032     2.562     2.503
    50   1 H        0.926     0.031     2.569     2.507
    51   1 H        0.926     0.030     2.584     2.514
    52   1 H        0.925     0.031     2.577     2.510
    53   1 H        0.926     0.031     2.569     2.506
    54   1 H        0.926     0.031     2.567     2.505
    55   1 H        0.926     0.030     2.584     2.514
    56   1 H        0.926     0.030     2.590     2.516

molecular dipole:
                 x           y           z       tot (Debye)
 q only:       -0.003      -0.017       0.003
   full:       -0.004      -0.016      -0.004       0.044

 projected vibrational frequencies (cm⁻¹)
eigval :       -0.00    -0.00     0.00     0.00     0.00     0.00
eigval :       12.64    26.08    27.20    37.55    48.31    57.15
eigval :       79.95   112.84   121.14   134.75   155.97   169.02
eigval :      170.89   201.37   209.14   237.91   255.18   281.38
eigval :      291.48   337.31   340.63   350.89   369.17   373.68
eigval :      404.45   414.00   430.15   434.26   447.30   448.87
eigval :      453.15   458.89   490.86   497.89   501.90   506.03
eigval :      510.53   540.40   564.00   584.12   587.42   593.77
eigval :      602.82   615.72   637.33   646.91   656.03   701.16
eigval :      714.89   723.51   724.01   726.48   755.41   756.30
eigval :      787.87   789.04   798.51   799.48   818.22   832.03
eigval :      833.25   837.03   841.84   860.14   864.17   867.22
eigval :      871.93   873.74   877.05   879.20   882.69   884.94
eigval :      890.42   891.84   914.25   914.80   919.74   922.73
eigval :      924.72   926.82   928.59   928.80   964.70   969.28
eigval :     1074.79  1076.49  1081.65  1082.75  1144.12  1144.69
eigval :     1153.42  1168.48  1170.30  1175.03  1179.23  1179.85
eigval :     1180.09  1184.22  1202.27  1203.25  1229.19  1229.98
eigval :     1244.00  1251.32  1260.76  1261.87  1266.90  1268.63
eigval :     1286.19  1300.92  1325.67  1329.75  1333.50  1335.72
eigval :     1368.51  1371.65  1397.72  1400.65  1404.66  1423.42
eigval :     1426.43  1427.80  1433.54  1442.25  1458.43  1469.08
eigval :     1477.22  1503.97  1504.90  1532.00  1538.92  1562.18
eigval :     1562.23  1582.31  1596.57  1604.76  1607.38  1610.52
eigval :     1611.62  1620.80  3063.16  3063.42  3065.77  3065.92
eigval :     3066.72  3067.04  3068.20  3068.52  3069.46  3069.77
eigval :     3071.24  3071.65  3073.09  3074.84  3078.91  3079.03
eigval :     3081.95  3084.04  3084.71  3085.19  3089.02  3089.18

   temp. (K)  partition function   enthalpy   heat capacity  entropy
                                   cal/mol     cal/K/mol   cal/K/mol   J/K/mol
 298.15  VIB  0.131E+11            14258.415     96.312     85.544
         ROT  0.365E+08              888.752      2.981     37.583
         INT  0.479E+18            15147.168     99.293    123.127
         TR   0.864E+28             1481.254      4.968     44.050
         TOT                       16628.4214   104.2607   167.1765   699.4666

       T/K    H(0)-H(T)+PV         H(T)/Eh          T*S/Eh         G(T)/Eh
   ------------------------------------------------------------------------
    298.15    0.264991E-01    0.460993E+00    0.794310E-01    0.381562E+00
   ------------------------------------------------------------------------

         :::::::::::::::::::::::::::::::::::::::::::::::::::::
         ::                  THERMODYNAMIC                  ::
         :::::::::::::::::::::::::::::::::::::::::::::::::::::
         :: total free energy         -83.649436869066 Eh   ::
         ::.................................................::
         :: total energy              -84.030998633868 Eh   ::
         :: zero point energy           0.434493657740 Eh   ::
         :: G(RRHO) w/o ZPVE           -0.052931892938 Eh   ::
         :: G(RRHO) contrib.            0.381561764802 Eh   ::
         :::::::::::::::::::::::::::::::::::::::::::::::::::::

           -------------------------------------------------
          | TOTAL ENERGY              -84.030998633868 Eh   |
          | TOTAL ENTHALPY            -83.570005899837 Eh   |
          | TOTAL FREE ENERGY         -83.649436869066 Eh   |
          | GRADIENT NORM               0.000077300610 Eh/α |
          | HOMO-LUMO GAP               2.103748086880 eV   |
           -------------------------------------------------

 * finished run on 2025/09/13 at 05:07:43.748
