   * xtb version 6.7.1 (edcfbbe) compiled by 'albert@albert-system' on 2024-07-22

   ID    Z sym.   atoms
    1    6 C      1-34
    2    1 H      35-56

          program call               : xtb data2507/gas/19a/19a_gas_T1_crest.xyz --gfn 2 --spinpol --tblite --uhf 2 --ohess vtight --parallel 40 --molden --ceasefiles --namespace data2507/gas/19a/19a_gas_T1_finalOpt
 * total energy  :   -83.9660269 Eh     change       -0.3639798E-08 Eh
 * total energy  :   -83.9660917 Eh     change       -0.6483175E-04 Eh
 * total energy  :   -83.9661259 Eh     change       -0.3415464E-04 Eh
 * total energy  :   -83.9661324 Eh     change       -0.6501559E-05 Eh
 * total energy  :   -83.9661378 Eh     change       -0.5363147E-05 Eh
 * total energy  :   -83.9661414 Eh     change       -0.3653930E-05 Eh
 * total energy  :   -83.9661461 Eh     change       -0.4640823E-05 Eh
 * total energy  :   -83.9661500 Eh     change       -0.3946806E-05 Eh
 * total energy  :   -83.9661533 Eh     change       -0.3251962E-05 Eh
 * total energy  :   -83.9661572 Eh     change       -0.3938157E-05 Eh
 * total energy  :   -83.9661861 Eh     change       -0.1943690E-06 Eh
 * total energy  :   -83.9661862 Eh     change       -0.1398036E-06 Eh
 * total energy  :   -83.9661864 Eh     change       -0.1961226E-06 Eh
 * total energy  :   -83.9661866 Eh     change       -0.1471847E-06 Eh
 * total energy  :   -83.9661868 Eh     change       -0.2331156E-06 Eh
 * total energy  :   -83.9661870 Eh     change       -0.1939098E-06 Eh
 * total energy  :   -83.9661872 Eh     change       -0.1441560E-06 Eh
 * total energy  :   -83.9661873 Eh     change       -0.1236128E-06 Eh
 * total energy  :   -83.9661873 Eh     change       -0.3224201E-07 Eh
   *** GEOMETRY OPTIMIZATION CONVERGED AFTER 37 ITERATIONS ***

 final structure:
================
56
 xtb: 6.7.1 (edcfbbe)
C           -9.88181687514741        0.80585756502679       -0.47279700763287
C           -9.08102441665170        1.70970811400001       -1.18773974450856
C           -7.72148807767225        1.57044481537837       -1.19779527181921
C           -7.09862613509089        0.51859629765974       -0.49107272157038
C           -5.70269314290619        0.35316503434025       -0.47877756888848
C           -5.10225847551751       -0.68356708295838        0.20742414593258
C           -3.65283004872546       -0.85198868064283        0.20713412969495
C           -3.07095387628397       -2.11413954013812        0.21541086241573
C           -1.69247222725909       -2.26665846960797        0.20267685345900
C           -0.83607712199637       -1.15567256531357        0.19631570687705
C            0.56003880766609       -1.28323223960457        0.19401106941725
C            1.41960938345306       -0.15258666789096        0.19577779334306
C            2.80067136824929       -0.27982379071178        0.19526976104614
C            3.65225462367807        0.84905693636346        0.21162613717633
C            5.10181660105159        0.68152233986900        0.21174863593948
C            5.92475647596883        1.58567708038224        0.92570408920049
C            7.28001696803931        1.44522334905326        0.93896645864902
C            7.91131470340762        0.39847986106372        0.23118681533864
C            9.30869646708312        0.22944726896071        0.22117608445591
C            9.88337143441227       -0.79670311737368       -0.47833720515868
C            9.08368636689020       -1.69819834559987       -1.19747565253823
C            7.72388603318918       -1.56138132993053       -1.20578733392637
C            7.09961804734105       -0.51435617682048       -0.49317021378191
C            5.70341306658116       -0.35110410893414       -0.47953080525583
C            3.07027925423218        2.11112275053047        0.22382502587082
C            1.69181695570864        2.26351216621420        0.21083669862145
C            0.83566226084485        1.15240241200230        0.20044454268453
C           -0.56043894372294        1.27997054976168        0.19789722212233
C           -1.41996418476669        0.14934814201392        0.19563940180886
C           -2.80097061521902        0.27677099974006        0.19502719100664
C           -5.92635508433473       -1.59030284847482        0.91676928995327
C           -7.28142826938922       -1.44806372790517        0.93096594079043
C           -7.91143801370417       -0.39664609902837        0.22897595913492
C           -9.30852014464760       -0.22509015142021        0.22077853916329
H          -10.95478327582443        0.93118200475829       -0.47582721175049
H           -9.55026882092488        2.51727676696568       -1.73081119006118
H           -7.10132421950604        2.26494876881324       -1.74693777142156
H           -5.10055786329211        1.04436260168824       -1.05125264780195
H           -3.69722732621260       -2.99385816629834        0.19729452191729
H           -1.26248808992686       -3.25798123032407        0.19292521402488
H            0.99984492914466       -2.27034552354956        0.19397509992388
H            3.23522583330629       -1.26854938228878        0.21617880536819
H            5.45961464722931        2.37931323603100        1.49169627059379
H            7.89554928648357        2.13522121035686        1.49920066904446
H            9.92055345641730        0.92669415516040        0.77624053110235
H           10.95656205777594       -0.92004074771146       -0.48280948684027
H            9.55400738968249       -2.50197437030652       -1.74521552073460
H            7.10460580691679       -2.25406280369528       -1.75821772432744
H            5.10200499182080       -1.04029247185966       -1.05519755105204
H            3.69653363682276        2.99091367624588        0.20894931571098
H            1.26165031984886        3.25477606675498        0.20405571085925
H           -1.00024258615844        2.26707766846926        0.20078619037656
H           -3.23525851464521        1.26552689777372        0.21924224252243
H           -5.46228231107982       -2.38750900655223        1.47860072905844
H           -7.89780704487121       -2.14014037382711        1.48769900127862
H           -9.92126979346911       -0.92417147861177        0.77253157618986

 projected vibrational frequencies (cm⁻¹)
eigval :       -0.00     0.00     0.00     0.00     0.00     0.00
eigval :       11.76    27.89    28.80    39.13    48.76    53.16
eigval :       80.64   107.93   110.66   147.42   167.67   168.92
eigval :      172.86   178.40   220.23   233.92   256.17   264.81
eigval :      286.48   323.18   339.37   341.83   367.15   372.59
eigval :      391.65   398.51   410.82   411.12   436.01   444.31
eigval :      446.04   452.17   490.93   492.43   500.44   504.48
eigval :      507.46   539.18   559.61   570.19   570.71   588.02
eigval :      588.97   618.75   628.84   636.08   654.73   679.31
eigval :      694.71   717.30   721.66   722.16   736.22   752.65
eigval :      754.36   767.86   780.05   796.92   798.06   801.62
eigval :      808.65   821.32   827.82   832.55   833.90   838.49
eigval :      839.02   863.05   868.13   871.43   877.90   878.00
eigval :      888.85   889.54   892.27   892.85   913.30   913.32
eigval :      923.07   923.17   927.08   927.09   962.86   963.00
eigval :     1073.52  1073.95  1081.08  1081.31  1128.30  1142.70
eigval :     1143.34  1145.50  1157.33  1174.74  1177.51  1179.21
eigval :     1180.06  1180.20  1204.71  1206.60  1223.35  1226.58
eigval :     1231.21  1235.97  1255.09  1260.12  1263.38  1265.84
eigval :     1277.81  1289.45  1295.40  1313.31  1330.88  1332.39
eigval :     1336.77  1368.08  1370.91  1376.01  1398.30  1398.58
eigval :     1412.70  1421.64  1423.91  1429.09  1439.82  1442.25
eigval :     1455.10  1465.46  1496.72  1497.31  1500.94  1502.47
eigval :     1524.66  1529.58  1552.04  1553.40  1593.51  1595.68
eigval :     1605.51  1605.61  3065.94  3065.95  3067.36  3067.37
eigval :     3069.71  3069.87  3070.17  3070.53  3073.28  3074.06
eigval :     3074.55  3074.75  3079.18  3079.20  3081.77  3081.88
eigval :     3084.17  3084.37  3088.26  3088.32  3089.24  3090.07

   temp. (K)  partition function   enthalpy   heat capacity  entropy
                                   cal/mol     cal/K/mol   cal/K/mol   J/K/mol
 298.15  VIB  0.164E+11            14488.301     97.885     86.844
         ROT  0.185E+08              888.752      2.981     36.230
         INT  0.303E+18            15377.053    100.866    123.073
         TR   0.864E+28             1481.254      4.968     44.050
         TOT                       16858.3069   105.8338   167.1229   699.2422

       T/K    H(0)-H(T)+PV         H(T)/Eh          T*S/Eh         G(T)/Eh
   ------------------------------------------------------------------------
    298.15    0.268654E-01    0.457912E+00    0.794055E-01    0.378507E+00
   ------------------------------------------------------------------------

         :::::::::::::::::::::::::::::::::::::::::::::::::::::
         ::                  THERMODYNAMIC                  ::
         :::::::::::::::::::::::::::::::::::::::::::::::::::::
         :: total free energy         -83.587680601812 Eh   ::
         ::.................................................::
         :: total energy              -83.966187325612 Eh   ::
         :: zero point energy           0.431046783016 Eh   ::
         :: G(RRHO) w/o ZPVE           -0.052540059216 Eh   ::
         :: G(RRHO) contrib.            0.378506723800 Eh   ::
         :::::::::::::::::::::::::::::::::::::::::::::::::::::

           -------------------------------------------------
          | TOTAL ENERGY              -83.966187325612 Eh   |
          | TOTAL ENTHALPY            -83.508275120541 Eh   |
          | TOTAL FREE ENERGY         -83.587680601812 Eh   |
          | GRADIENT NORM               0.000024626254 Eh/α |
           -------------------------------------------------

 * finished run on 2025/09/13 at 05:12:23.327
