   * xtb version 6.7.1 (edcfbbe) compiled by 'albert@albert-system' on 2024-07-22

   ID    Z sym.   atoms
    1    6 C      1-34
    2    1 H      35-56

          program call               : xtb data2507/gas/19a/19a_gas_S0_finalOpt.xtbopt.xyz --gfn 2 --spinpol --tblite --uhf 2 --ohess vtight --parallel 40 --molden --ceasefiles --namespace data2507/gas/19a/19a_gas_T1_preOpt
 * total energy  :   -83.9587530 Eh     change        0.2990333E-08 Eh
 * total energy  :   -83.9643924 Eh     change       -0.5639393E-02 Eh
 * total energy  :   -83.9657422 Eh     change       -0.1349778E-02 Eh
 * total energy  :   -83.9658378 Eh     change       -0.9569073E-04 Eh
 * total energy  :   -83.9658999 Eh     change       -0.6205148E-04 Eh
 * total energy  :   -83.9659195 Eh     change       -0.1961694E-04 Eh
 * total energy  :   -83.9659404 Eh     change       -0.2093664E-04 Eh
 * total energy  :   -83.9659590 Eh     change       -0.1857141E-04 Eh
 * total energy  :   -83.9659692 Eh     change       -0.1017245E-04 Eh
 * total energy  :   -83.9659785 Eh     change       -0.9340324E-05 Eh
 * total energy  :   -83.9660439 Eh     change       -0.6713187E-06 Eh
 * total energy  :   -83.9660445 Eh     change       -0.5598119E-06 Eh
 * total energy  :   -83.9660450 Eh     change       -0.4757102E-06 Eh
 * total energy  :   -83.9660454 Eh     change       -0.4064517E-06 Eh
 * total energy  :   -83.9660457 Eh     change       -0.2999632E-06 Eh
 * total energy  :   -83.9660460 Eh     change       -0.2804875E-06 Eh
 * total energy  :   -83.9660462 Eh     change       -0.2134190E-06 Eh
 * total energy  :   -83.9660464 Eh     change       -0.2220550E-06 Eh
 * total energy  :   -83.9660464 Eh     change       -0.3822896E-07 Eh
   *** GEOMETRY OPTIMIZATION CONVERGED AFTER 44 ITERATIONS ***

 final structure:
================
56
 xtb: 6.7.1 (edcfbbe)
C          -10.14106629062808        0.29177884352623       -0.48295716900554
C           -9.70602808693975       -0.80875247243794       -1.23746191154320
C           -8.38466788913778       -1.15715049108715       -1.25306455313665
C           -7.43504884376551       -0.41925324361854       -0.51314072548880
C           -6.06962371673241       -0.75368064664242       -0.50917897091105
C           -5.14723997155332       -0.01893977860011        0.20771997812904
C           -3.73074271390287       -0.37170272149674        0.20258816265565
C           -3.31803743700183       -1.69811354562956        0.18290013356206
C           -1.97037279519798       -2.02766550823296        0.19109177360147
C           -0.97844339898208       -1.03630422656036        0.20416169785163
C            0.39013301140201       -1.34298118047186        0.20943248305239
C            1.38836308502280       -0.33281782285549        0.21121989868572
C            2.74154597706296       -0.63778707505725        0.21881739676323
C            3.73080625458042        0.37207120694937        0.20308268855624
C            5.14730577838385        0.01932363912771        0.20936981371630
C            5.60176074135943       -1.09085362428615        0.96067749127173
C            6.92120386042707       -1.43091166581412        0.98569248169544
C            7.87727120907816       -0.69550338555690        0.25102166438870
C            9.24539751305887       -1.02737743902170        0.24873401784221
C           10.14142206115731       -0.29251819872513       -0.47873615382304
C            9.70667152890439        0.80668243826994       -1.23534167603160
C            8.38531089696459        1.15502345361821       -1.25210122038887
C            7.43540149403157        0.41839988979489       -0.51128117992313
C            6.06996948290225        0.75281003780697       -0.50845825097828
C            3.31809896251893        1.69844252063699        0.18080969388395
C            1.97042793867052        2.02800928132841        0.18795001055129
C            0.97849157105169        1.03667144438149        0.20254414489886
C           -0.39008426679164        1.34335609511432        0.20682375752479
C           -1.38831482504990        0.33319772958955        0.21017284419679
C           -2.74149689073347        0.63817815794839        0.21678589380923
C           -5.60197358693191        1.09255959270040        0.95689612557263
C           -6.92142372005970        1.43267161783855        0.98079672825630
C           -7.87720745706998        0.69599018353826        0.24703241433335
C           -9.24532585010406        1.02788692438897        0.24359958097347
H          -11.18941228752115        0.55244780783150       -0.48189543524235
H          -10.42664946178973       -1.37802776619858       -1.80657419074631
H           -8.04569594228565       -2.00434964737514       -1.83256379266364
H           -5.74384930976300       -1.59107810217298       -1.10993466775304
H           -4.05526638895783       -2.48732257818873        0.19473616613518
H           -1.67170747490467       -3.06615214320128        0.19369724406935
H            0.69869575111560       -2.37865315763009        0.20900947434602
H            3.04440866701305       -1.67468298064990        0.20285497835703
H            4.88847248188962       -1.65245469142611        1.54597290801131
H            7.25761365725465       -2.27267909163333        1.57486207351123
H            9.57540947547576       -1.87527170714804        0.83250911081673
H           11.18976942945422       -0.55317651299504       -0.47680361015992
H           10.42751360378293        1.37496950583139       -1.80516185198922
H            8.04655989796702        2.00120012909293       -1.83322202648764
H            5.74442722580164        1.58914370623588       -1.11081876335170
H            4.05531899520524        2.48767512314663        0.19142858087505
H            1.67176466936080        3.06649707597275        0.18853297530039
H           -0.69864536262358        2.37902611523345        0.20439083048688
H           -3.04435771550685        1.67504569038863        0.19882375749773
H           -4.88890556112471        1.65518105890211        1.54148136157139
H           -7.25805886683641        2.27547603367678        1.56835449716552
H           -9.57556369598708        1.87680081322380        0.82576449548426

 projected vibrational frequencies (cm⁻¹)
eigval :       -0.00    -0.00     0.00     0.00     0.00     0.00
eigval :       11.67    26.17    27.98    36.82    51.09    56.71
eigval :       85.13   109.76   110.27   129.34   166.76   168.50
eigval :      172.94   178.07   219.68   233.82   254.96   260.85
eigval :      290.65   322.78   338.66   344.91   363.90   372.39
eigval :      392.85   398.36   410.63   424.34   438.41   440.61
eigval :      447.97   448.23   490.93   494.31   499.68   501.08
eigval :      510.34   536.79   559.24   570.05   573.28   588.30
eigval :      591.71   617.25   629.10   634.23   654.04   679.13
eigval :      694.20   714.26   721.72   722.16   735.05   752.79
eigval :      754.46   766.78   779.21   796.85   797.66   801.93
eigval :      807.87   821.91   829.20   830.52   830.83   839.60
eigval :      840.59   865.85   867.35   868.63   877.58   877.64
eigval :      887.30   889.31   894.49   895.64   913.35   913.40
eigval :      923.31   923.49   927.06   927.12   964.81   965.44
eigval :     1075.04  1075.26  1081.65  1081.86  1126.72  1143.05
eigval :     1145.39  1146.87  1154.36  1171.22  1175.53  1179.54
eigval :     1179.81  1181.52  1197.11  1203.95  1224.31  1228.54
eigval :     1230.90  1235.98  1257.18  1261.74  1262.75  1265.21
eigval :     1273.96  1291.30  1299.37  1310.31  1329.09  1331.69
eigval :     1339.13  1364.59  1370.08  1377.39  1398.41  1399.11
eigval :     1410.97  1421.17  1426.67  1427.93  1437.33  1447.16
eigval :     1458.10  1463.46  1494.49  1498.36  1500.97  1503.40
eigval :     1523.88  1527.64  1552.45  1554.66  1593.77  1597.45
eigval :     1605.89  1605.93  3065.80  3065.83  3067.53  3067.56
eigval :     3069.86  3069.87  3070.07  3070.49  3072.88  3073.70
eigval :     3075.21  3075.31  3079.15  3079.44  3079.46  3079.48
eigval :     3085.78  3085.99  3086.72  3087.06  3089.20  3089.80

   temp. (K)  partition function   enthalpy   heat capacity  entropy
                                   cal/mol     cal/K/mol   cal/K/mol   J/K/mol
 298.15  VIB  0.180E+11            14499.303     97.942     87.010
         ROT  0.173E+08              888.752      2.981     36.098
         INT  0.311E+18            15388.056    100.923    123.108
         TR   0.864E+28             1481.254      4.968     44.050
         TOT                       16869.3095   105.8913   167.1578   699.3884

       T/K    H(0)-H(T)+PV         H(T)/Eh          T*S/Eh         G(T)/Eh
   ------------------------------------------------------------------------
    298.15    0.268830E-01    0.457894E+00    0.794221E-01    0.378472E+00
   ------------------------------------------------------------------------

         :::::::::::::::::::::::::::::::::::::::::::::::::::::
         ::                  THERMODYNAMIC                  ::
         :::::::::::::::::::::::::::::::::::::::::::::::::::::
         :: total free energy         -83.587574856082 Eh   ::
         ::.................................................::
         :: total energy              -83.966046441516 Eh   ::
         :: zero point energy           0.431010715279 Eh   ::
         :: G(RRHO) w/o ZPVE           -0.052539129845 Eh   ::
         :: G(RRHO) contrib.            0.378471585434 Eh   ::
         :::::::::::::::::::::::::::::::::::::::::::::::::::::

           -------------------------------------------------
          | TOTAL ENERGY              -83.966046441516 Eh   |
          | TOTAL ENTHALPY            -83.508152770295 Eh   |
          | TOTAL FREE ENERGY         -83.587574856082 Eh   |
          | GRADIENT NORM               0.000043426585 Eh/α |
           -------------------------------------------------

 * finished run on 2025/09/13 at 05:10:00.395
