   * xtb version 6.7.1 (edcfbbe) compiled by 'albert@albert-system' on 2024-07-22

   ID    Z sym.   atoms
    1    6 C      1-34
    2    1 H      35-56

          program call               : xtb data2507/gas/19a/19a_gas_S0_crest.xyz --gfn 2 --ohess vtight --parallel 40 --molden --ceasefiles --namespace data2507/gas/19a/19a_gas_S0_finalOpt
          :  Hamiltonian                  GFN2-xTB          :
 * total energy  :   -84.0310281 Eh     change       -0.5645688E-09 Eh
 * total energy  :   -84.0310287 Eh     change       -0.6227369E-06 Eh
 * total energy  :   -84.0310294 Eh     change       -0.6555005E-06 Eh
 * total energy  :   -84.0310306 Eh     change       -0.1209588E-05 Eh
 * total energy  :   -84.0310316 Eh     change       -0.1045514E-05 Eh
 * total energy  :   -84.0310321 Eh     change       -0.4373841E-06 Eh
 * total energy  :   -84.0310322 Eh     change       -0.1252708E-06 Eh
 * total energy  :   -84.0310322 Eh     change        0.2125419E-07 Eh
 * total energy  :   -84.0310322 Eh     change       -0.8077315E-07 Eh
   *** GEOMETRY OPTIMIZATION CONVERGED AFTER 9 ITERATIONS ***

 final structure:
================
56
 xtb: 6.7.1 (edcfbbe)
C          -10.12505931164859        0.27272671506012       -0.47086138635400
C           -9.66866040878527       -0.76857270644820       -1.29441754975899
C           -8.34104654112966       -1.08998984313215       -1.32984154356831
C           -7.40707078852095       -0.38455137028364       -0.54153075160430
C           -6.03422264002393       -0.69653754578397       -0.55210461422979
C           -5.13417630630843        0.00268545724304        0.21715145793184
C           -3.70261168875100       -0.32711758888261        0.19917051185640
C           -3.29277747323485       -1.68675063871093        0.18837629614446
C           -1.97610680032894       -2.02165086898261        0.18186282306335
C           -0.96588652877518       -1.02551771012331        0.17834186905219
C            0.38874047080135       -1.34015600554399        0.17830112813852
C            1.36696615083935       -0.34784870846829        0.18167340596494
C            2.74784071256405       -0.65554840400857        0.19667250767757
C            3.70250034777915        0.32662910653777        0.19826926297101
C            5.13407878147987       -0.00296556175999        0.21758733313197
C            5.60485127995564       -1.05259123498124        1.03775406709707
C            6.93028858298960       -1.37245825079159        1.07600705540043
C            7.86952719149079       -0.66938109483432        0.29211956655065
C            9.24525497353206       -0.97514916977712        0.30828566927204
C           10.12579926827532       -0.27173548673120       -0.46532561391160
C            9.66982246763975        0.76879582017664       -1.29009333857351
C            8.34209525671313        1.08953242600429       -1.32724595295046
C            7.40758794375783        0.38424847504143       -0.53941970870245
C            6.03463335632475        0.69565700916922       -0.55166274781973
C            3.29258194172514        1.68622202613823        0.18326154387904
C            1.97592352602252        2.02109103955677        0.17538803358966
C            0.96570560531711        1.02495405526540        0.17498809818662
C           -0.38890910986854        1.33959857569453        0.17399931657706
C           -1.36712939382948        0.34730888945873        0.18064301249373
C           -2.74799601540850        0.65506566509031        0.19472526795212
C           -5.60527528750102        1.05328839251835        1.03585235781434
C           -6.93067724841962        1.37345686132507        1.07279488989665
C           -7.86941362647873        0.66996047159033        0.28867433236980
C           -9.24503521920147        0.97628361685087        0.30321471375282
H          -11.17830489202713        0.51257260152574       -0.45532618846238
H          -10.37811011059184       -1.31352856737086       -1.90017938427767
H           -7.98562630937266       -1.89137005254174       -1.96234298835793
H           -5.69175520690648       -1.49048446195016       -1.20121554586371
H           -4.05131365923467       -2.45563957876700        0.21001982715216
H           -1.67294489961491       -3.05928745270054        0.18410470015276
H            0.69014934040519       -2.37893313321214        0.17964286661517
H            3.03813112452892       -1.69689639518347        0.18581866213251
H            4.89826906882307       -1.58695722307942        1.65609996037019
H            7.28217334358573       -2.17130553183165        1.71381137710610
H            9.59109631096544       -1.77751238668206        0.94485059713201
H           11.17913855389479       -0.51108380058773       -0.44848596619873
H           10.37970153117229        1.31371417686159       -1.89538452933286
H            7.98700102559127        1.89032143082006       -1.96067846032058
H            5.69257095422011        1.48879669374794       -1.20196562169502
H            4.05103458894555        2.45524412882209        0.20269825707416
H            1.67275853297776        3.05872763407365        0.17424366272427
H           -0.69031627562312        2.37837391161092        0.17197810831832
H           -3.03837960958208        1.69635330924703        0.18074486426813
H           -4.89896936352917        1.58806530663232        1.65416553387526
H           -7.28290389017100        2.17295621929285        1.70959278141472
H           -9.59121526195039        1.77924696899528        0.93883936838208

          :  Hamiltonian                  GFN2-xTB          :
         :: gradient norm              0.000038782209 Eh/a0 ::
         :: HOMO-LUMO gap              2.102702731350 eV    ::
         :: SCC energy               -85.699926149059 Eh    ::
         :: -> dispersion             -0.070930799940 Eh    ::
         :: repulsion energy           1.668893903478 Eh    ::

    * Orbital Energies and Occupations

         #    Occupation            Energy/Eh            Energy/eV
      -------------------------------------------------------------
         1        2.0000           -0.6504616             -17.7000
       ...           ...                  ...                  ...
        67        2.0000           -0.4233181             -11.5191
        68        2.0000           -0.4156548             -11.3105
        69        2.0000           -0.4150484             -11.2940
        70        2.0000           -0.4121736             -11.2158
        71        2.0000           -0.4097207             -11.1491
        72        2.0000           -0.4079291             -11.1003
        73        2.0000           -0.4058957             -11.0450
        74        2.0000           -0.4044918             -11.0068
        75        2.0000           -0.3930870             -10.6964
        76        2.0000           -0.3894435             -10.5973
        77        2.0000           -0.3765359             -10.2461
        78        2.0000           -0.3759799             -10.2309
        79        2.0000           -0.3583698              -9.7517 (HOMO)
        80                         -0.2810969              -7.6490 (LUMO)
        81                         -0.2593148              -7.0563
        82                         -0.2586341              -7.0378
        83                         -0.2389622              -6.5025
        84                         -0.2336273              -6.3573
        85                         -0.2143389              -5.8325
        86                         -0.2142446              -5.8299
        87                         -0.1892845              -5.1507
        88                         -0.1865277              -5.0757
        89                         -0.1730941              -4.7101
        90                         -0.1715456              -4.6680
       ...                                ...                  ...
       158                          0.7256751              19.7466
      -------------------------------------------------------------
                  HL-Gap            0.0772729 Eh            2.1027 eV

     #   Z          covCN         q      C6AA      α(0)
     1   6 C        2.916    -0.030    28.761     8.794
     2   6 C        2.916    -0.030    28.752     8.793
     3   6 C        2.918    -0.035    28.880     8.813
     4   6 C        2.986     0.012    27.735     8.639
     5   6 C        2.924    -0.041    29.012     8.833
     6   6 C        2.974     0.009    27.821     8.652
     7   6 C        2.972     0.009    27.812     8.651
     8   6 C        2.919    -0.034    28.847     8.808
     9   6 C        2.915    -0.036    28.895     8.815
    10   6 C        2.983     0.010    27.778     8.645
    11   6 C        2.921    -0.043    29.068     8.841
    12   6 C        2.981     0.011    27.766     8.644
    13   6 C        2.923    -0.041    29.015     8.833
    14   6 C        2.972     0.009    27.812     8.651
    15   6 C        2.974     0.009    27.821     8.652
    16   6 C        2.920    -0.035    28.868     8.811
    17   6 C        2.916    -0.036    28.897     8.815
    18   6 C        2.987     0.011    27.754     8.642
    19   6 C        2.918    -0.035    28.869     8.811
    20   6 C        2.916    -0.030    28.761     8.794
    21   6 C        2.916    -0.030    28.752     8.793
    22   6 C        2.918    -0.035    28.880     8.813
    23   6 C        2.986     0.012    27.735     8.639
    24   6 C        2.924    -0.041    29.012     8.833
    25   6 C        2.919    -0.034    28.847     8.808
    26   6 C        2.915    -0.036    28.895     8.815
    27   6 C        2.983     0.010    27.778     8.645
    28   6 C        2.921    -0.043    29.068     8.841
    29   6 C        2.981     0.011    27.766     8.644
    30   6 C        2.923    -0.041    29.015     8.833
    31   6 C        2.920    -0.035    28.868     8.811
    32   6 C        2.916    -0.036    28.897     8.815
    33   6 C        2.987     0.011    27.754     8.642
    34   6 C        2.918    -0.035    28.869     8.811
    35   1 H        0.926     0.029     2.604     2.523
    36   1 H        0.926     0.029     2.603     2.523
    37   1 H        0.926     0.030     2.591     2.517
    38   1 H        0.926     0.032     2.562     2.503
    39   1 H        0.926     0.031     2.569     2.507
    40   1 H        0.926     0.030     2.584     2.514
    41   1 H        0.925     0.031     2.579     2.511
    42   1 H        0.926     0.031     2.567     2.505
    43   1 H        0.926     0.031     2.568     2.506
    44   1 H        0.926     0.030     2.581     2.513
    45   1 H        0.926     0.030     2.590     2.517
    46   1 H        0.926     0.029     2.604     2.523
    47   1 H        0.926     0.029     2.603     2.523
    48   1 H        0.926     0.030     2.591     2.517
    49   1 H        0.926     0.032     2.561     2.503
    50   1 H        0.926     0.031     2.569     2.507
    51   1 H        0.926     0.030     2.584     2.514
    52   1 H        0.925     0.031     2.579     2.511
    53   1 H        0.926     0.031     2.567     2.505
    54   1 H        0.926     0.031     2.568     2.506
    55   1 H        0.926     0.030     2.581     2.512
    56   1 H        0.926     0.030     2.590     2.517

molecular dipole:
                 x           y           z       tot (Debye)
 q only:       -0.000       0.000       0.014
   full:       -0.000       0.000       0.013       0.032

 projected vibrational frequencies (cm⁻¹)
eigval :       -0.00    -0.00    -0.00     0.00     0.00     0.00
eigval :       12.14    25.98    27.64    36.33    49.95    55.35
eigval :       87.08   111.91   114.14   129.72   167.90   170.37
eigval :      173.03   177.66   218.76   240.60   254.12   275.39
eigval :      296.78   336.28   341.06   352.04   364.48   380.88
eigval :      395.14   425.04   432.27   440.66   445.35   449.27
eigval :      450.66   452.82   493.61   497.59   501.48   504.11
eigval :      511.64   538.97   564.09   587.60   588.01   594.22
eigval :      595.79   621.40   634.42   646.62   655.31   701.36
eigval :      713.23   723.52   723.97   726.32   754.64   757.01
eigval :      786.51   789.97   798.58   799.38   818.13   832.81
eigval :      833.52   837.37   841.00   859.75   864.02   868.00
eigval :      873.40   873.84   878.08   880.23   882.55   882.77
eigval :      889.70   891.54   914.74   914.76   922.40   922.73
eigval :      924.62   924.77   928.54   928.54   968.03   970.02
eigval :     1074.44  1075.00  1081.49  1081.81  1144.66  1144.69
eigval :     1152.84  1168.21  1171.13  1174.11  1177.51  1179.88
eigval :     1179.93  1184.51  1201.12  1203.25  1229.09  1229.78
eigval :     1245.08  1249.58  1261.33  1261.91  1266.00  1268.79
eigval :     1289.01  1304.15  1325.66  1326.12  1333.68  1335.90
eigval :     1368.82  1373.03  1396.51  1400.58  1405.50  1425.36
eigval :     1426.15  1428.50  1432.90  1441.42  1459.41  1467.66
eigval :     1476.90  1504.59  1504.74  1531.59  1538.73  1562.01
eigval :     1562.49  1582.22  1599.07  1605.24  1606.66  1610.21
eigval :     1611.42  1619.53  3063.17  3063.30  3065.90  3065.96
eigval :     3066.72  3066.80  3068.18  3068.51  3069.49  3069.79
eigval :     3071.42  3071.74  3072.80  3073.33  3078.99  3078.99
eigval :     3084.08  3084.20  3084.80  3085.01  3089.01  3089.18

   temp. (K)  partition function   enthalpy   heat capacity  entropy
                                   cal/mol     cal/K/mol   cal/K/mol   J/K/mol
 298.15  VIB  0.138E+11            14262.344     96.319     85.613
         ROT  0.172E+08              888.752      2.981     36.087
         INT  0.237E+18            15151.096     99.299    121.699
         TR   0.864E+28             1481.254      4.968     44.050
         TOT                       16632.3503   104.2675   165.7490   693.4939

       T/K    H(0)-H(T)+PV         H(T)/Eh          T*S/Eh         G(T)/Eh
   ------------------------------------------------------------------------
    298.15    0.265053E-01    0.460996E+00    0.787527E-01    0.382243E+00
   ------------------------------------------------------------------------

         :::::::::::::::::::::::::::::::::::::::::::::::::::::
         ::                  THERMODYNAMIC                  ::
         :::::::::::::::::::::::::::::::::::::::::::::::::::::
         :: total free energy         -83.648789162990 Eh   ::
         ::.................................................::
         :: total energy              -84.031032245581 Eh   ::
         :: zero point energy           0.434490452735 Eh   ::
         :: G(RRHO) w/o ZPVE           -0.052247370143 Eh   ::
         :: G(RRHO) contrib.            0.382243082592 Eh   ::
         :::::::::::::::::::::::::::::::::::::::::::::::::::::

           -------------------------------------------------
          | TOTAL ENERGY              -84.031032245581 Eh   |
          | TOTAL ENTHALPY            -83.570036455540 Eh   |
          | TOTAL FREE ENERGY         -83.648789162990 Eh   |
          | GRADIENT NORM               0.000038780873 Eh/α |
          | HOMO-LUMO GAP               2.102702721955 eV   |
           -------------------------------------------------

 * finished run on 2025/09/13 at 05:09:56.281
