   * xtb version 6.7.1 (edcfbbe) compiled by 'albert@albert-system' on 2024-07-22

   ID    Z sym.   atoms
    1    6 C      1-7, 9-20, 22-25, 27-30, 32-49, 51-68
    2    8 O      8
    3    7 N      21, 26, 31, 50
    4    1 H      69-112

          program call               : xtb data2507/toluene/V–TPA/V–TPA_toluene_S0_finalOpt.xtbopt.xyz --gfn 2 --uhf 2 --gbsa toluene --ohess vtight --parallel 40 --molden --ceasefiles --namespace data2507/toluene/V–TPA/V–TPA_toluene_T1_preOpt
      * Solvation model:               GBSA
        Solvent                        toluene
        Solvent mass                       9.2140E+01 g/mol
          :  Hamiltonian                  GFN2-xTB          :
 * total energy  :  -173.1718049 Eh     change       -0.7947338E-07 Eh
 * total energy  :  -173.1742464 Eh     change       -0.2441439E-02 Eh
 * total energy  :  -173.1750374 Eh     change       -0.7910099E-03 Eh
 * total energy  :  -173.1752280 Eh     change       -0.1906481E-03 Eh
 * total energy  :  -173.1753857 Eh     change       -0.1577032E-03 Eh
 * total energy  :  -173.1754355 Eh     change       -0.4971786E-04 Eh
 * total energy  :  -173.1754626 Eh     change       -0.2712552E-04 Eh
 * total energy  :  -173.1754790 Eh     change       -0.1638946E-04 Eh
 * total energy  :  -173.1754878 Eh     change       -0.8842399E-05 Eh
 * total energy  :  -173.1755084 Eh     change       -0.2057831E-04 Eh
 * total energy  :  -173.1757110 Eh     change       -0.2041928E-06 Eh
 * total energy  :  -173.1757111 Eh     change       -0.1696428E-06 Eh
 * total energy  :  -173.1757113 Eh     change       -0.1674584E-06 Eh
 * total energy  :  -173.1757115 Eh     change       -0.1544866E-06 Eh
 * total energy  :  -173.1757116 Eh     change       -0.1838758E-06 Eh
 * total energy  :  -173.1757119 Eh     change       -0.2458949E-06 Eh
 * total energy  :  -173.1757122 Eh     change       -0.2657765E-06 Eh
 * total energy  :  -173.1757123 Eh     change       -0.1726651E-06 Eh
 * total energy  :  -173.1757124 Eh     change       -0.7712302E-07 Eh
   *** GEOMETRY OPTIMIZATION CONVERGED AFTER 86 ITERATIONS ***

 final structure:
================
112
 xtb: 6.7.1 (edcfbbe)
C           12.47509540254815        2.59286262455111        2.32456563120668
C           11.58888277248045        1.61441631709549        2.50493280359989
C           11.01271860296158        0.75528245218352        1.48474925224894
C           11.33803427288125        0.85134965351655        0.12691348620689
C           10.75845950050295        0.01493406888853       -0.80305033268454
C            9.83725878967694       -0.95323469437911       -0.41436937870511
C            9.22438996831831       -1.88035660793858       -1.43490453492047
O            7.93694237649080       -2.35369912787307       -1.08956664289468
C            6.89438793549097       -1.47724633689499       -1.07463964092085
C            6.97717025947589       -0.12059128278818       -1.35509347027994
C            5.83812205568309        0.68258038439327       -1.34994594059365
C            4.58720559754106        0.18017881396980       -1.04677553391543
C            4.49822428247766       -1.16862654252075       -0.73049681336222
C            5.63485992376614       -2.00805329324129       -0.76247840300965
C            5.18264777993022       -3.33233474217397       -0.45844610771540
C            5.82786065825586       -4.55690381828457       -0.32678145933007
C            5.07861071974200       -5.66488859772008        0.01724728768046
C            3.70731817342112       -5.56301335629664        0.24761906169739
C            3.04367456071400       -4.35516529615771        0.11935401138610
C            3.78284105520610       -3.24360934304813       -0.25661150682479
N            3.38136263067841       -1.92893510115707       -0.42377705648383
C            2.08092527967008       -1.45407676442342       -0.31905411947232
C            1.01696865191212       -2.13991060849590       -0.93210369116323
C           -0.26471775081355       -1.66565394319563       -0.84270051036764
C           -0.54475832293587       -0.48047565291051       -0.13418327030421
N           -1.84165299260663        0.00669484462184       -0.05058548019077
C           -2.06940972391319        1.37641511058711       -0.05605494237770
C           -3.11255750461107        1.93568610161193        0.70745582839178
C           -3.33939326485477        3.28648063104175        0.69699100954233
C           -2.53588569004500        4.14348845610146       -0.07622335699861
N           -2.76835225629263        5.51183094880838       -0.08742251849037
C           -1.80488436723793        6.50142746364209        0.02817231452455
C           -0.44037783549871        6.38693854770025        0.24198701515556
C            0.30042389161106        7.55192536831122        0.35447899996162
C           -0.30291480551808        8.80577825278662        0.26697118216143
C           -1.66616406036858        8.92818275736191        0.08551694874033
C           -2.43191346103320        7.77195871312395       -0.02612519112039
C           -3.83508042382995        7.53144038024442       -0.18211117409386
C           -4.94056063670238        8.36632946128351       -0.31082355879473
C           -6.18494620244178        7.79589921880366       -0.49123199639544
C           -6.33747186183168        6.41186397379918       -0.56164757990374
C           -5.25288260975223        5.56056245167566       -0.42992080163408
C           -4.00493746380257        6.12427438689693       -0.21672351463083
C           -1.49270846978895        3.58681398644728       -0.83759782668981
C           -1.26410651690493        2.23634375977241       -0.82807262012186
C           -2.91195225665916       -0.87394268461499        0.02700291423388
C           -2.79555146341455       -2.08874809581482        0.73048350218013
C           -3.85116077302330       -2.95869529074192        0.80241725361686
C           -5.07335869960244       -2.65814554753788        0.17462632010577
N           -6.14132451684339       -3.54186636724502        0.24291509113504
C           -7.45856861812894       -3.20530336769511        0.51262932257194
C           -8.00701417605773       -1.97678877702884        0.84525188259161
C           -9.36606694891036       -1.92000868372496        1.10617196815631
C          -10.16350139283392       -3.06209361941374        1.04709226553028
C           -9.61923640228283       -4.29512877554027        0.74728674292314
C           -8.25515199981987       -4.37795486468598        0.48624246667451
C           -7.37422547378394       -5.46620822315759        0.18539611900284
C           -7.56686502573671       -6.83304483090853        0.01146768846792
C           -6.48060549736067       -7.61945718640918       -0.31721338583300
C           -5.21538478910926       -7.06034569425557       -0.49137790026953
C           -4.99808148297410       -5.70340339915589       -0.31843611068899
C           -6.07689824532338       -4.91193683906077        0.04258652670674
C           -5.19173876178578       -1.44446946408529       -0.52626940956003
C           -4.13751974884529       -0.57322190110350       -0.59902542537598
C            0.52134574131617        0.20144012802019        0.48515505434259
C            1.80232340950822       -0.27475151524308        0.39501384938444
C            9.51175144663160       -1.06411887281397        0.93281343744626
C           10.08507728847959       -0.22225945606663        1.86232571612679
H           12.86900191331962        2.85408097888846        1.35744557887318
H           12.84094966266294        3.17352149565941        3.15425292842442
H           11.23896688984071        1.41185058106455        3.51081104943005
H           12.04985214039850        1.59164481813785       -0.20398337440506
H           11.02157783681422        0.10972282485927       -1.84800056771113
H            9.82862725202453       -2.79314400037658       -1.51134031402174
H            9.20367099329639       -1.40202797891600       -2.42388957775810
H            7.92775979517837        0.33443601925632       -1.58138835122937
H            5.94507924083644        1.72899466774989       -1.59366103145350
H            3.71634422063160        0.81504698417470       -1.07293851162797
H            6.89256517811704       -4.62440128710173       -0.48720267343301
H            5.56106584216766       -6.62589230359628        0.12273787853041
H            3.15205043422775       -6.44313648488020        0.53691260856307
H            1.98602119934970       -4.28588449726969        0.32238627675696
H            1.22800512759022       -3.02194240449890       -1.51667343963976
H           -1.06904130078200       -2.17657022942143       -1.35025284330362
H           -3.71094025285823        1.28977917708369        1.33225885204015
H           -4.11243261461889        3.71027141559291        1.31934760196645
H            0.03693889852577        5.42328881742741        0.33392998136360
H            1.36592873822144        7.48732758410140        0.51905115550575
H            0.30821180121210        9.69247800295998        0.35435996881564
H           -2.13455420603121        9.89999224190938        0.03762847914078
H           -4.82165510294213        9.43905662529835       -0.27663742036795
H           -7.05512455194801        8.42833889261327       -0.59229402976041
H           -7.31988635241962        5.99474072105279       -0.72724481968607
H           -5.38256365189570        4.49199788724462       -0.50815719292718
H           -0.89982144267771        4.23144237642490       -1.46802858231658
H           -0.48534994018419        1.81342159329344       -1.44473362502993
H           -1.87297697304823       -2.31068918651366        1.24545240820126
H           -3.76667259943532       -3.86536151800678        1.38146070378327
H           -7.39829221628634       -1.08846824947716        0.91666435967311
H           -9.81556432461175       -0.97283361327924        1.36562837128317
H          -11.22106005725425       -2.97797198438271        1.25168024625482
H          -10.23494705805687       -5.18188783142602        0.72170669506049
H           -8.54992437990530       -7.26494541995370        0.12602456189148
H           -6.61093438848830       -8.68310447097381       -0.45518246787996
H           -4.38891527462363       -7.69684927884107       -0.77128754587963
H           -4.01776457087622       -5.28134645578312       -0.47819801402081
H           -6.11072731625813       -1.22640547824899       -1.04810333787251
H           -4.22495867541198        0.33783406962143       -1.17170236899828
H            0.31138229315193        1.08806401459923        1.06433928675084
H            2.60562441626425        0.22995795834085        0.90919074920920
H            8.79809872391001       -1.81368247546373        1.24542425009849
H            9.81539901023122       -0.32006271587722        2.90491304194265

          :  Hamiltonian                  GFN2-xTB          :
         :: gradient norm              0.000031319883 Eh/a0 ::
         :: HOMO-LUMO gap              0.001516269366 eV    ::
         :: SCC energy              -176.352103717578 Eh    ::
         :: -> dispersion             -0.157470882438 Eh    ::
         :: -> Gsolv                  -0.072142411052 Eh    ::
         :: repulsion energy           3.176391313230 Eh    ::

    * Orbital Energies and Occupations

         #    Occupation            Energy/Eh            Energy/eV
      -------------------------------------------------------------
         1        2.0000           -0.7165099             -19.4972
       ...           ...                  ...                  ...
       150        2.0000           -0.4049441             -11.0191
       151        2.0000           -0.4049054             -11.0180
       152        2.0000           -0.4030385             -10.9672
       153        2.0000           -0.3958101             -10.7705
       154        2.0000           -0.3802003             -10.3458
       155        2.0000           -0.3770462             -10.2599
       156        2.0000           -0.3767426             -10.2517
       157        2.0000           -0.3767330             -10.2514
       158        2.0000           -0.3716796             -10.1139
       159        1.9999           -0.3640877              -9.9073
       160        1.9996           -0.3623633              -9.8604
       161        1.0005           -0.3476222              -9.4593
       162        0.4622           -0.2509290              -6.8281 (HOMO)
       163        0.4477           -0.2508733              -6.8266 (LUMO)
       164        0.0888           -0.2488613              -6.7719
       165        0.0012           -0.2447087              -6.6589
       166        0.0000           -0.2413420              -6.5672
       167        0.0000           -0.2396423              -6.5210
       168        0.0000           -0.2367442              -6.4421
       169                         -0.2307114              -6.2780
       170                         -0.2306466              -6.2762
       171                         -0.2215217              -6.0279
       172                         -0.2215042              -6.0274
       173                         -0.2198542              -5.9825
       ...                                ...                  ...
       316                          0.7442014              20.2508
      -------------------------------------------------------------
                  HL-Gap            0.0000557 Eh            0.0015 eV

     #   Z          covCN         q      C6AA      α(0)
     1   6 C        2.837    -0.093    30.319     9.024
     2   6 C        2.896    -0.036    28.886     8.812
     3   6 C        2.969     0.007    27.858     8.658
     4   6 C        2.922    -0.036    28.903     8.816
     5   6 C        2.920    -0.043    29.057     8.840
     6   6 C        2.968    -0.009    28.233     8.716
     7   6 C        3.697     0.079    19.416     6.303
     8   8 O        1.704    -0.285    18.727     5.843
     9   6 C        2.855     0.140    24.941     8.186
    10   6 C        2.917    -0.077    29.913     8.969
    11   6 C        2.924    -0.040    28.995     8.830
    12   6 C        2.908    -0.060    29.493     8.905
    13   6 C        3.069     0.042    27.000     8.520
    14   6 C        3.067    -0.041    28.952     8.823
    15   6 C        3.065    -0.011    28.222     8.711
    16   6 C        2.911    -0.036    28.893     8.814
    17   6 C        2.919    -0.039    28.976     8.827
    18   6 C        2.923    -0.040    28.985     8.829
    19   6 C        2.909    -0.049    29.227     8.865
    20   6 C        3.070     0.041    26.999     8.520
    21   7 N        2.800    -0.023    21.684     6.916
    22   6 C        2.910     0.050    26.883     8.502
    23   6 C        2.917    -0.044    29.080     8.843
    24   6 C        2.916    -0.043    29.061     8.840
    25   6 C        2.928     0.043    27.036     8.527
    26   7 N        2.751    -0.004    21.345     6.862
    27   6 C        2.928     0.043    27.038     8.527
    28   6 C        2.916    -0.043    29.059     8.840
    29   6 C        2.917    -0.044    29.089     8.844
    30   6 C        2.910     0.050    26.872     8.500
    31   7 N        2.797    -0.027    21.767     6.929
    32   6 C        3.067     0.042    26.981     8.517
    33   6 C        2.909    -0.050    29.235     8.866
    34   6 C        2.923    -0.040    29.002     8.831
    35   6 C        2.919    -0.040    28.993     8.830
    36   6 C        2.911    -0.037    28.913     8.817
    37   6 C        3.063    -0.020    28.433     8.744
    38   6 C        3.063    -0.020    28.433     8.744
    39   6 C        2.911    -0.037    28.912     8.817
    40   6 C        2.919    -0.040    28.993     8.830
    41   6 C        2.923    -0.040    29.003     8.832
    42   6 C        2.909    -0.050    29.235     8.866
    43   6 C        3.068     0.042    26.981     8.517
    44   6 C        2.917    -0.044    29.088     8.844
    45   6 C        2.916    -0.043    29.062     8.840
    46   6 C        2.928     0.043    27.037     8.527
    47   6 C        2.916    -0.043    29.061     8.840
    48   6 C        2.917    -0.044    29.089     8.844
    49   6 C        2.910     0.050    26.872     8.500
    50   7 N        2.797    -0.027    21.763     6.929
    51   6 C        3.068     0.042    26.983     8.518
    52   6 C        2.909    -0.050    29.234     8.866
    53   6 C        2.922    -0.040    29.004     8.832
    54   6 C        2.919    -0.040    28.992     8.830
    55   6 C        2.911    -0.037    28.912     8.817
    56   6 C        3.063    -0.020    28.433     8.744
    57   6 C        3.063    -0.020    28.433     8.744
    58   6 C        2.911    -0.037    28.913     8.817
    59   6 C        2.919    -0.040    28.992     8.830
    60   6 C        2.922    -0.040    29.002     8.831
    61   6 C        2.909    -0.050    29.235     8.866
    62   6 C        3.067     0.042    26.983     8.518
    63   6 C        2.917    -0.044    29.089     8.844
    64   6 C        2.916    -0.043    29.061     8.840
    65   6 C        2.916    -0.043    29.058     8.840
    66   6 C        2.916    -0.044    29.084     8.844
    67   6 C        2.919    -0.033    28.834     8.806
    68   6 C        2.927    -0.038    28.952     8.824
    69   1 H        0.926     0.033     2.538     2.491
    70   1 H        0.926     0.031     2.569     2.507
    71   1 H        0.925     0.028     2.609     2.526
    72   1 H        0.926     0.036     2.509     2.477
    73   1 H        0.925     0.027     2.633     2.538
    74   1 H        0.924     0.056     2.243     2.342
    75   1 H        0.923     0.035     2.515     2.480
    76   1 H        0.926     0.033     2.540     2.492
    77   1 H        0.926     0.035     2.518     2.482
    78   1 H        0.926     0.039     2.465     2.455
    79   1 H        0.926     0.036     2.504     2.474
    80   1 H        0.926     0.028     2.617     2.530
    81   1 H        0.926     0.030     2.582     2.513
    82   1 H        0.926     0.035     2.520     2.483
    83   1 H        0.926     0.047     2.355     2.400
    84   1 H        0.926     0.046     2.374     2.409
    85   1 H        0.926     0.045     2.383     2.414
    86   1 H        0.926     0.046     2.368     2.406
    87   1 H        0.926     0.032     2.554     2.499
    88   1 H        0.926     0.028     2.614     2.528
    89   1 H        0.926     0.026     2.638     2.540
    90   1 H        0.926     0.028     2.615     2.529
    91   1 H        0.926     0.028     2.616     2.529
    92   1 H        0.926     0.026     2.637     2.539
    93   1 H        0.926     0.028     2.612     2.527
    94   1 H        0.926     0.032     2.554     2.499
    95   1 H        0.926     0.046     2.368     2.407
    96   1 H        0.926     0.045     2.384     2.414
    97   1 H        0.926     0.045     2.381     2.413
    98   1 H        0.926     0.046     2.366     2.405
    99   1 H        0.926     0.032     2.553     2.499
   100   1 H        0.926     0.028     2.612     2.528
   101   1 H        0.926     0.026     2.637     2.540
   102   1 H        0.926     0.028     2.616     2.529
   103   1 H        0.926     0.028     2.616     2.529
   104   1 H        0.926     0.026     2.637     2.539
   105   1 H        0.926     0.028     2.611     2.527
   106   1 H        0.926     0.032     2.551     2.498
   107   1 H        0.926     0.046     2.368     2.406
   108   1 H        0.926     0.045     2.385     2.415
   109   1 H        0.926     0.045     2.377     2.411
   110   1 H        0.926     0.047     2.358     2.401
   111   1 H        0.926     0.031     2.579     2.511
   112   1 H        0.925     0.029     2.597     2.520

molecular dipole:
                 x           y           z       tot (Debye)
 q only:       -1.178       0.015      -0.253
   full:       -1.057       0.073      -0.336       2.826

 projected vibrational frequencies (cm⁻¹)
eigval :       -0.00    -0.00    -0.00     0.00     0.00     0.00
eigval :        3.03     5.51     7.67    10.25    12.43    14.56
eigval :       17.44    20.81    23.39    34.06    38.10    41.05
eigval :       47.42    55.88    55.99    65.39    81.73    87.26
eigval :       91.70    94.42   104.37   105.39   106.88   116.64
eigval :      119.64   130.01   143.48   152.74   163.98   166.82
eigval :      173.93   177.43   178.33   179.74   209.11   233.42
eigval :      234.04   234.57   245.79   254.22   263.55   268.09
eigval :      270.06   285.44   297.64   299.64   309.23   311.43
eigval :      322.13   324.22   366.05   369.50   382.62   385.84
eigval :      390.96   392.08   395.70   398.72   399.76   401.90
eigval :      402.22   403.91   407.35   415.29   419.26   420.21
eigval :      427.31   436.32   437.68   447.56   454.32   476.74
eigval :      480.73   483.24   508.21   513.02   515.24   516.72
eigval :      530.60   531.08   532.14   533.62   537.97   538.44
eigval :      538.69   570.36   572.36   573.94   580.85   584.21
eigval :      585.95   592.97   601.24   606.12   606.91   612.40
eigval :      616.31   617.73   638.27   652.03   656.98   661.03
eigval :      663.21   664.63   665.29   666.28   682.30   689.64
eigval :      695.84   698.45   700.87   703.18   729.41   739.85
eigval :      748.86   753.14   755.82   761.13   762.10   770.17
eigval :      770.44   770.75   780.32   799.26   803.71   805.15
eigval :      805.91   816.75   836.94   837.16   850.06   850.92
eigval :      857.74   858.98   863.37   863.54   864.71   864.85
eigval :      865.90   869.04   885.58   887.46   891.72   892.46
eigval :      893.59   893.89   894.83   895.05   896.75   900.31
eigval :      907.82   909.80   910.23   910.89   911.06   911.53
eigval :      913.51   917.33   918.16   918.30   920.32   921.83
eigval :      922.14   925.15   925.63   926.37   968.17   987.68
eigval :      994.15   995.94   998.83   999.11  1003.10  1007.25
eigval :     1007.30  1017.31  1032.33  1066.30  1066.82  1067.05
eigval :     1067.22  1070.29  1087.16  1106.39  1108.26  1112.43
eigval :     1127.41  1134.67  1135.95  1136.76  1139.64  1146.30
eigval :     1147.01  1147.70  1148.59  1165.33  1173.64  1174.97
eigval :     1175.77  1177.10  1177.43  1182.25  1185.98  1192.37
eigval :     1194.74  1200.31  1201.37  1212.56  1220.34  1228.80
eigval :     1229.00  1230.85  1233.30  1240.39  1241.44  1241.90
eigval :     1242.25  1246.76  1254.38  1272.94  1277.90  1279.71
eigval :     1284.17  1284.81  1288.58  1292.85  1294.88  1295.58
eigval :     1299.94  1319.32  1321.72  1332.82  1333.00  1342.04
eigval :     1344.29  1346.05  1352.25  1352.82  1352.88  1355.65
eigval :     1357.52  1359.55  1363.87  1365.35  1366.43  1375.60
eigval :     1399.96  1403.18  1412.37  1412.80  1414.51  1415.59
eigval :     1416.28  1419.31  1437.11  1439.82  1440.30  1449.04
eigval :     1449.12  1449.80  1452.05  1464.13  1464.41  1467.11
eigval :     1475.54  1477.14  1479.59  1484.32  1489.32  1491.47
eigval :     1529.89  1530.56  1534.39  1537.84  1541.67  1541.88
eigval :     1545.87  1549.79  1573.49  1574.56  1574.67  1576.33
eigval :     1577.05  1577.19  1596.50  1639.69  2881.75  2920.00
eigval :     3034.98  3059.48  3062.63  3069.80  3070.66  3070.89
eigval :     3070.95  3072.85  3076.61  3077.45  3077.49  3078.14
eigval :     3078.66  3081.13  3083.22  3083.95  3084.45  3084.97
eigval :     3085.23  3085.44  3085.57  3085.92  3087.14  3087.26
eigval :     3088.71  3092.07  3092.16  3092.39  3092.60  3093.33
eigval :     3093.93  3098.57  3098.96  3099.62  3099.97  3101.00
eigval :     3101.22  3101.60  3103.56  3105.63  3112.20  3124.95

   temp. (K)  partition function   enthalpy   heat capacity  entropy
                                   cal/mol     cal/K/mol   cal/K/mol   J/K/mol
 298.15  VIB  0.804E+28            32655.677    205.174    206.517
         ROT  0.397E+09              888.752      2.981     42.328
         INT  0.319E+37            33544.430    208.155    248.845
         TR   0.250E+29             1481.254      4.968     46.156
         TOT                       35025.6837   213.1231   295.0012  1234.2851

       T/K    H(0)-H(T)+PV         H(T)/Eh          T*S/Eh         G(T)/Eh
   ------------------------------------------------------------------------
    298.15    0.558170E-01    0.915588E+00    0.140165E+00    0.775423E+00
   ------------------------------------------------------------------------

         :::::::::::::::::::::::::::::::::::::::::::::::::::::
         ::                  THERMODYNAMIC                  ::
         :::::::::::::::::::::::::::::::::::::::::::::::::::::
         :: total free energy        -172.400289315058 Eh   ::
         ::.................................................::
         :: total energy             -173.175712401673 Eh   ::
         :: zero point energy           0.859770703058 Eh   ::
         :: G(RRHO) w/o ZPVE           -0.084347616443 Eh   ::
         :: G(RRHO) contrib.            0.775423086614 Eh   ::
         :::::::::::::::::::::::::::::::::::::::::::::::::::::

           -------------------------------------------------
          | TOTAL ENERGY             -173.175712401673 Eh   |
          | TOTAL ENTHALPY           -172.260124718797 Eh   |
          | TOTAL FREE ENERGY        -172.400289315058 Eh   |
          | GRADIENT NORM               0.000029678793 Eh/α |
          | HOMO-LUMO GAP               0.001516109872 eV   |
           -------------------------------------------------

 * finished run on 2025/09/14 at 05:00:18.632
