   * xtb version 6.7.1 (edcfbbe) compiled by 'albert@albert-system' on 2024-07-22

   ID    Z sym.   atoms
    1    6 C      1-7, 9-20, 22-25, 27-30, 32-49, 51-68
    2    8 O      8
    3    7 N      21, 26, 31, 50
    4    1 H      69-112

          program call               : xtb data2507/toluene/V–TPA/V–TPA_toluene_T1_crest.xyz --gfn 2 --uhf 2 --gbsa toluene --ohess vtight --parallel 40 --molden --ceasefiles --namespace data2507/toluene/V–TPA/V–TPA_toluene_T1_finalOpt
      * Solvation model:               GBSA
        Solvent                        toluene
        Solvent mass                       9.2140E+01 g/mol
          :  Hamiltonian                  GFN2-xTB          :
 * total energy  :  -173.1755400 Eh     change       -0.1822144E-08 Eh
 * total energy  :  -173.1756229 Eh     change       -0.8283615E-04 Eh
 * total energy  :  -173.1756632 Eh     change       -0.4033233E-04 Eh
 * total energy  :  -173.1756726 Eh     change       -0.9388136E-05 Eh
 * total energy  :  -173.1756778 Eh     change       -0.5173311E-05 Eh
 * total energy  :  -173.1756808 Eh     change       -0.3014818E-05 Eh
 * total energy  :  -173.1756833 Eh     change       -0.2567300E-05 Eh
 * total energy  :  -173.1756866 Eh     change       -0.3228153E-05 Eh
 * total energy  :  -173.1756901 Eh     change       -0.3559732E-05 Eh
 * total energy  :  -173.1756932 Eh     change       -0.3099950E-05 Eh
 * total energy  :  -173.1757073 Eh     change       -0.3312893E-06 Eh
 * total energy  :  -173.1757076 Eh     change       -0.2829985E-06 Eh
 * total energy  :  -173.1757078 Eh     change       -0.2053491E-06 Eh
 * total energy  :  -173.1757080 Eh     change       -0.2162697E-06 Eh
 * total energy  :  -173.1757083 Eh     change       -0.3118184E-06 Eh
 * total energy  :  -173.1757088 Eh     change       -0.4690357E-06 Eh
 * total energy  :  -173.1757094 Eh     change       -0.6252183E-06 Eh
 * total energy  :  -173.1757101 Eh     change       -0.6613948E-06 Eh
 * total energy  :  -173.1757101 Eh     change       -0.1225709E-07 Eh
   *** GEOMETRY OPTIMIZATION CONVERGED AFTER 44 ITERATIONS ***

 final structure:
================
112
 xtb: 6.7.1 (edcfbbe)
C           12.40720982459605        2.54125725802030        2.44380548018876
C           11.52826037434385        1.55401012400557        2.61128820329289
C           10.96914645084913        0.69485826244981        1.58165646390691
C           11.32120317811460        0.78726975895121        0.23025360027623
C           10.75782938244581       -0.04964045275282       -0.70919091070844
C            9.82656660679721       -1.01447927584515       -0.33663768868375
C            9.23104466480518       -1.94238228921054       -1.36666313109153
O            7.93374856309285       -2.40673884703392       -1.04695321740229
C            6.89743921788753       -1.52281967397867       -1.05175520952281
C            6.99357275654486       -0.16835105940989       -1.33835871261038
C            5.86009588150823        0.64259941369303       -1.35351352105091
C            4.60172050277995        0.15068667796562       -1.06438675504868
C            4.49905260469331       -1.19567198713553       -0.74183370179526
C            5.63005126614293       -2.04309965497715       -0.75425816709239
C            5.16471656184300       -3.36240265794492       -0.44854486776162
C            5.80002616380992       -4.59024179221048       -0.30051717396128
C            5.03907541061546       -5.69103851525734        0.04086787820013
C            3.66563545219398       -5.57855600392219        0.25258916492762
C            3.01174667020647       -4.36724985063420        0.10772837809913
C            3.76308438365487       -3.26289434892870       -0.26528587415277
N            3.37309597539744       -1.94631284216567       -0.44497491908906
C            2.07598110777333       -1.46034514691070       -0.35048556958861
C            1.00985776315133       -2.14043282210751       -0.96601516639887
C           -0.26922868228525       -1.65824018895416       -0.88104086690770
C           -0.54407338971723       -0.47041847573248       -0.17506830181684
N           -1.83924151918568        0.02149824394182       -0.09080556271881
C           -2.06196718140379        1.39206411716530       -0.09779363724252
C           -3.09927340075658        1.95682071988761        0.66962801162314
C           -3.32063926883595        3.30848803339531        0.65800642075018
C           -2.51766574984800        4.16104692269897       -0.12072211404415
N           -2.74504358411492        5.53017984885401       -0.13275306402248
C           -1.77747184834186        6.51674414162123       -0.02455087566714
C           -0.41170012398247        6.39820283354095        0.17869557955781
C            0.33346280919881        7.56091341369112        0.28612084676157
C           -0.26668280210825        8.81663319887459        0.20382298713424
C           -1.63093208444174        8.94315336013121        0.03312530385726
C           -2.40097105077951        7.78927430240754       -0.07312268543399
C           -3.80618022990973        7.55330038029584       -0.21696224723666
C           -4.91017034861220        8.39187563362550       -0.33423512692201
C           -6.15803354074094        7.82561579959146       -0.50336338469804
C           -6.31546593479269        6.44217382155772       -0.57464438115647
C           -5.23231568236890        5.58729471487198       -0.45446182261463
C           -3.98075789323693        6.14670766834055       -0.25132476163968
C           -1.48031710467858        3.59880901623934       -0.88605716377203
C           -1.25671703213135        2.24746351623350       -0.87479415714756
C           -2.91194493719611       -0.85526403350823       -0.00519317278261
C           -2.79526974017717       -2.06933441305814        0.69969940644839
C           -3.85438969416679       -2.93389577664531        0.78283277074833
C           -5.08096099068179       -2.62821973599070        0.16611261117846
N           -6.15439068556713       -3.50371662206283        0.25181399326865
C           -7.46469995330050       -3.15617785775722        0.54102364112707
C           -8.00000603214222       -1.92105859479546        0.87047197740077
C           -9.35419571782680       -1.85319105384944        1.15331321383942
C          -10.15946079942498       -2.99073785589559        1.11897270563488
C           -9.62768612443095       -4.23015011691479        0.82305437219013
C           -8.26861583303913       -4.32410412302851        0.54052778357136
C           -7.39943384077925       -5.42093543518357        0.23682268675769
C           -7.60281178931487       -6.78868021151977        0.08339191777423
C           -6.52692182962147       -7.58536957263742       -0.25457085386362
C           -5.26206027918045       -7.03567025807992       -0.45883792715151
C           -5.03410381136517       -5.67796703215721       -0.30651923903242
C           -6.10172449782564       -4.87608949271844        0.06471525639722
C           -5.19889631765360       -1.41656342684857       -0.53835965881855
C           -4.14091892061114       -0.55090949028626       -0.62282203427975
C            0.52469732745373        0.20788577681227        0.44345109727099
C            1.80295306001278       -0.27645974922121        0.35815725821917
C            9.47423278488479       -1.12151934670823        1.00411693325677
C           10.03184969880497       -0.27960057849550        1.94306681266537
H           12.80684139032551        2.81127078160244        1.48145846450475
H           12.75999721790261        3.12130938411319        3.27956418881652
H           11.16982432160740        1.34424648031794        3.61269508456542
H           12.04213866186586        1.52430072061755       -0.08801565112030
H           11.04206809925235        0.04191221252228       -1.74890074229831
H            9.83133261166924       -2.85901670816127       -1.42615436260907
H            9.23452797012740       -1.46823042641078       -2.35785316605259
H            7.95023055183111        0.27894099131253       -1.55418528206224
H            5.97762458633415        1.68681215376682       -1.60174161664206
H            3.73575418621187        0.79143749159889       -1.10570285298091
H            6.86623797309610       -4.66559456802917       -0.44681952581225
H            5.51371586337956       -6.65448708889785        0.15892244508347
H            3.10075414009468       -6.45309400063001        0.54018819490273
H            1.95207144050986       -4.28989076574922        0.29671455681785
H            1.21721422773766       -3.02507897232651       -1.54793320773484
H           -1.07547030939870       -2.16551078254372       -1.38923052424945
H           -3.69714290340439        1.31442688045298        1.29852145162795
H           -4.08866542409272        3.73640102279318        1.28371597757304
H            0.06359804338788        5.43322779100412        0.26683722421822
H            1.39999596553565        7.49295727742469        0.44248115780249
H            0.34776846384926        9.70145218808362        0.28687661679825
H           -2.09684436709084        9.91635456853832       -0.01046446577677
H           -4.78749976613657        9.46416648360267       -0.29981526445119
H           -7.02719542076192        8.46087677329830       -0.59505045643142
H           -7.30065516748741        6.02833505860481       -0.73175671759803
H           -5.36612663241610        4.51930093994579       -0.53346228314449
H           -0.88794624963826        4.23982613099052       -1.52061286717994
H           -0.48198423994432        1.82036983740985       -1.49366264605794
H           -1.86960281942202       -2.29452261529435        1.20762209458849
H           -3.76929712196749       -3.83960425356676        1.36328522181638
H           -7.38488460328339       -1.03584838464758        0.92288085997874
H           -9.79346148560554       -0.90065881946380        1.41061892943342
H          -11.21297544081299       -2.89789104116863        1.33999302728066
H          -10.24895057400064       -5.11338361662039        0.81691614912696
H           -8.58608530010516       -7.21331084457367        0.22089713885807
H           -6.66554658018868       -8.64993347312887       -0.37655691160347
H           -4.44422405790909       -7.68018928257862       -0.74572554348002
H           -4.05451776027880       -5.26343900332491       -0.48896230404480
H           -6.12123851071239       -1.19554268881153       -1.05298340033478
H           -4.22857068294354        0.35879790471993       -1.19761136476338
H            0.31867236153644        1.09770446056418        1.01913436612161
H            2.60799293470628        0.22500081041598        0.87279125508658
H            8.75248193100868       -1.86846298630015        1.30421610679426
H            9.74152511771588       -0.37454908908229        2.98038057393700

          :  Hamiltonian                  GFN2-xTB          :
         :: gradient norm              0.000082935607 Eh/a0 ::
         :: HOMO-LUMO gap              0.001885286403 eV    ::
         :: SCC energy              -176.352106049498 Eh    ::
         :: -> dispersion             -0.157483232280 Eh    ::
         :: -> Gsolv                  -0.072126879457 Eh    ::
         :: repulsion energy           3.176395930587 Eh    ::

    * Orbital Energies and Occupations

         #    Occupation            Energy/Eh            Energy/eV
      -------------------------------------------------------------
         1        2.0000           -0.7165085             -19.4972
       ...           ...                  ...                  ...
       150        2.0000           -0.4049409             -11.0190
       151        2.0000           -0.4048996             -11.0179
       152        2.0000           -0.4030402             -10.9673
       153        2.0000           -0.3958030             -10.7703
       154        2.0000           -0.3802149             -10.3462
       155        2.0000           -0.3770613             -10.2604
       156        2.0000           -0.3767399             -10.2516
       157        2.0000           -0.3767169             -10.2510
       158        2.0000           -0.3716688             -10.1136
       159        1.9999           -0.3640851              -9.9073
       160        1.9996           -0.3623540              -9.8602
       161        1.0005           -0.3476067              -9.4589
       162        0.4639           -0.2509406              -6.8284 (HOMO)
       163        0.4460           -0.2508719              -6.8266 (LUMO)
       164        0.0888           -0.2488662              -6.7720
       165        0.0012           -0.2447090              -6.6589
       166        0.0000           -0.2413354              -6.5671
       167        0.0000           -0.2396166              -6.5203
       168        0.0000           -0.2367431              -6.4421
       169                         -0.2306906              -6.2774
       170                         -0.2306660              -6.2767
       171                         -0.2215238              -6.0280
       172                         -0.2215006              -6.0273
       173                         -0.2198642              -5.9828
       ...                                ...                  ...
       316                          0.7442199              20.2513
      -------------------------------------------------------------
                  HL-Gap            0.0000687 Eh            0.0019 eV

     #   Z          covCN         q      C6AA      α(0)
     1   6 C        2.837    -0.093    30.319     9.024
     2   6 C        2.896    -0.036    28.886     8.812
     3   6 C        2.969     0.007    27.858     8.658
     4   6 C        2.922    -0.036    28.903     8.816
     5   6 C        2.920    -0.042    29.056     8.839
     6   6 C        2.968    -0.009    28.233     8.716
     7   6 C        3.697     0.079    19.416     6.303
     8   8 O        1.704    -0.285    18.727     5.843
     9   6 C        2.855     0.140    24.941     8.185
    10   6 C        2.917    -0.077    29.914     8.969
    11   6 C        2.924    -0.040    28.995     8.830
    12   6 C        2.908    -0.060    29.493     8.905
    13   6 C        3.069     0.042    27.000     8.520
    14   6 C        3.067    -0.041    28.952     8.823
    15   6 C        3.065    -0.011    28.222     8.711
    16   6 C        2.911    -0.036    28.893     8.814
    17   6 C        2.919    -0.039    28.976     8.827
    18   6 C        2.923    -0.040    28.985     8.829
    19   6 C        2.909    -0.049    29.228     8.865
    20   6 C        3.070     0.042    26.999     8.520
    21   7 N        2.800    -0.023    21.684     6.916
    22   6 C        2.910     0.050    26.882     8.502
    23   6 C        2.917    -0.044    29.081     8.843
    24   6 C        2.916    -0.043    29.060     8.840
    25   6 C        2.928     0.043    27.036     8.527
    26   7 N        2.751    -0.004    21.345     6.862
    27   6 C        2.928     0.043    27.038     8.527
    28   6 C        2.916    -0.043    29.059     8.840
    29   6 C        2.917    -0.044    29.090     8.844
    30   6 C        2.910     0.050    26.871     8.500
    31   7 N        2.797    -0.027    21.766     6.929
    32   6 C        3.067     0.042    26.982     8.518
    33   6 C        2.909    -0.050    29.236     8.866
    34   6 C        2.923    -0.040    29.003     8.831
    35   6 C        2.919    -0.040    28.993     8.830
    36   6 C        2.911    -0.037    28.913     8.817
    37   6 C        3.063    -0.020    28.433     8.744
    38   6 C        3.063    -0.020    28.433     8.744
    39   6 C        2.911    -0.037    28.913     8.817
    40   6 C        2.919    -0.040    28.993     8.830
    41   6 C        2.923    -0.040    29.003     8.832
    42   6 C        2.909    -0.050    29.235     8.866
    43   6 C        3.068     0.042    26.982     8.518
    44   6 C        2.917    -0.044    29.089     8.844
    45   6 C        2.916    -0.043    29.061     8.840
    46   6 C        2.928     0.043    27.037     8.527
    47   6 C        2.916    -0.043    29.063     8.840
    48   6 C        2.917    -0.044    29.088     8.844
    49   6 C        2.910     0.050    26.873     8.500
    50   7 N        2.797    -0.027    21.762     6.928
    51   6 C        3.067     0.042    26.983     8.518
    52   6 C        2.909    -0.050    29.235     8.866
    53   6 C        2.923    -0.040    29.004     8.832
    54   6 C        2.919    -0.040    28.992     8.830
    55   6 C        2.911    -0.037    28.913     8.817
    56   6 C        3.063    -0.020    28.433     8.744
    57   6 C        3.063    -0.020    28.433     8.744
    58   6 C        2.911    -0.037    28.913     8.817
    59   6 C        2.919    -0.040    28.992     8.830
    60   6 C        2.922    -0.040    29.003     8.832
    61   6 C        2.909    -0.050    29.234     8.866
    62   6 C        3.067     0.042    26.983     8.518
    63   6 C        2.917    -0.044    29.089     8.844
    64   6 C        2.916    -0.043    29.062     8.840
    65   6 C        2.916    -0.043    29.057     8.839
    66   6 C        2.917    -0.044    29.084     8.844
    67   6 C        2.919    -0.033    28.834     8.806
    68   6 C        2.927    -0.038    28.952     8.824
    69   1 H        0.926     0.033     2.538     2.491
    70   1 H        0.926     0.031     2.569     2.507
    71   1 H        0.925     0.028     2.609     2.526
    72   1 H        0.926     0.036     2.509     2.477
    73   1 H        0.925     0.027     2.633     2.538
    74   1 H        0.924     0.056     2.243     2.342
    75   1 H        0.923     0.035     2.516     2.480
    76   1 H        0.926     0.033     2.540     2.492
    77   1 H        0.926     0.035     2.518     2.482
    78   1 H        0.926     0.039     2.466     2.456
    79   1 H        0.926     0.036     2.503     2.474
    80   1 H        0.926     0.028     2.617     2.530
    81   1 H        0.926     0.030     2.582     2.513
    82   1 H        0.926     0.035     2.520     2.483
    83   1 H        0.926     0.047     2.354     2.399
    84   1 H        0.926     0.046     2.373     2.409
    85   1 H        0.926     0.045     2.383     2.414
    86   1 H        0.926     0.046     2.367     2.406
    87   1 H        0.926     0.032     2.553     2.499
    88   1 H        0.926     0.028     2.614     2.528
    89   1 H        0.926     0.026     2.638     2.540
    90   1 H        0.926     0.028     2.615     2.529
    91   1 H        0.926     0.028     2.616     2.529
    92   1 H        0.926     0.026     2.637     2.539
    93   1 H        0.926     0.028     2.612     2.527
    94   1 H        0.926     0.032     2.553     2.499
    95   1 H        0.926     0.046     2.368     2.406
    96   1 H        0.926     0.045     2.384     2.414
    97   1 H        0.926     0.045     2.381     2.413
    98   1 H        0.926     0.046     2.366     2.406
    99   1 H        0.926     0.032     2.553     2.499
   100   1 H        0.926     0.028     2.612     2.527
   101   1 H        0.926     0.026     2.637     2.539
   102   1 H        0.926     0.028     2.616     2.529
   103   1 H        0.926     0.028     2.616     2.529
   104   1 H        0.926     0.026     2.637     2.539
   105   1 H        0.926     0.028     2.611     2.527
   106   1 H        0.926     0.032     2.552     2.498
   107   1 H        0.926     0.046     2.367     2.406
   108   1 H        0.926     0.045     2.385     2.415
   109   1 H        0.926     0.045     2.378     2.411
   110   1 H        0.926     0.047     2.358     2.401
   111   1 H        0.926     0.031     2.579     2.511
   112   1 H        0.925     0.029     2.597     2.520

molecular dipole:
                 x           y           z       tot (Debye)
 q only:       -1.169       0.021      -0.282
   full:       -1.046       0.078      -0.362       2.820

 projected vibrational frequencies (cm⁻¹)
eigval :       -0.00    -0.00     0.00     0.00     0.00     0.00
eigval :        4.33     7.09     9.98    11.32    11.89    13.93
eigval :       17.98    22.15    27.35    34.56    38.23    42.14
eigval :       49.48    55.93    57.10    65.56    82.43    87.46
eigval :       92.07    94.37   103.82   104.80   107.18   115.69
eigval :      120.13   130.18   144.21   153.25   164.62   167.15
eigval :      173.96   177.42   178.19   179.63   209.16   233.29
eigval :      234.11   234.52   245.72   254.42   263.81   267.39
eigval :      269.94   284.99   297.86   299.84   309.51   311.09
eigval :      321.95   324.41   365.76   369.97   382.32   385.44
eigval :      389.98   392.95   395.80   398.99   399.86   401.89
eigval :      402.48   404.40   407.70   415.50   419.78   420.79
eigval :      427.81   436.24   438.13   447.59   454.31   476.78
eigval :      480.50   483.25   508.03   513.00   515.25   516.70
eigval :      530.78   531.10   532.60   533.61   536.73   537.77
eigval :      538.75   570.34   572.36   573.92   580.93   584.26
eigval :      585.96   592.95   601.17   606.00   607.28   612.43
eigval :      616.28   617.70   638.48   651.81   656.86   660.80
eigval :      663.16   664.52   664.74   667.09   682.43   690.30
eigval :      696.44   699.50   700.63   703.98   729.98   740.40
eigval :      749.46   753.28   755.69   761.80   762.71   770.53
eigval :      770.62   771.92   780.40   799.97   804.24   805.15
eigval :      805.97   817.01   836.89   837.51   850.08   851.10
eigval :      858.07   859.85   863.13   863.91   864.87   865.35
eigval :      865.95   869.41   885.56   887.75   891.62   892.54
eigval :      893.66   893.94   894.40   895.13   897.23   899.97
eigval :      908.85   909.70   910.89   911.50   911.90   912.39
eigval :      913.97   917.56   918.23   918.75   919.24   921.70
eigval :      922.93   925.35   925.88   926.89   968.22   987.82
eigval :      994.01   996.52   998.76   999.25  1003.06  1007.24
eigval :     1007.27  1017.35  1032.69  1064.57  1066.61  1067.05
eigval :     1067.20  1069.79  1086.79  1106.34  1108.72  1112.75
eigval :     1127.13  1134.71  1135.87  1136.98  1140.09  1146.42
eigval :     1147.00  1147.76  1148.62  1165.87  1173.22  1174.61
eigval :     1175.50  1177.58  1177.82  1183.01  1186.61  1192.16
eigval :     1194.76  1200.05  1201.33  1212.71  1220.26  1228.72
eigval :     1228.97  1230.36  1233.06  1240.65  1241.59  1241.94
eigval :     1242.22  1246.76  1254.43  1272.70  1277.50  1280.10
eigval :     1284.22  1284.76  1288.78  1292.84  1294.92  1295.82
eigval :     1300.10  1319.34  1321.96  1332.91  1333.02  1341.96
eigval :     1344.52  1345.99  1352.17  1352.80  1352.93  1355.16
eigval :     1357.79  1359.50  1363.99  1365.52  1366.63  1375.71
eigval :     1400.13  1402.94  1412.47  1412.74  1414.22  1415.57
eigval :     1416.19  1419.13  1437.11  1439.78  1440.28  1448.91
eigval :     1449.29  1450.00  1452.14  1464.29  1464.44  1466.81
eigval :     1475.95  1477.12  1479.54  1484.42  1489.27  1491.77
eigval :     1529.59  1531.28  1533.91  1538.07  1541.60  1542.00
eigval :     1546.26  1549.38  1573.60  1574.51  1574.82  1576.26
eigval :     1577.01  1577.14  1596.62  1639.73  2881.96  2920.15
eigval :     3035.14  3059.48  3062.59  3070.20  3070.82  3070.94
eigval :     3071.10  3071.23  3076.35  3077.42  3077.59  3078.13
eigval :     3078.71  3080.26  3083.51  3084.02  3084.54  3085.02
eigval :     3085.23  3085.53  3085.60  3085.91  3087.11  3087.38
eigval :     3088.72  3091.99  3092.19  3092.54  3092.56  3093.18
eigval :     3093.89  3098.71  3099.04  3099.69  3100.08  3100.99
eigval :     3101.06  3101.69  3103.67  3105.62  3112.77  3124.90

   temp. (K)  partition function   enthalpy   heat capacity  entropy
                                   cal/mol     cal/K/mol   cal/K/mol   J/K/mol
 298.15  VIB  0.238E+28            32627.557    205.286    205.406
         ROT  0.397E+09              888.752      2.981     42.326
         INT  0.945E+36            33516.309    208.267    247.732
         TR   0.250E+29             1481.254      4.968     46.156
         TOT                       34997.5629   213.2348   293.8882  1229.6283

       T/K    H(0)-H(T)+PV         H(T)/Eh          T*S/Eh         G(T)/Eh
   ------------------------------------------------------------------------
    298.15    0.557722E-01    0.915633E+00    0.139636E+00    0.775997E+00
   ------------------------------------------------------------------------

         :::::::::::::::::::::::::::::::::::::::::::::::::::::
         ::                  THERMODYNAMIC                  ::
         :::::::::::::::::::::::::::::::::::::::::::::::::::::
         :: total free energy        -172.399713337776 Eh   ::
         ::.................................................::
         :: total energy             -173.175710117926 Eh   ::
         :: zero point energy           0.859860389311 Eh   ::
         :: G(RRHO) w/o ZPVE           -0.083863609160 Eh   ::
         :: G(RRHO) contrib.            0.775996780151 Eh   ::
         :::::::::::::::::::::::::::::::::::::::::::::::::::::

           -------------------------------------------------
          | TOTAL ENERGY             -173.175710117926 Eh   |
          | TOTAL ENTHALPY           -172.260077562114 Eh   |
          | TOTAL FREE ENERGY        -172.399713337776 Eh   |
          | GRADIENT NORM               0.000081684780 Eh/α |
          | HOMO-LUMO GAP               0.001869697215 eV   |
           -------------------------------------------------

 * finished run on 2025/09/14 at 05:33:10.375
