   * xtb version 6.7.1 (edcfbbe) compiled by 'albert@albert-system' on 2024-07-22

   ID    Z sym.   atoms
    1    6 C      1-7, 9-20, 22-25, 27-30, 32-49, 51-68
    2    8 O      8
    3    7 N      21, 26, 31, 50
    4    1 H      69-112

          program call               : xtb data2507/toluene/V–TPA/V–TPA.xyz --gfn 2 --gbsa toluene --ohess vtight --parallel 40 --molden --ceasefiles --namespace data2507/toluene/V–TPA/V–TPA_toluene_S0_preOpt
      * Solvation model:               GBSA
        Solvent                        toluene
        Solvent mass                       9.2140E+01 g/mol
          :  Hamiltonian                  GFN2-xTB          :
 * total energy  :  -173.2376944 Eh     change       -0.3128662E-08 Eh
 * total energy  :  -173.2584754 Eh     change       -0.2078097E-01 Eh
 * total energy  :  -173.2640461 Eh     change       -0.5570738E-02 Eh
 * total energy  :  -173.2657084 Eh     change       -0.1662311E-02 Eh
 * total energy  :  -173.2673355 Eh     change       -0.1627126E-02 Eh
 * total energy  :  -173.2683050 Eh     change       -0.9694304E-03 Eh
 * total energy  :  -173.2688469 Eh     change       -0.5418906E-03 Eh
 * total energy  :  -173.2691693 Eh     change       -0.3224209E-03 Eh
 * total energy  :  -173.2694246 Eh     change       -0.2552756E-03 Eh
 * total energy  :  -173.2696975 Eh     change       -0.2729744E-03 Eh
 * total energy  :  -173.2725350 Eh     change       -0.5225038E-06 Eh
 * total energy  :  -173.2725354 Eh     change       -0.4064470E-06 Eh
 * total energy  :  -173.2725357 Eh     change       -0.3115638E-06 Eh
 * total energy  :  -173.2725360 Eh     change       -0.2691939E-06 Eh
 * total energy  :  -173.2725363 Eh     change       -0.2914975E-06 Eh
 * total energy  :  -173.2725367 Eh     change       -0.3712327E-06 Eh
 * total energy  :  -173.2725372 Eh     change       -0.4907022E-06 Eh
 * total energy  :  -173.2725376 Eh     change       -0.4461957E-06 Eh
 * total energy  :  -173.2725376 Eh     change       -0.3619306E-08 Eh
   *** GEOMETRY OPTIMIZATION CONVERGED AFTER 122 ITERATIONS ***

 final structure:
================
112
 xtb: 6.7.1 (edcfbbe)
C           12.42878471678684        2.48387578908141        2.15383782020951
C           11.42882888406652        1.62596085225436        2.32035269563824
C           10.84335674498229        0.75767778836496        1.30503023600190
C           11.19207264459078        0.82002380351143       -0.04553467903813
C           10.60674004077911       -0.02299071457267       -0.96825964698760
C            9.65937638508990       -0.96057643748014       -0.57265679581501
C            9.04208963078075       -1.89582743601830       -1.58403414400390
O            7.75888068737684       -2.36886631266953       -1.22890040772416
C            6.71307157812102       -1.49272828765261       -1.22092310885306
C            6.79041058614199       -0.14196564021384       -1.52418444028856
C            5.65002696115797        0.65883241364292       -1.51549762012828
C            4.40468546896284        0.16170050622752       -1.19364135178959
C            4.32153001624476       -1.18536219032943       -0.86168343246233
C            5.45901197510182       -2.01954551693641       -0.88502931126407
C            5.01291630990455       -3.33721251692041       -0.53408684768636
C            5.65969562981338       -4.55632367036779       -0.37361552899496
C            4.91299771666973       -5.65534222447649        0.00246166220500
C            3.54248815601980       -5.54789103828700        0.23141968700392
C            2.87781704919196       -4.34580501448048        0.07853081250204
C            3.61816878238047       -3.24171829398882       -0.32012331733531
N            3.21572567033944       -1.93654456184180       -0.52130333095323
C            1.90196663029020       -1.45634881503918       -0.40630559303983
C            0.85990499248183       -2.09386438600436       -1.07508736116246
C           -0.43230896459264       -1.62516091685805       -0.96124356446110
C           -0.71378951120201       -0.50454998876973       -0.17872785796203
N           -2.02527331066993       -0.02916212945235       -0.06266659244044
C           -2.26904881417100        1.34775276765929       -0.03764966978633
C           -3.27619303083000        1.87703593883453        0.77092378209592
C           -3.52931076556923        3.23299673161070        0.77895978116905
C           -2.76867638482786        4.09600818819944       -0.00574526329738
N           -3.02728481098229        5.47610104392557        0.00101038185466
C           -3.10764848421081        6.27898647700650        1.12038447389442
C           -2.91007762790086        5.95553108629744        2.45574411461603
C           -3.02435335836870        6.96803178564482        3.38906919490139
C           -3.32202557930703        8.27613712946072        3.01084071798736
C           -3.50018066130048        8.60808439441659        1.68245738148763
C           -3.38850792768873        7.60779625100333        0.72479991239214
C           -3.48539766555118        7.59412425511619       -0.70814404236613
C           -3.75074331277655        8.57156914324591       -1.65911175722370
C           -3.78820397581018        8.20747478671829       -2.99050976120616
C           -3.57782838634153        6.88527096147108       -3.37810736432021
C           -3.31246093608780        5.89531264968960       -2.45140286013001
C           -3.25220197387974        6.25893485269693       -1.11307143702812
C           -1.75143076107064        3.57459050216447       -0.80093930941066
C           -1.51053981340047        2.21658851765892       -0.82384381387340
C           -3.08925639034816       -0.93360703630116        0.01216179709119
C           -2.94806404340792       -2.13753245224223        0.70429419770490
C           -3.99497391275028       -3.03266646331036        0.77577537305862
C           -5.20878954800756       -2.74769909015770        0.15560394800693
N           -6.27319684227986       -3.66040529400167        0.22587961384915
C           -7.55967938993696       -3.37105032196112        0.63281414067051
C           -8.09317375441580       -2.17505994644512        1.09312448806322
C           -9.42433992386079       -2.16190927939531        1.46308264260513
C          -10.21213257985408       -3.30924600749165        1.38725591229984
C           -9.68192717410921       -4.50701716972454        0.95046098588036
C           -8.34553879836883       -4.54574339624067        0.57262510428356
C           -7.48093211157341       -5.59011572453577        0.09874763104864
C           -7.67112330894843       -6.93797388019363       -0.17927528837138
C           -6.60382873667245       -7.67303160319564       -0.65584960205306
C           -5.36155134476581       -7.07777759022531       -0.86835734765827
C           -5.14724111977033       -5.73976174532892       -0.59841922286493
C           -6.21076713127460       -4.99993291306093       -0.09986618711384
C           -5.35479677941086       -1.54741650796939       -0.53496594350548
C           -4.30862407456573       -0.65117708524785       -0.60549345498077
C            0.33364795134363        0.13384596697099        0.48643267499845
C            1.62516695633256       -0.33846783241560        0.37664608077693
C            9.30838897137311       -1.03403302295729        0.76872394994860
C            9.88647022674059       -0.18326069867179        1.68989244766286
H           12.92528063701667        2.62666545063977        1.20925474615265
H           12.79472055872682        3.08060107805974        2.97217520145467
H           10.98407870256974        1.52601843467519        3.30359387848212
H           11.92052134532114        1.54139415843027       -0.38155603987084
H           10.88589680488305        0.04525461119941       -2.01072345364331
H            9.65020514078999       -2.80624379983304       -1.65531325965456
H            9.01701643309433       -1.42487298097749       -2.57633373061576
H            7.73683961690357        0.31268510453776       -1.76834949946025
H            5.75443099880304        1.70319307911679       -1.77080853614396
H            3.53098333789262        0.79369259238229       -1.20761189384482
H            6.72341634094347       -4.62847795914824       -0.53947814762192
H            5.39584916176326       -6.61338570527163        0.13046265522656
H            2.98780847446939       -6.42308945055281        0.53780596656143
H            1.81864339994947       -4.26952397051094        0.27316438644102
H            1.07217905427446       -2.94738397005315       -1.70107441563182
H           -1.23343134772240       -2.11951694804569       -1.49020392817124
H           -3.86520220470531        1.21602651820332        1.38892992436277
H           -4.32259539191721        3.63142926280667        1.39351357177926
H           -2.66569154916197        4.94793652427985        2.75680947302427
H           -2.87694572615436        6.74178596962942        4.43526716050402
H           -3.40614421046514        9.03936228401617        3.77075120793231
H           -3.71752081119030        9.62447357469819        1.38912562163686
H           -3.92724948964629        9.59378545226227       -1.35866619514995
H           -3.99056156309451        8.95313832309978       -3.74555264196879
H           -3.62670380987002        6.62844046966608       -4.42650821073354
H           -3.16553294486288        4.87122620202079       -2.76006637686836
H           -1.15100927367144        4.24072029813547       -1.40216958349134
H           -0.72759731333689        1.81932375624803       -1.45236461225750
H           -2.01357975385269       -2.36203512426605        1.19642618011299
H           -3.88305981266766       -3.95214011801117        1.33049538492529
H           -7.48746720168406       -1.28461293656258        1.16883488230325
H           -9.86387228175202       -1.24260398737353        1.82232317380474
H          -11.24976517617375       -3.25748278273685        1.68345156455416
H          -10.28937097340430       -5.39883652684597        0.90550609168049
H           -8.63706742872892       -7.39678864744188       -0.02814096978469
H           -6.73072439829931       -8.72285886321606       -0.87669461329379
H           -4.54914699382739       -7.67591853205677       -1.25524520053914
H           -4.18524013186623       -5.28437410101799       -0.77927880651814
H           -6.28700733589122       -1.33005096882402       -1.03431617485522
H           -4.42754738849035        0.27206973059545       -1.15257384607193
H            0.12620899652617        0.99723794893535        1.10082895276389
H            2.42612308494313        0.14648561345669        0.91393423283146
H            8.57223986074401       -1.75897353741424        1.08609306474103
H            9.59679222072612       -0.25134595625094        2.72919443054268

          :  Hamiltonian                  GFN2-xTB          :
         :: gradient norm              0.000045698293 Eh/a0 ::
         :: HOMO-LUMO gap              2.577250521295 eV    ::
         :: SCC energy              -176.469193776616 Eh    ::
         :: -> dispersion             -0.156940745031 Eh    ::
         :: -> Gsolv                  -0.071554113956 Eh    ::
         :: repulsion energy           3.196656160332 Eh    ::

    * Orbital Energies and Occupations

         #    Occupation            Energy/Eh            Energy/eV
      -------------------------------------------------------------
         1        2.0000           -0.7162881             -19.4912
       ...           ...                  ...                  ...
       149        2.0000           -0.4113184             -11.1925
       150        2.0000           -0.4079107             -11.0998
       151        2.0000           -0.4044801             -11.0065
       152        2.0000           -0.4043421             -11.0027
       153        2.0000           -0.3942287             -10.7275
       154        2.0000           -0.3838995             -10.4464
       155        2.0000           -0.3778049             -10.2806
       156        2.0000           -0.3776632             -10.2767
       157        2.0000           -0.3742217             -10.1831
       158        2.0000           -0.3700885             -10.0706
       159        2.0000           -0.3623851              -9.8610
       160        2.0000           -0.3603149              -9.8047
       161        2.0000           -0.3481215              -9.4729 (HOMO)
       162                         -0.2534093              -6.8956 (LUMO)
       163                         -0.2471475              -6.7252
       164                         -0.2465673              -6.7094
       165                         -0.2433505              -6.6219
       166                         -0.2396342              -6.5208
       167                         -0.2374907              -6.4625
       168                         -0.2373902              -6.4597
       169                         -0.2318511              -6.3090
       170                         -0.2316266              -6.3029
       171                         -0.2252313              -6.1289
       172                         -0.2212254              -6.0198
       ...                                ...                  ...
       316                          0.7453677              20.2825
      -------------------------------------------------------------
                  HL-Gap            0.0947122 Eh            2.5773 eV

     #   Z          covCN         q      C6AA      α(0)
     1   6 C        2.837    -0.086    30.149     8.998
     2   6 C        2.895    -0.031    28.772     8.795
     3   6 C        2.970     0.013    27.725     8.637
     4   6 C        2.923    -0.033    28.825     8.804
     5   6 C        2.921    -0.041    29.011     8.833
     6   6 C        2.968    -0.001    28.061     8.689
     7   6 C        3.697     0.079    19.423     6.304
     8   8 O        1.704    -0.286    18.758     5.848
     9   6 C        2.856     0.138    24.977     8.192
    10   6 C        2.917    -0.081    30.025     8.985
    11   6 C        2.925    -0.037    28.921     8.819
    12   6 C        2.908    -0.065    29.612     8.923
    13   6 C        3.076     0.046    26.883     8.501
    14   6 C        3.071    -0.041    28.941     8.821
    15   6 C        3.068    -0.012    28.250     8.715
    16   6 C        2.912    -0.036    28.885     8.813
    17   6 C        2.920    -0.043    29.074     8.842
    18   6 C        2.923    -0.037    28.912     8.818
    19   6 C        2.910    -0.053    29.309     8.877
    20   6 C        3.077     0.045    26.909     8.505
    21   7 N        2.805    -0.043    22.068     6.977
    22   6 C        2.912     0.057    26.726     8.477
    23   6 C        2.921    -0.042    29.035     8.836
    24   6 C        2.922    -0.046    29.149     8.854
    25   6 C        2.924     0.061    26.639     8.464
    26   7 N        2.752    -0.066    22.524     7.049
    27   6 C        2.923     0.061    26.634     8.463
    28   6 C        2.922    -0.047    29.162     8.856
    29   6 C        2.921    -0.042    29.036     8.836
    30   6 C        2.912     0.056    26.744     8.480
    31   7 N        2.802    -0.046    22.120     6.985
    32   6 C        3.076     0.047    26.866     8.498
    33   6 C        2.909    -0.052    29.300     8.876
    34   6 C        2.924    -0.035    28.880     8.813
    35   6 C        2.919    -0.043    29.072     8.842
    36   6 C        2.912    -0.035    28.874     8.811
    37   6 C        3.067    -0.019    28.417     8.741
    38   6 C        3.067    -0.019    28.416     8.741
    39   6 C        2.912    -0.035    28.874     8.811
    40   6 C        2.919    -0.043    29.072     8.842
    41   6 C        2.924    -0.035    28.881     8.813
    42   6 C        2.909    -0.052    29.301     8.876
    43   6 C        3.077     0.047    26.867     8.498
    44   6 C        2.921    -0.042    29.033     8.836
    45   6 C        2.922    -0.047    29.165     8.856
    46   6 C        2.923     0.061    26.634     8.463
    47   6 C        2.922    -0.047    29.165     8.856
    48   6 C        2.921    -0.042    29.035     8.836
    49   6 C        2.912     0.056    26.746     8.480
    50   7 N        2.802    -0.045    22.115     6.984
    51   6 C        3.077     0.047    26.868     8.498
    52   6 C        2.909    -0.052    29.299     8.876
    53   6 C        2.924    -0.035    28.881     8.813
    54   6 C        2.920    -0.043    29.073     8.842
    55   6 C        2.912    -0.035    28.874     8.811
    56   6 C        3.067    -0.019    28.417     8.741
    57   6 C        3.067    -0.019    28.417     8.741
    58   6 C        2.912    -0.035    28.874     8.811
    59   6 C        2.919    -0.043    29.073     8.842
    60   6 C        2.924    -0.035    28.881     8.813
    61   6 C        2.909    -0.052    29.298     8.876
    62   6 C        3.076     0.047    26.868     8.498
    63   6 C        2.921    -0.042    29.036     8.836
    64   6 C        2.922    -0.047    29.167     8.857
    65   6 C        2.922    -0.046    29.149     8.854
    66   6 C        2.921    -0.042    29.037     8.837
    67   6 C        2.920    -0.031    28.776     8.797
    68   6 C        2.928    -0.035    28.870     8.812
    69   1 H        0.926     0.042     2.428     2.437
    70   1 H        0.926     0.039     2.459     2.452
    71   1 H        0.925     0.036     2.503     2.474
    72   1 H        0.926     0.042     2.424     2.435
    73   1 H        0.925     0.032     2.555     2.500
    74   1 H        0.924     0.059     2.208     2.324
    75   1 H        0.923     0.037     2.484     2.465
    76   1 H        0.926     0.031     2.569     2.506
    77   1 H        0.926     0.034     2.535     2.490
    78   1 H        0.926     0.034     2.535     2.490
    79   1 H        0.926     0.035     2.512     2.479
    80   1 H        0.926     0.026     2.642     2.542
    81   1 H        0.926     0.029     2.599     2.521
    82   1 H        0.926     0.030     2.586     2.515
    83   1 H        0.926     0.046     2.371     2.408
    84   1 H        0.926     0.043     2.415     2.430
    85   1 H        0.926     0.042     2.421     2.433
    86   1 H        0.926     0.045     2.384     2.414
    87   1 H        0.926     0.030     2.592     2.518
    88   1 H        0.926     0.029     2.597     2.520
    89   1 H        0.926     0.027     2.634     2.538
    90   1 H        0.926     0.029     2.601     2.522
    91   1 H        0.926     0.029     2.601     2.522
    92   1 H        0.926     0.027     2.634     2.538
    93   1 H        0.926     0.029     2.598     2.520
    94   1 H        0.926     0.030     2.592     2.518
    95   1 H        0.926     0.045     2.384     2.414
    96   1 H        0.926     0.042     2.426     2.436
    97   1 H        0.926     0.042     2.424     2.434
    98   1 H        0.926     0.045     2.384     2.414
    99   1 H        0.926     0.030     2.592     2.517
   100   1 H        0.926     0.029     2.597     2.520
   101   1 H        0.926     0.027     2.635     2.538
   102   1 H        0.926     0.029     2.602     2.522
   103   1 H        0.926     0.029     2.602     2.523
   104   1 H        0.926     0.027     2.635     2.538
   105   1 H        0.926     0.029     2.596     2.520
   106   1 H        0.926     0.030     2.592     2.518
   107   1 H        0.926     0.045     2.384     2.414
   108   1 H        0.926     0.042     2.421     2.433
   109   1 H        0.926     0.043     2.412     2.429
   110   1 H        0.926     0.046     2.369     2.407
   111   1 H        0.926     0.036     2.509     2.477
   112   1 H        0.926     0.035     2.512     2.479

molecular dipole:
                 x           y           z       tot (Debye)
 q only:        0.475       0.327      -0.018
   full:        0.570       0.379      -0.106       1.761

 projected vibrational frequencies (cm⁻¹)
eigval :       -0.00    -0.00     0.00     0.00     0.00     0.00
eigval :        6.25     7.10    10.78    11.82    13.35    14.26
eigval :       17.74    20.34    24.18    33.88    36.42    39.34
eigval :       41.83    54.21    55.67    64.29    80.19    82.10
eigval :       88.50    94.02   103.24   104.60   106.91   116.68
eigval :      118.84   121.80   145.21   145.50   158.15   162.54
eigval :      165.10   171.25   178.87   184.92   208.80   227.43
eigval :      232.30   236.90   247.52   253.12   260.74   271.42
eigval :      271.74   282.72   298.99   302.06   319.31   319.83
eigval :      325.28   338.02   369.05   373.32   381.04   386.82
eigval :      387.88   393.38   393.53   395.40   398.24   404.54
eigval :      408.25   411.47   416.24   417.98   424.58   426.22
eigval :      430.51   437.40   438.59   447.95   456.38   484.19
eigval :      502.43   502.87   505.44   515.82   518.77   519.21
eigval :      532.62   533.23   534.50   539.87   540.88   541.04
eigval :      541.48   573.77   578.65   581.10   583.45   590.80
eigval :      596.16   597.58   605.98   607.60   615.71   619.20
eigval :      621.78   624.44   641.85   656.45   670.10   673.34
eigval :      674.29   679.11   679.54   685.06   693.41   699.90
eigval :      706.81   707.07   710.04   714.73   735.19   741.66
eigval :      753.28   755.90   760.62   768.65   769.60   775.16
eigval :      780.38   780.69   783.64   805.17   811.40   817.61
eigval :      819.62   827.75   852.63   853.92   865.43   866.06
eigval :      866.89   869.25   872.31   872.67   876.15   876.90
eigval :      877.98   889.38   895.56   897.02   898.40   899.44
eigval :      900.95   901.57   901.87   902.07   902.94   904.59
eigval :      913.10   917.71   918.55   919.31   920.56   922.21
eigval :      923.82   924.57   924.95   925.75   926.34   931.43
eigval :      931.99   933.35   947.62   960.16   978.68   995.76
eigval :     1003.00  1010.95  1011.00  1012.83  1012.90  1020.03
eigval :     1025.78  1028.80  1038.22  1067.89  1067.94  1069.26
eigval :     1071.38  1071.97  1096.51  1116.24  1116.75  1118.17
eigval :     1133.56  1135.00  1136.54  1137.39  1147.76  1149.92
eigval :     1151.11  1174.13  1174.74  1177.44  1179.44  1180.62
eigval :     1181.45  1181.82  1182.01  1184.26  1194.32  1194.91
eigval :     1197.54  1200.85  1201.67  1212.49  1218.77  1234.85
eigval :     1235.03  1237.10  1241.84  1244.92  1247.53  1256.37
eigval :     1262.34  1265.18  1265.31  1274.28  1292.91  1295.94
eigval :     1296.43  1298.51  1300.68  1301.88  1305.83  1308.35
eigval :     1309.80  1315.27  1321.48  1321.88  1322.67  1337.99
eigval :     1355.31  1355.56  1358.66  1361.06  1361.21  1363.47
eigval :     1367.49  1372.47  1374.99  1407.39  1409.73  1414.61
eigval :     1416.70  1418.28  1419.60  1427.16  1427.39  1429.93
eigval :     1435.27  1436.37  1447.26  1474.41  1474.69  1477.31
eigval :     1480.50  1480.71  1486.92  1487.41  1489.53  1490.74
eigval :     1494.10  1551.76  1559.93  1560.12  1571.64  1572.55
eigval :     1572.79  1572.88  1585.74  1587.17  1587.32  1590.68
eigval :     1594.97  1595.75  1596.84  1596.88  1597.89  1599.81
eigval :     1607.66  1612.79  1613.07  1673.83  2883.85  2923.98
eigval :     3040.14  3065.61  3067.75  3069.72  3069.72  3069.99
eigval :     3070.01  3070.14  3075.17  3075.34  3075.92  3075.96
eigval :     3078.45  3078.53  3081.84  3083.24  3083.31  3083.93
eigval :     3084.16  3084.49  3085.11  3085.32  3086.58  3086.91
eigval :     3087.68  3088.32  3089.97  3090.04  3092.28  3092.32
eigval :     3095.46  3096.01  3096.13  3096.72  3098.02  3098.50
eigval :     3098.87  3099.52  3100.05  3107.32  3110.41  3126.68

   temp. (K)  partition function   enthalpy   heat capacity  entropy
                                   cal/mol     cal/K/mol   cal/K/mol   J/K/mol
 298.15  VIB  0.239E+28            32435.363    202.612    204.365
         ROT  0.405E+09              888.752      2.981     42.365
         INT  0.966E+36            33324.115    205.592    246.730
         TR   0.250E+29             1481.254      4.968     46.156
         TOT                       34805.3692   210.5606   292.8864  1225.4365

       T/K    H(0)-H(T)+PV         H(T)/Eh          T*S/Eh         G(T)/Eh
   ------------------------------------------------------------------------
    298.15    0.554659E-01    0.921855E+00    0.139160E+00    0.782695E+00
   ------------------------------------------------------------------------

         :::::::::::::::::::::::::::::::::::::::::::::::::::::
         ::                  THERMODYNAMIC                  ::
         :::::::::::::::::::::::::::::::::::::::::::::::::::::
         :: total free energy        -172.489842292813 Eh   ::
         ::.................................................::
         :: total energy             -173.272537616481 Eh   ::
         :: zero point energy           0.866389199159 Eh   ::
         :: G(RRHO) w/o ZPVE           -0.083693875491 Eh   ::
         :: G(RRHO) contrib.            0.782695323668 Eh   ::
         :::::::::::::::::::::::::::::::::::::::::::::::::::::

           -------------------------------------------------
          | TOTAL ENERGY             -173.272537616481 Eh   |
          | TOTAL ENTHALPY           -172.350682530987 Eh   |
          | TOTAL FREE ENERGY        -172.489842292813 Eh   |
          | GRADIENT NORM               0.000045705718 Eh/α |
          | HOMO-LUMO GAP               2.577250478302 eV   |
           -------------------------------------------------

 * finished run on 2025/09/14 at 04:38:40.790
