   * xtb version 6.7.1 (edcfbbe) compiled by 'albert@albert-system' on 2024-07-22

   ID    Z sym.   atoms
    1    6 C      1-7, 9-20, 22-25, 27-30, 32-49, 51-68
    2    8 O      8
    3    7 N      21, 26, 31, 50
    4    1 H      69-112

          program call               : xtb data2507/toluene/V–TPA/V–TPA_toluene_S0_crest.xyz --gfn 2 --gbsa toluene --ohess vtight --parallel 40 --molden --ceasefiles --namespace data2507/toluene/V–TPA/V–TPA_toluene_S0_finalOpt
      * Solvation model:               GBSA
        Solvent                        toluene
        Solvent mass                       9.2140E+01 g/mol
          :  Hamiltonian                  GFN2-xTB          :
 * total energy  :  -173.2725658 Eh     change       -0.3206338E-08 Eh
 * total energy  :  -173.2726316 Eh     change       -0.6584902E-04 Eh
 * total energy  :  -173.2726770 Eh     change       -0.4535280E-04 Eh
 * total energy  :  -173.2726918 Eh     change       -0.1485171E-04 Eh
 * total energy  :  -173.2727007 Eh     change       -0.8885728E-05 Eh
 * total energy  :  -173.2727041 Eh     change       -0.3332023E-05 Eh
 * total energy  :  -173.2727079 Eh     change       -0.3835922E-05 Eh
 * total energy  :  -173.2727130 Eh     change       -0.5055182E-05 Eh
 * total energy  :  -173.2727190 Eh     change       -0.6014799E-05 Eh
 * total energy  :  -173.2727263 Eh     change       -0.7314779E-05 Eh
 * total energy  :  -173.2728213 Eh     change       -0.3336242E-06 Eh
 * total energy  :  -173.2728216 Eh     change       -0.3644737E-06 Eh
 * total energy  :  -173.2728220 Eh     change       -0.3505048E-06 Eh
 * total energy  :  -173.2728223 Eh     change       -0.3007871E-06 Eh
 * total energy  :  -173.2728226 Eh     change       -0.2576828E-06 Eh
 * total energy  :  -173.2728228 Eh     change       -0.2763015E-06 Eh
 * total energy  :  -173.2728231 Eh     change       -0.2832889E-06 Eh
 * total energy  :  -173.2728234 Eh     change       -0.3198828E-06 Eh
 * total energy  :  -173.2728234 Eh     change       -0.9950668E-08 Eh
   *** GEOMETRY OPTIMIZATION CONVERGED AFTER 68 ITERATIONS ***

 final structure:
================
112
 xtb: 6.7.1 (edcfbbe)
C           12.51403439127015        2.71079199899098        2.03664451908205
C           11.58551252428260        1.79402365191457        2.28414586082451
C           11.01098234520634        0.84980541790826        1.33251772110483
C           11.36413852834922        0.81553840695681       -0.01796580673957
C           10.78625143949445       -0.09520065990910       -0.87887999775614
C            9.84126750033738       -1.00588480041413       -0.41977460167720
C            9.22994064147998       -2.01357219810013       -1.36282453408835
O            7.94171227149961       -2.45482600886460       -0.98509816411388
C            6.89929747633046       -1.57704390130622       -1.05155076547671
C            6.98614331097561       -0.25049246145710       -1.44560420896170
C            5.84959503059352        0.55370248045081       -1.50498096655995
C            4.59821604697539        0.08412171899502       -1.16592157274106
C            4.50507699348838       -1.23742331370191       -0.74587537531434
C            5.63874252950962       -2.07570275061099       -0.69732481088480
C            5.18122629138997       -3.36496330185708       -0.26482866858870
C            5.81892756255047       -4.57319398687215       -0.01214703904802
C            5.06083680244293       -5.64077605384068        0.42669422502419
C            3.68743303727629       -5.51269028468595        0.62612785505524
C            3.03148590678594       -4.32107108680461        0.38161873759877
C            3.78403201621432       -3.24957114848331       -0.07817701888159
N            3.39130037345663       -1.95938643586924       -0.37151516808783
C            2.07925456906229       -1.46519061568194       -0.30121404145144
C            1.04195097149677       -2.12871579989108       -0.95134048369747
C           -0.24769473925684       -1.64441985343072       -0.88249888595859
C           -0.53234354564851       -0.48321213051879       -0.16230412347327
N           -1.84003270298764        0.00731497992266       -0.09148925564518
C           -2.07200244214435        1.38695478262411       -0.09165178214549
C           -3.08555076060518        1.93562750091300        0.69540643266672
C           -3.31329381777160        3.29599539520920        0.69702749251322
C           -2.53537616879527        4.14122224570403       -0.09008416295517
N           -2.76688274648075        5.52578352605719       -0.08636878597749
C           -1.81723694592547        6.50244740102932        0.13489223260718
C           -0.46798396090749        6.37184567189942        0.43382849714294
C            0.26295114072617        7.52651017154268        0.63780919813335
C           -0.32822416148715        8.78603714370686        0.55554295193459
C           -1.67390832774028        8.92197249615339        0.27774615895237
C           -2.43023507460628        7.77557662514883        0.06818486986446
C           -3.81916096106505        7.54443035648964       -0.21519454815880
C           -4.90831982814302        8.38382285790858       -0.41333911475055
C           -6.13645802285347        7.81991713807068       -0.69658901376068
C           -6.28467004230394        6.43744673345907       -0.79465307822350
C           -5.21689027683139        5.58206185358576       -0.60178156579678
C           -3.98351301731479        6.14187797917983       -0.29792902001824
C           -1.52464587867596        3.59792149326840       -0.87896653854284
C           -1.29473964892948        2.23784929668501       -0.87874475751606
C           -2.91859165863487       -0.88069713038030       -0.01813371579640
C           -2.81910864133452       -2.06038220012970        0.72088096318200
C           -3.88418756013851       -2.93377076585831        0.79443062502297
C           -5.07410581131889       -2.65110508219011        0.12847911284744
N           -6.15838537182212       -3.53924068022576        0.20317391930631
C           -7.45162794753136       -3.20535160361079        0.55090499311275
C           -7.97436448487083       -1.97925545410424        0.93874832417758
C           -9.31719421710808       -1.92187738031327        1.25914949650682
C          -10.12720869186308       -3.05484632145402        1.20535701105926
C           -9.60844055093469       -4.28180415441394        0.84206664918835
C           -8.26059322102604       -4.36516789242436        0.51569091346712
C           -7.40309907876954       -5.44793767620257        0.12193495871024
C           -7.61334052896835       -6.80326606091717       -0.09930538349022
C           -6.54651346228555       -7.58202779605608       -0.50166934249632
C           -5.28485934095221       -7.02295572030561       -0.69742848095514
C           -5.05062582505080       -5.67817165570366       -0.48322137679620
C           -6.11404419586398       -4.89380517179757       -0.05790297921637
C           -5.17694605895997       -1.47627295393332       -0.61215198520771
C           -4.11328318758860       -0.60105902838096       -0.68321916506350
C            0.51076989020062        0.17867939672297        0.48736625111243
C            1.80006409801916       -0.30666743101874        0.41907543165821
C            9.48779076903578       -0.98522025253511        0.92279345052398
C           10.06018713229343       -0.06847553684389        1.78208770179787
H           12.95313751950100        2.85097940046539        1.06374799932255
H           12.87506940585782        3.36317630323875        2.81362119407535
H           11.19144133708885        1.70849563793150        3.29010328355672
H           12.09370696713645        1.51087426705353       -0.40281878918687
H           11.06947291555242       -0.10175462022475       -1.92247318142152
H            9.83532586283579       -2.92856420367574       -1.35915186171728
H            9.21518447363067       -1.61895617396051       -2.38809038675177
H            7.93737656102210        0.18264442697510       -1.70941308304411
H            5.96221174271345        1.57812101570449       -1.82852118293183
H            3.72726740900547        0.71670482232401       -1.23189827038219
H            6.88463897821311       -4.66104123848621       -0.15652638902607
H            5.53674915092765       -6.58981499721986        0.62745571172351
H            3.12357991053141       -6.36273570198804        0.98247040919601
H            1.96967770009311       -4.22685170981615        0.55275471079945
H            1.25622965039836       -3.01614252527075       -1.52757600774606
H           -1.04401312076235       -2.15913398968929       -1.39905938055558
H           -3.68649956784442        1.28852697494474        1.31669005157133
H           -4.08501937027391        3.71413958660610        1.32572696983095
H           -0.00430106684519        5.40017809879577        0.51462498644086
H            1.31554805524941        7.45182457866348        0.86984040772232
H            0.27757556529465        9.66522504466259        0.72016551558926
H           -2.13387103281474        9.89779606185391        0.22748985573278
H           -4.79164401671315        9.45563808089347       -0.35085556369979
H           -6.99592050578746        8.45556388036355       -0.85266267050665
H           -7.25567174715023        6.02608791189708       -1.03016262641379
H           -5.33866937530684        4.51339684806817       -0.69468014039448
H           -0.93233569072145        4.24604570631464       -1.50720715007941
H           -0.51505129205867        1.82344293786223       -1.50022335620049
H           -1.90359235208920       -2.28213367027911        1.24858388163185
H           -3.80582844686024       -3.83282075868449        1.38704751922855
H           -7.35226120299199       -1.09890422813196        0.99761812380956
H           -9.74862166589827       -0.97852923705470        1.56137904142586
H          -11.17339058728930       -2.96829195226406        1.46047291041417
H          -10.23335145349410       -5.16219254080020        0.81477797283551
H           -8.59393759503359       -7.23429262342956        0.03828768711647
H           -6.68890088781731       -8.63847046595516       -0.67686663297980
H           -4.47246957610242       -7.65528047506929       -1.02559862703628
H           -4.07301073712565       -5.25211980789878       -0.65114107920735
H           -6.08933822394359       -1.26293124191810       -1.14846875686190
H           -4.19803722780328        0.30315695273987       -1.26729300676307
H            0.30146997096009        1.07139314880990        1.05754261632419
H            2.59749774913339        0.19987376393478        0.94165333515715
H            8.75425014673045       -1.68917257433919        1.28957615271225
H            9.76886062480017       -0.06424136579590        2.82316114983756

          :  Hamiltonian                  GFN2-xTB          :
         :: gradient norm              0.000071391025 Eh/a0 ::
         :: HOMO-LUMO gap              2.552815609241 eV    ::
         :: SCC energy              -176.469765074174 Eh    ::
         :: -> dispersion             -0.157233798064 Eh    ::
         :: -> Gsolv                  -0.071566501353 Eh    ::
         :: repulsion energy           3.196941630667 Eh    ::

    * Orbital Energies and Occupations

         #    Occupation            Energy/Eh            Energy/eV
      -------------------------------------------------------------
         1        2.0000           -0.7162290             -19.4896
       ...           ...                  ...                  ...
       149        2.0000           -0.4113676             -11.1939
       150        2.0000           -0.4079989             -11.1022
       151        2.0000           -0.4045523             -11.0084
       152        2.0000           -0.4044996             -11.0070
       153        2.0000           -0.3941512             -10.7254
       154        2.0000           -0.3839136             -10.4468
       155        2.0000           -0.3778742             -10.2825
       156        2.0000           -0.3778351             -10.2814
       157        2.0000           -0.3747593             -10.1977
       158        2.0000           -0.3704086             -10.0793
       159        2.0000           -0.3626765              -9.8689
       160        2.0000           -0.3602159              -9.8020
       161        2.0000           -0.3475154              -9.4564 (HOMO)
       162                         -0.2537012              -6.9036 (LUMO)
       163                         -0.2473576              -6.7309
       164                         -0.2465832              -6.7099
       165                         -0.2432503              -6.6192
       166                         -0.2397154              -6.5230
       167                         -0.2375067              -6.4629
       168                         -0.2374746              -6.4620
       169                         -0.2319430              -6.3115
       170                         -0.2316289              -6.3029
       171                         -0.2252957              -6.1306
       172                         -0.2212957              -6.0218
       ...                                ...                  ...
       316                          0.7452089              20.2782
      -------------------------------------------------------------
                  HL-Gap            0.0938142 Eh            2.5528 eV

     #   Z          covCN         q      C6AA      α(0)
     1   6 C        2.837    -0.086    30.148     8.998
     2   6 C        2.895    -0.031    28.773     8.795
     3   6 C        2.970     0.013    27.726     8.637
     4   6 C        2.923    -0.033    28.824     8.804
     5   6 C        2.921    -0.041    29.010     8.833
     6   6 C        2.968    -0.001    28.059     8.689
     7   6 C        3.697     0.079    19.423     6.304
     8   8 O        1.704    -0.287    18.762     5.848
     9   6 C        2.856     0.138    24.979     8.192
    10   6 C        2.917    -0.081    30.028     8.986
    11   6 C        2.925    -0.037    28.923     8.819
    12   6 C        2.908    -0.065    29.611     8.923
    13   6 C        3.077     0.046    26.881     8.500
    14   6 C        3.071    -0.041    28.944     8.821
    15   6 C        3.068    -0.012    28.253     8.716
    16   6 C        2.912    -0.036    28.886     8.813
    17   6 C        2.920    -0.043    29.076     8.842
    18   6 C        2.923    -0.037    28.912     8.818
    19   6 C        2.910    -0.053    29.310     8.877
    20   6 C        3.078     0.045    26.906     8.504
    21   7 N        2.805    -0.043    22.075     6.978
    22   6 C        2.912     0.056    26.736     8.479
    23   6 C        2.921    -0.041    29.031     8.836
    24   6 C        2.922    -0.047    29.163     8.856
    25   6 C        2.923     0.061    26.635     8.463
    26   7 N        2.752    -0.066    22.516     7.047
    27   6 C        2.923     0.061    26.635     8.463
    28   6 C        2.922    -0.047    29.157     8.855
    29   6 C        2.921    -0.042    29.036     8.836
    30   6 C        2.912     0.056    26.741     8.480
    31   7 N        2.802    -0.045    22.113     6.984
    32   6 C        3.076     0.047    26.868     8.498
    33   6 C        2.909    -0.052    29.298     8.876
    34   6 C        2.924    -0.035    28.881     8.813
    35   6 C        2.919    -0.043    29.072     8.842
    36   6 C        2.912    -0.035    28.874     8.811
    37   6 C        3.067    -0.019    28.416     8.741
    38   6 C        3.067    -0.019    28.416     8.741
    39   6 C        2.912    -0.035    28.873     8.811
    40   6 C        2.919    -0.043    29.072     8.842
    41   6 C        2.924    -0.035    28.881     8.813
    42   6 C        2.909    -0.052    29.298     8.876
    43   6 C        3.076     0.047    26.869     8.498
    44   6 C        2.921    -0.042    29.035     8.836
    45   6 C        2.922    -0.047    29.157     8.855
    46   6 C        2.923     0.061    26.637     8.464
    47   6 C        2.922    -0.047    29.157     8.855
    48   6 C        2.921    -0.042    29.037     8.837
    49   6 C        2.912     0.056    26.741     8.480
    50   7 N        2.802    -0.045    22.110     6.984
    51   6 C        3.076     0.047    26.869     8.499
    52   6 C        2.909    -0.052    29.299     8.876
    53   6 C        2.924    -0.035    28.881     8.813
    54   6 C        2.920    -0.043    29.071     8.842
    55   6 C        2.912    -0.035    28.873     8.811
    56   6 C        3.067    -0.019    28.415     8.741
    57   6 C        3.067    -0.019    28.415     8.741
    58   6 C        2.912    -0.035    28.873     8.811
    59   6 C        2.919    -0.043    29.071     8.842
    60   6 C        2.924    -0.035    28.880     8.813
    61   6 C        2.910    -0.052    29.298     8.876
    62   6 C        3.076     0.047    26.869     8.499
    63   6 C        2.921    -0.042    29.038     8.837
    64   6 C        2.922    -0.047    29.157     8.855
    65   6 C        2.922    -0.047    29.163     8.856
    66   6 C        2.921    -0.042    29.034     8.836
    67   6 C        2.920    -0.031    28.776     8.797
    68   6 C        2.928    -0.035    28.869     8.811
    69   1 H        0.926     0.041     2.429     2.437
    70   1 H        0.926     0.039     2.459     2.452
    71   1 H        0.925     0.036     2.504     2.475
    72   1 H        0.926     0.042     2.424     2.434
    73   1 H        0.925     0.032     2.555     2.500
    74   1 H        0.924     0.059     2.209     2.324
    75   1 H        0.923     0.037     2.486     2.466
    76   1 H        0.926     0.031     2.569     2.507
    77   1 H        0.926     0.034     2.537     2.491
    78   1 H        0.926     0.033     2.540     2.492
    79   1 H        0.926     0.035     2.515     2.480
    80   1 H        0.926     0.026     2.644     2.543
    81   1 H        0.926     0.029     2.601     2.522
    82   1 H        0.926     0.030     2.590     2.517
    83   1 H        0.926     0.046     2.377     2.411
    84   1 H        0.926     0.042     2.418     2.432
    85   1 H        0.926     0.042     2.422     2.434
    86   1 H        0.926     0.045     2.381     2.413
    87   1 H        0.926     0.030     2.591     2.517
    88   1 H        0.926     0.029     2.596     2.519
    89   1 H        0.926     0.027     2.634     2.538
    90   1 H        0.926     0.029     2.601     2.522
    91   1 H        0.926     0.029     2.601     2.522
    92   1 H        0.926     0.027     2.634     2.538
    93   1 H        0.926     0.029     2.596     2.519
    94   1 H        0.926     0.030     2.591     2.517
    95   1 H        0.926     0.045     2.381     2.413
    96   1 H        0.926     0.042     2.420     2.433
    97   1 H        0.926     0.042     2.420     2.433
    98   1 H        0.926     0.045     2.380     2.413
    99   1 H        0.926     0.030     2.589     2.516
   100   1 H        0.926     0.029     2.595     2.519
   101   1 H        0.926     0.027     2.634     2.538
   102   1 H        0.926     0.029     2.601     2.522
   103   1 H        0.926     0.029     2.601     2.522
   104   1 H        0.926     0.027     2.634     2.538
   105   1 H        0.926     0.029     2.595     2.519
   106   1 H        0.926     0.030     2.589     2.516
   107   1 H        0.926     0.045     2.381     2.413
   108   1 H        0.926     0.042     2.423     2.434
   109   1 H        0.926     0.042     2.419     2.432
   110   1 H        0.926     0.046     2.377     2.411
   111   1 H        0.926     0.036     2.509     2.477
   112   1 H        0.926     0.035     2.512     2.478

molecular dipole:
                 x           y           z       tot (Debye)
 q only:        0.411       0.327      -0.059
   full:        0.508       0.369      -0.148       1.639

 projected vibrational frequencies (cm⁻¹)
eigval :       -0.00    -0.00     0.00     0.00     0.00     0.00
eigval :        3.27     6.68     9.10    10.69    11.21    15.64
eigval :       18.12    21.57    30.41    35.76    38.36    41.10
eigval :       51.23    55.24    58.08    61.87    78.94    80.92
eigval :       86.80    90.79   102.93   105.56   107.17   115.33
eigval :      118.17   121.45   142.99   147.21   161.23   163.38
eigval :      166.51   170.95   177.13   179.25   208.85   230.69
eigval :      231.18   232.32   247.49   253.69   263.31   271.25
eigval :      273.21   282.99   299.92   302.68   317.52   322.66
eigval :      327.18   330.67   366.55   367.59   385.10   385.28
eigval :      391.47   393.55   394.08   397.25   401.05   404.01
eigval :      409.48   410.85   412.05   416.25   423.29   425.26
eigval :      430.58   436.94   437.86   450.55   456.11   482.89
eigval :      501.60   503.14   503.89   514.81   519.12   519.19
eigval :      533.28   534.65   535.61   539.75   540.50   541.16
eigval :      543.53   573.67   577.84   578.95   582.47   589.65
eigval :      591.56   599.77   608.05   610.37   616.49   618.79
eigval :      621.21   621.57   641.48   656.44   669.15   672.85
eigval :      675.87   677.77   679.96   683.58   693.38   700.05
eigval :      705.37   706.00   709.61   714.48   735.25   741.90
eigval :      753.34   756.06   760.63   766.35   768.31   772.94
eigval :      777.86   779.72   787.94   805.14   811.51   815.98
eigval :      817.63   828.33   852.43   854.18   863.92   864.68
eigval :      867.85   869.57   870.21   871.56   874.41   875.67
eigval :      877.60   888.80   896.87   896.98   898.10   898.58
eigval :      899.38   900.42   900.71   901.66   901.73   913.04
eigval :      916.03   916.44   917.42   918.77   919.28   920.79
eigval :      922.71   923.53   924.36   924.82   926.82   930.04
eigval :      930.74   932.74   947.62   960.19   978.32   995.45
eigval :     1002.85  1010.93  1011.10  1012.70  1013.56  1019.73
eigval :     1025.28  1028.55  1038.20  1068.27  1068.30  1068.57
eigval :     1071.80  1072.15  1096.37  1116.40  1116.66  1117.30
eigval :     1132.96  1134.80  1136.34  1137.23  1148.71  1151.00
eigval :     1151.41  1174.68  1174.92  1175.55  1180.22  1180.69
eigval :     1181.43  1181.86  1182.03  1184.71  1194.66  1195.04
eigval :     1197.55  1201.31  1201.71  1212.63  1219.09  1235.08
eigval :     1235.16  1237.20  1241.80  1244.99  1248.00  1256.39
eigval :     1261.96  1264.68  1265.27  1274.55  1292.94  1296.16
eigval :     1296.83  1298.69  1300.80  1301.91  1306.00  1308.89
eigval :     1309.34  1315.77  1321.87  1322.09  1323.74  1338.33
eigval :     1355.56  1355.68  1358.63  1361.18  1361.26  1363.66
eigval :     1367.64  1372.68  1374.87  1407.44  1409.54  1414.72
eigval :     1416.15  1418.38  1419.73  1427.36  1427.53  1430.01
eigval :     1435.50  1436.34  1446.66  1474.58  1474.65  1477.20
eigval :     1480.36  1480.76  1487.14  1487.42  1489.53  1490.69
eigval :     1494.28  1551.89  1560.11  1560.16  1571.59  1572.70
eigval :     1572.94  1572.99  1585.90  1587.16  1587.31  1590.64
eigval :     1595.70  1595.89  1596.90  1597.04  1598.03  1599.59
eigval :     1607.77  1612.80  1613.13  1673.56  2884.00  2923.17
eigval :     3040.48  3065.43  3067.58  3069.40  3069.79  3070.17
eigval :     3070.29  3070.53  3075.32  3075.67  3076.02  3076.40
eigval :     3077.56  3078.60  3081.47  3083.34  3083.60  3084.20
eigval :     3084.26  3084.57  3085.28  3085.36  3086.66  3086.73
eigval :     3087.59  3088.00  3090.22  3090.26  3092.51  3092.54
eigval :     3095.43  3096.15  3096.20  3096.40  3098.04  3098.30
eigval :     3098.67  3099.19  3099.66  3107.38  3111.52  3126.48

   temp. (K)  partition function   enthalpy   heat capacity  entropy
                                   cal/mol     cal/K/mol   cal/K/mol   J/K/mol
 298.15  VIB  0.396E+28            32435.784    203.049    205.419
         ROT  0.398E+09              888.752      2.981     42.331
         INT  0.158E+37            33324.537    206.030    247.749
         TR   0.250E+29             1481.254      4.968     46.156
         TOT                       34805.7905   210.9982   293.9052  1229.6995

       T/K    H(0)-H(T)+PV         H(T)/Eh          T*S/Eh         G(T)/Eh
   ------------------------------------------------------------------------
    298.15    0.554666E-01    0.921803E+00    0.139644E+00    0.782159E+00
   ------------------------------------------------------------------------

         :::::::::::::::::::::::::::::::::::::::::::::::::::::
         ::                  THERMODYNAMIC                  ::
         :::::::::::::::::::::::::::::::::::::::::::::::::::::
         :: total free energy        -172.490664759178 Eh   ::
         ::.................................................::
         :: total energy             -173.272823445970 Eh   ::
         :: zero point energy           0.866335994451 Eh   ::
         :: G(RRHO) w/o ZPVE           -0.084177307660 Eh   ::
         :: G(RRHO) contrib.            0.782158686791 Eh   ::
         :::::::::::::::::::::::::::::::::::::::::::::::::::::

           -------------------------------------------------
          | TOTAL ENERGY             -173.272823445970 Eh   |
          | TOTAL ENTHALPY           -172.351020893743 Eh   |
          | TOTAL FREE ENERGY        -172.490664759178 Eh   |
          | GRADIENT NORM               0.000071378423 Eh/α |
          | HOMO-LUMO GAP               2.552815538145 eV   |
           -------------------------------------------------

 * finished run on 2025/09/14 at 04:59:54.173
