   * xtb version 6.7.1 (edcfbbe) compiled by 'albert@albert-system' on 2024-07-22

   ID    Z sym.   atoms
    1    8 O      1, 3, 15, 35
    2   16 S      2
    3    6 C      4-7, 9-14, 16-27, 29-34, 36-43
    4    7 N      8, 28
    5    1 H      44-67

          program call               : xtb data2507/gas/DPS-PXZ/DPS-PXZ_gas_T1_crest.xyz --gfn 2 --spinpol --tblite --uhf 2 --ohess vtight --parallel 40 --molden --ceasefiles --namespace data2507/gas/DPS-PXZ/DPS-PXZ_gas_T1_finalOpt
 * total energy  :  -114.6207065 Eh     change       -0.6058539E-07 Eh
 * total energy  :  -114.6207110 Eh     change       -0.4487525E-05 Eh
 * total energy  :  -114.6207132 Eh     change       -0.2286578E-05 Eh
 * total energy  :  -114.6207142 Eh     change       -0.9183834E-06 Eh
 * total energy  :  -114.6207151 Eh     change       -0.9268284E-06 Eh
 * total energy  :  -114.6207157 Eh     change       -0.5757375E-06 Eh
 * total energy  :  -114.6207162 Eh     change       -0.4900194E-06 Eh
 * total energy  :  -114.6207164 Eh     change       -0.1912096E-06 Eh
 * total energy  :  -114.6207164 Eh     change       -0.2152632E-08 Eh
   *** GEOMETRY OPTIMIZATION CONVERGED AFTER 9 ITERATIONS ***

 final structure:
================
67
 xtb: 6.7.1 (edcfbbe)
O           -0.19338534861744        5.57741999378242       -1.20386277020054
S            0.07023550866034        4.83767281337819        0.00285064767733
O            0.35382460329717        5.56808942534810        1.21070961469741
C            1.28738604880335        3.57544425925887       -0.29238317871409
C            1.76240824022250        2.85147776357048        0.81034679762273
C            2.17222535500500        1.55225584678909        0.65866060968002
C            2.10305168182969        0.93674168504967       -0.60412290179177
N            2.33075639401849       -0.45254601520296       -0.72410373744266
C            3.51399009196625       -1.01318792823772       -0.27669516729798
C            4.61649262192094       -0.23190884575089        0.08035066273581
C            5.77269540168985       -0.82035819075266        0.54824739590546
C            5.86419241687334       -2.20312648098789        0.66711142277379
C            4.79786350696683       -2.99723964402338        0.28276741790804
C            3.63513835568656       -2.41741971251357       -0.19710985201768
O            2.63285712105341       -3.25051090809213       -0.59701559138719
C            1.50305650837340       -2.68961476587261       -1.11002162140077
C            0.51236406098276       -3.55534052635000       -1.54798261953874
C           -0.68034257152283       -3.05879362987634       -2.04165129672554
C           -0.88930764169514       -1.68701570967777       -2.07085653936651
C            0.08888126770162       -0.81558441427746       -1.63052095022066
C            1.31546698554624       -1.29225281497605       -1.16579941661538
C            1.74408684286315        1.70011923184409       -1.72683622139946
C            1.33158038815363        2.99896556671748       -1.56878050894081
C           -1.18110322240898        3.60871317257556        0.29597082369860
C           -1.24028729470138        3.03062618048059        1.57100692031646
C           -1.68976933715422        1.74375248051857        1.72637714005869
C           -2.07203323894244        0.99383834333729        0.60236572805947
N           -2.34071774330109       -0.38834522839112        0.71978289933680
C           -3.54171090684710       -0.91264812123560        0.27502851539252
C           -4.62045675402642       -0.09807297837133       -0.07945295025009
C           -5.79588561759330       -0.65100312617237       -0.54327668940043
C           -5.93043327888900       -2.03004372785074       -0.66023351150743
C           -4.88776474838831       -2.85634373567338       -0.27857504320896
C           -3.70619010106963       -2.31213278907482        0.19686002960892
O           -2.72886771761374       -3.17574493308420        0.59429950847221
C           -1.58151372625136       -2.64948615954745        1.10556505990844
C           -0.61777405385567       -3.54500612107102        1.54324004237700
C            0.59033853459182       -3.08507223821921        2.03546525399749
C            0.84146229029566       -1.72065352367894        2.06333512888916
C           -0.10980554158453       -0.81978348287912        1.62308762331292
C           -1.35107323383643       -1.25882810025210        1.16014152813653
C           -2.12440299734720        1.61396887543257       -0.65890697065119
C           -1.67740287291234        2.90124845636175       -0.80797188042814
H            1.76369343267132        3.33128121382434        1.77597033908463
H            2.51172576174336        0.97905374674701        1.50901680445697
H            4.55485542334340        0.83947410783544       -0.02480401128972
H            6.61175710512868       -0.19909813909273        0.81911511623509
H            6.76644195667020       -2.65935053394929        1.04107926055676
H            4.84778191774162       -4.07285012740398        0.33807050589134
H            0.69874811442051       -4.61507249994120       -1.48474307578102
H           -1.44571282092341       -3.73611686679620       -2.38497560516112
H           -1.82591720526019       -1.29334850334297       -2.43600231616462
H           -0.09794941906021        0.24542930361817       -1.63551021888019
H            1.78954718992289        1.24933086858518       -2.70760011739748
H            1.01923007112031        3.59721358042052       -2.40972944029923
H           -0.91007019576993        3.61757821147471        2.41307566802261
H           -1.74670957605489        1.29198073361261        2.70608391338645
H           -4.52556503612107        0.97099667081503        0.02435854921329
H           -6.61605539094309       -0.00420931668884       -0.81223478708581
H           -6.84759073050070       -2.45871031163654       -1.03060794622308
H           -4.97101845510753       -3.92995764778931       -0.33248029644189
H           -0.83682716729367       -4.59853582502272        1.48113547977497
H            1.33466216028122       -3.78549381105829        2.37871112464629
H            1.79008764765468       -1.35565013131909        2.42732337864302
H            0.10954253574224        0.23499354674991        1.62707756142676
H           -2.48120776102831        1.05289944238387       -1.51024525279600
H           -1.66558670232093        3.38312714132274       -1.77249448657809

 projected vibrational frequencies (cm⁻¹)
eigval :       -0.00    -0.00     0.00     0.00     0.00     0.00
eigval :       14.60    24.95    26.86    40.16    48.15    59.41
eigval :       66.26    82.72    83.03    89.33    97.38   107.04
eigval :      115.83   120.61   138.14   152.26   167.22   173.11
eigval :      197.51   202.44   205.47   243.68   247.68   259.42
eigval :      267.14   275.10   278.62   285.97   310.29   330.41
eigval :      356.28   372.36   372.86   373.42   377.13   390.12
eigval :      394.40   405.97   409.57   413.95   421.10   427.80
eigval :      430.98   438.27   454.13   463.39   469.04   490.03
eigval :      492.31   506.63   512.01   514.58   524.64   538.78
eigval :      542.17   556.25   580.11   581.14   595.10   598.20
eigval :      600.02   631.82   633.87   642.72   653.42   655.71
eigval :      658.04   661.16   661.55   672.16   705.35   757.65
eigval :      771.58   771.81   773.46   778.96   790.11   792.48
eigval :      798.65   839.07   842.41   851.29   854.86   855.94
eigval :      863.69   865.97   866.68   871.54   891.66   894.26
eigval :      896.37   896.62   897.02   902.19   903.69   904.88
eigval :      906.19   907.35   908.86   914.23   916.82   917.28
eigval :      921.65   925.94   977.89   980.67  1045.47  1055.43
eigval :     1077.32  1079.93  1086.40  1088.00  1106.63  1113.23
eigval :     1115.26  1116.58  1117.87  1120.19  1121.26  1166.46
eigval :     1166.66  1170.71  1171.51  1173.89  1183.31  1189.95
eigval :     1195.17  1210.02  1210.18  1224.81  1230.97  1237.18
eigval :     1237.69  1244.42  1244.51  1247.73  1255.46  1284.53
eigval :     1292.47  1296.21  1305.77  1310.59  1325.42  1325.93
eigval :     1336.59  1338.46  1352.12  1365.98  1390.54  1402.84
eigval :     1405.49  1414.84  1414.90  1416.70  1425.38  1429.97
eigval :     1431.74  1432.73  1435.99  1436.81  1441.14  1485.06
eigval :     1491.81  1500.00  1504.05  1506.81  1514.55  1516.92
eigval :     1527.19  1531.63  1576.97  3075.75  3076.25  3076.88
eigval :     3077.34  3086.91  3087.19  3097.85  3097.90  3103.12
eigval :     3104.25  3105.08  3105.13  3105.27  3105.40  3106.76
eigval :     3107.10  3111.79  3111.87  3115.80  3116.47  3116.59
eigval :     3118.22  3119.90  3120.76

   temp. (K)  partition function   enthalpy   heat capacity  entropy
                                   cal/mol     cal/K/mol   cal/K/mol   J/K/mol
 298.15  VIB  0.390E+14            19822.364    130.720    119.901
         ROT  0.191E+08              888.752      2.981     36.294
         INT  0.744E+21            20711.117    133.701    156.196
         TR   0.135E+29             1481.254      4.968     44.941
         TOT                       22192.3707   138.6695   201.1363   841.5541

       T/K    H(0)-H(T)+PV         H(T)/Eh          T*S/Eh         G(T)/Eh
   ------------------------------------------------------------------------
    298.15    0.353658E-01    0.524992E+00    0.955663E-01    0.429425E+00
   ------------------------------------------------------------------------

         :::::::::::::::::::::::::::::::::::::::::::::::::::::
         ::                  THERMODYNAMIC                  ::
         :::::::::::::::::::::::::::::::::::::::::::::::::::::
         :: total free energy        -114.191291107909 Eh   ::
         ::.................................................::
         :: total energy             -114.620716362658 Eh   ::
         :: zero point energy           0.489625792402 Eh   ::
         :: G(RRHO) w/o ZPVE           -0.060200537653 Eh   ::
         :: G(RRHO) contrib.            0.429425254749 Eh   ::
         :::::::::::::::::::::::::::::::::::::::::::::::::::::

           -------------------------------------------------
          | TOTAL ENERGY             -114.620716362658 Eh   |
          | TOTAL ENTHALPY           -114.095724776479 Eh   |
          | TOTAL FREE ENERGY        -114.191291107909 Eh   |
          | GRADIENT NORM               0.000142462553 Eh/α |
           -------------------------------------------------

 * finished run on 2025/09/08 at 07:21:17.459
