   * xtb version 6.7.1 (edcfbbe) compiled by 'albert@albert-system' on 2024-07-22

   ID    Z sym.   atoms
    1    8 O      1, 3, 15, 35
    2   16 S      2
    3    6 C      4-7, 9-14, 16-27, 29-34, 36-43
    4    7 N      8, 28
    5    1 H      44-67

          program call               : xtb data2507/gas/DPS-PXZ/DPS-PXZ.xyz --gfn 2 --ohess vtight --parallel 40 --molden --ceasefiles --namespace data2507/gas/DPS-PXZ/DPS-PXZ_gas_S0_preOpt
          :  Hamiltonian                  GFN2-xTB          :
 * total energy  :  -114.6829072 Eh     change       -0.9972325E-09 Eh
 * total energy  :  -114.6938919 Eh     change       -0.1098461E-01 Eh
 * total energy  :  -114.6973895 Eh     change       -0.3497634E-02 Eh
 * total energy  :  -114.6982296 Eh     change       -0.8401627E-03 Eh
 * total energy  :  -114.6986492 Eh     change       -0.4195248E-03 Eh
 * total energy  :  -114.6987804 Eh     change       -0.1312543E-03 Eh
 * total energy  :  -114.6988501 Eh     change       -0.6962991E-04 Eh
 * total energy  :  -114.6989258 Eh     change       -0.7577314E-04 Eh
 * total energy  :  -114.6989897 Eh     change       -0.6388105E-04 Eh
 * total energy  :  -114.6991646 Eh     change       -0.1748458E-03 Eh
 * total energy  :  -114.7027783 Eh     change       -0.1885575E-05 Eh
 * total energy  :  -114.7027800 Eh     change       -0.1664352E-05 Eh
 * total energy  :  -114.7027813 Eh     change       -0.1370147E-05 Eh
 * total energy  :  -114.7027824 Eh     change       -0.1081824E-05 Eh
 * total energy  :  -114.7027833 Eh     change       -0.8981557E-06 Eh
 * total energy  :  -114.7027841 Eh     change       -0.8246609E-06 Eh
 * total energy  :  -114.7027850 Eh     change       -0.8497683E-06 Eh
 * total energy  :  -114.7027859 Eh     change       -0.9668120E-06 Eh
 * total energy  :  -114.7027859 Eh     change       -0.7282409E-08 Eh
   *** GEOMETRY OPTIMIZATION CONVERGED AFTER 152 ITERATIONS ***

 final structure:
================
67
 xtb: 6.7.1 (edcfbbe)
O           -0.05738718626110        4.89114630438956       -1.23609736913956
S            0.00003719991508        4.15936126065798        0.00000770810185
O            0.05747324358922        4.89112330222475        1.23612610134432
C            1.35936302706346        2.98797797487314       -0.04846234634050
C            2.08821041738358        2.72774282744661        1.09614591774252
C            3.02718653059427        1.71315926037142        1.08971079067902
C            3.22592825693932        0.95817646749361       -0.06575041878148
N            4.14684458406499       -0.10507069338866       -0.06587264936917
C            5.50700670980861        0.12543183229658        0.17056490333654
C            6.02336385509850        1.40296123258499        0.34379265701710
C            7.37798593858258        1.59607280748695        0.56869188551025
C            8.23888628905773        0.51824476518775        0.61227429617293
C            7.74345337368043       -0.76085774329140        0.40833649302428
C            6.39387870084207       -0.95858389530734        0.18157622589246
O            5.98406204403515       -2.24879308462245       -0.04527946667144
C            4.65019429535441       -2.45806264553305       -0.28530998327036
C            4.25202374931168       -3.76392038627682       -0.50547536830380
C            2.91549748963929       -4.06194066944369       -0.72493468407382
C            1.98050324124212       -3.04734094955475       -0.70192868212506
C            2.37429787663937       -1.73616424652997       -0.47973275310484
C            3.71334923901352       -1.41593846073694       -0.29388091902098
C            2.49843839668119        1.24808644091644       -1.22081934193664
C            1.55925063294242        2.26064685807531       -1.20751465975795
C           -1.35930594478890        2.98799778849313        0.04845780633457
C           -1.55921501232490        2.26066450267134        1.20750565822807
C           -2.49842269623535        1.24812251667710        1.22079802723432
C           -3.22590882849746        0.95823065486252        0.06572202283229
N           -4.14684486343029       -0.10499936734675        0.06583767127877
C           -5.50700544929533        0.12552641171426       -0.17058578966055
C           -6.02333622450255        1.40305911717405       -0.34386885038692
C           -7.37795835829652        1.59619159783637       -0.56875142147168
C           -8.23888469071190        0.51838151263195       -0.61226845864019
C           -7.74347766791010       -0.76072247750013       -0.40827611826098
C           -6.39390402760455       -0.95846859812488       -0.18152845068111
O           -5.98411644249049       -2.24867646163162        0.04538835673553
C           -4.65024507341313       -2.45797210515274        0.28537512402263
C           -4.25209779067712       -3.76383195910462        0.50557144219716
C           -2.91556983196016       -4.06187714831178        0.72498786682100
C           -1.98055137989182       -3.04730140907618        0.70190750866364
C           -2.37432343048340       -1.73612278443576        0.47968347797802
C           -3.71337420923918       -1.41587067748252        0.29387365900241
C           -3.02713924890870        1.71321006275577       -1.08973647001241
C           -2.08814476350535        2.72777704231489       -1.09615907791501
H            1.90397277138868        3.32360562361319        1.97629586080287
H            3.59794712782485        1.48662468483539        1.97776533470115
H            5.36528018549515        2.25611306059512        0.29293286992222
H            7.75099280962611        2.59929184208271        0.70453661282806
H            9.29248112477129        0.66279761165326        0.79093368571767
H            8.39128520131137       -1.62266911236963        0.41516191842944
H            5.00592457139240       -4.53460428428174       -0.49690735161016
H            2.61550118149787       -5.08265754173771       -0.90112836809884
H            0.93454464887706       -3.26340354324565       -0.85728483560949
H            1.62853195550092       -0.95714076619575       -0.44531149427084
H            2.67454045039023        0.67199869371915       -2.11676723394800
H            0.98576797597788        2.50622464774753       -2.08733878800812
H           -0.98574840584094        2.50624074974038        2.08734015655482
H           -2.67454754572958        0.67203864228085        2.11674371731905
H           -5.36523109781648        2.25619790326913       -0.29307425710808
H           -7.75094114745923        2.59941097840011       -0.70465802004780
H           -9.29247888855317        0.66294968512543       -0.79091718129611
H           -8.39133085253897       -1.62251793870000       -0.41503795752262
H           -5.00601706358594       -4.53449838951694        0.49705685612961
H           -2.61559162728433       -5.08259457111320        0.90120886404101
H           -0.93459317700353       -3.26338259596984        0.85723971455700
H           -1.62854006709673       -0.95711826144566        0.44521273573485
H           -3.59788686076151        1.48668132381544       -1.97780082785792
H           -1.90388524151235        3.32363677935695       -1.97630633258691

          :  Hamiltonian                  GFN2-xTB          :
         :: gradient norm              0.000069198078 Eh/a0 ::
         :: HOMO-LUMO gap              1.997577910894 eV    ::
         :: SCC energy              -116.572451022788 Eh    ::
         :: -> dispersion             -0.096038434482 Eh    ::
         :: repulsion energy           1.869665073423 Eh    ::

    * Orbital Energies and Occupations

         #    Occupation            Energy/Eh            Energy/eV
      -------------------------------------------------------------
         1        2.0000           -0.7743546             -21.0713
       ...           ...                  ...                  ...
        92        2.0000           -0.4336294             -11.7997
        93        2.0000           -0.4314127             -11.7393
        94        2.0000           -0.4304789             -11.7139
        95        2.0000           -0.4297847             -11.6950
        96        2.0000           -0.4224482             -11.4954
        97        2.0000           -0.4223980             -11.4940
        98        2.0000           -0.4197588             -11.4222
        99        2.0000           -0.4194963             -11.4151
       100        2.0000           -0.4100399             -11.1578
       101        2.0000           -0.3971889             -10.8081
       102        2.0000           -0.3970089             -10.8032
       103        2.0000           -0.3516152              -9.5679
       104        2.0000           -0.3510319              -9.5521 (HOMO)
       105                         -0.2776223              -7.5545 (LUMO)
       106                         -0.2610478              -7.1035
       107                         -0.2572825              -7.0010
       108                         -0.2571786              -6.9982
       109                         -0.2450007              -6.6668
       110                         -0.2449791              -6.6662
       111                         -0.2363769              -6.4321
       112                         -0.2363644              -6.4318
       113                         -0.2216526              -6.0315
       114                         -0.2210105              -6.0140
       115                         -0.2030354              -5.5249
       ...                                ...                  ...
       201                          1.2091463              32.9025
      -------------------------------------------------------------
                  HL-Gap            0.0734096 Eh            1.9976 eV

     #   Z          covCN         q      C6AA      α(0)
     1   8 O        0.860    -0.535    24.563     6.645
     2  16 S        3.820     0.948   108.156    17.504
     3   8 O        0.860    -0.535    24.563     6.645
     4   6 C        2.971    -0.081    30.021     8.987
     5   6 C        2.953    -0.027    28.667     8.782
     6   6 C        2.923    -0.038    28.937     8.822
     7   6 C        2.921     0.073    26.374     8.422
     8   7 N        2.751    -0.069    22.577     7.057
     9   6 C        2.921     0.041    27.078     8.533
    10   6 C        2.924    -0.060    29.483     8.904
    11   6 C        2.919    -0.038    28.936     8.821
    12   6 C        2.919    -0.039    28.964     8.826
    13   6 C        2.920    -0.055    29.373     8.888
    14   6 C        2.884     0.125    25.249     8.238
    15   8 O        1.709    -0.252    18.176     5.756
    16   6 C        2.884     0.126    25.232     8.235
    17   6 C        2.920    -0.056    29.381     8.889
    18   6 C        2.919    -0.039    28.977     8.827
    19   6 C        2.919    -0.039    28.972     8.827
    20   6 C        2.924    -0.061    29.505     8.908
    21   6 C        2.922     0.041    27.079     8.534
    22   6 C        2.924    -0.037    28.926     8.820
    23   6 C        2.961    -0.029    28.730     8.792
    24   6 C        2.971    -0.081    30.021     8.987
    25   6 C        2.961    -0.029    28.730     8.792
    26   6 C        2.924    -0.037    28.926     8.820
    27   6 C        2.921     0.073    26.374     8.422
    28   7 N        2.751    -0.069    22.577     7.057
    29   6 C        2.921     0.041    27.078     8.533
    30   6 C        2.924    -0.060    29.483     8.904
    31   6 C        2.919    -0.038    28.936     8.821
    32   6 C        2.919    -0.039    28.965     8.826
    33   6 C        2.920    -0.055    29.373     8.888
    34   6 C        2.884     0.125    25.249     8.238
    35   8 O        1.709    -0.252    18.176     5.756
    36   6 C        2.884     0.126    25.232     8.235
    37   6 C        2.920    -0.056    29.381     8.889
    38   6 C        2.919    -0.039    28.977     8.827
    39   6 C        2.919    -0.039    28.972     8.827
    40   6 C        2.924    -0.061    29.505     8.908
    41   6 C        2.922     0.041    27.079     8.534
    42   6 C        2.923    -0.038    28.937     8.822
    43   6 C        2.953    -0.027    28.667     8.782
    44   1 H        0.926     0.068     2.109     2.271
    45   1 H        0.926     0.058     2.217     2.328
    46   1 H        0.926     0.036     2.505     2.475
    47   1 H        0.926     0.040     2.450     2.448
    48   1 H        0.926     0.041     2.429     2.437
    49   1 H        0.926     0.053     2.280     2.361
    50   1 H        0.926     0.054     2.276     2.359
    51   1 H        0.926     0.041     2.436     2.441
    52   1 H        0.926     0.038     2.477     2.461
    53   1 H        0.926     0.029     2.598     2.521
    54   1 H        0.926     0.058     2.227     2.334
    55   1 H        0.926     0.057     2.234     2.337
    56   1 H        0.926     0.057     2.234     2.337
    57   1 H        0.926     0.058     2.227     2.334
    58   1 H        0.926     0.036     2.505     2.475
    59   1 H        0.926     0.040     2.450     2.448
    60   1 H        0.926     0.041     2.429     2.437
    61   1 H        0.926     0.053     2.280     2.361
    62   1 H        0.926     0.054     2.276     2.359
    63   1 H        0.926     0.041     2.436     2.441
    64   1 H        0.926     0.038     2.477     2.461
    65   1 H        0.926     0.029     2.598     2.521
    66   1 H        0.926     0.058     2.217     2.328
    67   1 H        0.926     0.068     2.109     2.271

molecular dipole:
                 x           y           z       tot (Debye)
 q only:       -0.000      -1.836      -0.000
   full:       -0.000      -1.635      -0.000       4.157

 projected vibrational frequencies (cm⁻¹)
eigval :       -0.00    -0.00     0.00     0.00     0.00     0.00
eigval :        4.32    10.45    19.09    24.79    30.31    32.94
eigval :       44.48    51.37    56.69    61.37    66.53   105.28
eigval :      116.33   117.14   120.26   126.83   152.49   153.94
eigval :      194.01   196.91   196.91   246.53   249.25   256.94
eigval :      263.20   269.92   272.70   279.42   300.55   356.54
eigval :      361.84   361.96   368.74   373.49   373.84   387.30
eigval :      403.70   409.12   413.13   421.04   424.55   431.10
eigval :      431.30   446.55   447.91   472.42   491.88   509.93
eigval :      510.78   515.90   522.00   523.39   530.39   553.14
eigval :      553.76   586.40   587.92   596.49   603.22   604.76
eigval :      604.92   655.94   658.11   661.44   661.51   662.21
eigval :      663.00   683.52   687.81   714.47   726.97   779.57
eigval :      780.04   780.09   782.99   803.16   803.58   812.34
eigval :      818.15   855.60   856.13   864.90   865.13   867.39
eigval :      867.43   880.21   882.37   898.19   899.26   899.79
eigval :      900.20   911.16   913.16   914.48   915.84   916.07
eigval :      917.36   917.57   919.75   922.90   926.31   931.33
eigval :      932.68  1003.50  1006.43  1086.49  1090.19  1090.52
eigval :     1091.36  1092.20  1107.90  1108.25  1108.71  1112.73
eigval :     1117.40  1120.67  1124.41  1135.41  1166.52  1169.04
eigval :     1171.82  1174.75  1175.61  1177.69  1186.46  1190.30
eigval :     1200.62  1203.55  1223.53  1224.30  1239.84  1240.74
eigval :     1244.71  1247.51  1254.12  1261.69  1262.66  1307.26
eigval :     1309.39  1309.97  1311.94  1317.86  1318.42  1336.75
eigval :     1337.59  1354.07  1354.33  1395.24  1396.45  1423.74
eigval :     1423.86  1441.45  1441.73  1459.26  1459.57  1486.61
eigval :     1489.41  1503.66  1504.78  1567.71  1567.78  1571.18
eigval :     1572.27  1573.32  1574.69  1580.75  1580.91  1590.62
eigval :     1590.86  1602.61  1602.87  3087.38  3088.16  3091.72
eigval :     3091.80  3092.22  3092.31  3092.65  3093.03  3097.61
eigval :     3098.38  3100.68  3100.69  3104.29  3104.71  3105.23
eigval :     3105.66  3106.61  3106.77  3107.58  3107.60  3114.57
eigval :     3114.58  3115.11  3115.11

   temp. (K)  partition function   enthalpy   heat capacity  entropy
                                   cal/mol     cal/K/mol   cal/K/mol   J/K/mol
 298.15  VIB  0.120E+17            19967.767    125.955    124.492
         ROT  0.326E+08              888.752      2.981     37.362
         INT  0.391E+24            20856.520    128.936    161.853
         TR   0.135E+29             1481.254      4.968     44.941
         TOT                       22337.7737   133.9039   206.7940   865.2263

       T/K    H(0)-H(T)+PV         H(T)/Eh          T*S/Eh         G(T)/Eh
   ------------------------------------------------------------------------
    298.15    0.355975E-01    0.530906E+00    0.982545E-01    0.432652E+00
   ------------------------------------------------------------------------

         :::::::::::::::::::::::::::::::::::::::::::::::::::::
         ::                  THERMODYNAMIC                  ::
         :::::::::::::::::::::::::::::::::::::::::::::::::::::
         :: total free energy        -114.270134221106 Eh   ::
         ::.................................................::
         :: total energy             -114.702785949365 Eh   ::
         :: zero point energy           0.495308745378 Eh   ::
         :: G(RRHO) w/o ZPVE           -0.062657017119 Eh   ::
         :: G(RRHO) contrib.            0.432651728259 Eh   ::
         :::::::::::::::::::::::::::::::::::::::::::::::::::::

           -------------------------------------------------
          | TOTAL ENERGY             -114.702785949365 Eh   |
          | TOTAL ENTHALPY           -114.171879695779 Eh   |
          | TOTAL FREE ENERGY        -114.270134221106 Eh   |
          | GRADIENT NORM               0.000069201753 Eh/α |
          | HOMO-LUMO GAP               1.997577385181 eV   |
           -------------------------------------------------

 * finished run on 2025/09/08 at 07:08:39.019
