   * xtb version 6.7.1 (edcfbbe) compiled by 'albert@albert-system' on 2024-07-22

   ID    Z sym.   atoms
    1    8 O      1, 3, 15, 35
    2   16 S      2
    3    6 C      4-7, 9-14, 16-27, 29-34, 36-43
    4    7 N      8, 28
    5    1 H      44-67

          program call               : xtb data2507/gas/DPS-PXZ/DPS-PXZ_gas_S0_crest.xyz --gfn 2 --ohess vtight --parallel 40 --molden --ceasefiles --namespace data2507/gas/DPS-PXZ/DPS-PXZ_gas_S0_finalOpt
          :  Hamiltonian                  GFN2-xTB          :
 * total energy  :  -114.7040288 Eh     change       -0.2073818E-08 Eh
 * total energy  :  -114.7040304 Eh     change       -0.1629409E-05 Eh
 * total energy  :  -114.7040338 Eh     change       -0.3376691E-05 Eh
 * total energy  :  -114.7040356 Eh     change       -0.1791012E-05 Eh
 * total energy  :  -114.7040373 Eh     change       -0.1683696E-05 Eh
 * total energy  :  -114.7040394 Eh     change       -0.2167575E-05 Eh
 * total energy  :  -114.7040418 Eh     change       -0.2367788E-05 Eh
 * total energy  :  -114.7040437 Eh     change       -0.1932046E-05 Eh
 * total energy  :  -114.7040453 Eh     change       -0.1524605E-05 Eh
 * total energy  :  -114.7040468 Eh     change       -0.1515174E-05 Eh
 * total energy  :  -114.7040533 Eh     change       -0.1279228E-05 Eh
 * total energy  :  -114.7040542 Eh     change       -0.9034520E-06 Eh
 * total energy  :  -114.7040549 Eh     change       -0.6693463E-06 Eh
 * total energy  :  -114.7040554 Eh     change       -0.5110790E-06 Eh
 * total energy  :  -114.7040557 Eh     change       -0.3188771E-06 Eh
 * total energy  :  -114.7040559 Eh     change       -0.2244067E-06 Eh
 * total energy  :  -114.7040561 Eh     change       -0.2158426E-06 Eh
 * total energy  :  -114.7040564 Eh     change       -0.3115756E-06 Eh
 * total energy  :  -114.7040564 Eh     change       -0.3729866E-08 Eh
   *** GEOMETRY OPTIMIZATION CONVERGED AFTER 22 ITERATIONS ***

 final structure:
================
67
 xtb: 6.7.1 (edcfbbe)
O           -0.52268574433125        5.53721985827604       -1.21226413409466
S           -0.20501682093813        4.82288562744960       -0.00790434906731
O            0.04959417861954        5.56365240726886        1.19545675498771
C            1.08612865987367        3.60600550235477       -0.31488287306458
C            1.59519485581489        2.93005887514691        0.78151104693468
C            2.12625277949060        1.66628551905934        0.62398931246956
C            2.12624713139610        1.06566096123166       -0.63676581045079
N            2.44117531468948       -0.29726684353887       -0.77406000012445
C            3.63145261248565       -0.80935656936921       -0.24508225656122
C            4.67898866803342        0.01983162306710        0.13549103266320
C            5.85240375976857       -0.51002426013052        0.64962244104321
C            6.00160419525580       -1.87641194393597        0.77928278723979
C            4.98039251467609       -2.71855194071299        0.36614001258160
C            3.80981416073823       -2.19458748200739       -0.15187693058743
O            2.86198792348857       -3.08753535082628       -0.57997817753669
C            1.70224888932873       -2.57803423663002       -1.10204352262841
C            0.75585707844463       -3.49789432490011       -1.51579623179708
C           -0.46486653357508       -3.07485431304080       -2.01610955517445
C           -0.73398416492596       -1.72362580950015       -2.08173998838652
C            0.21383420682954       -0.79719347380619       -1.67355768745635
C            1.45444088204796       -1.20226154573782       -1.19804721254690
C            1.73916134374917        1.81080790461363       -1.75141673063378
C            1.20166135100516        3.07382788732243       -1.58636715036057
C           -1.38603731986869        3.49930643977241        0.30098022688166
C           -1.45552001102590        2.96155818465359        1.57349292972348
C           -1.88308221128457        1.65759944021867        1.74096523395666
C           -2.20530983491319        0.87978995605124        0.62789933501651
N           -2.40479862478042       -0.50417459336940        0.76928749357600
C           -3.54869403191584       -1.11706948572383        0.24523483607708
C           -4.65845459820775       -0.38059489656949       -0.14946695030590
C           -5.78350175504884       -1.01042458120318       -0.65901765675716
C           -5.82180640619043       -2.38601713709922       -0.76969087533630
C           -4.73769425368908       -3.13718522789137       -0.34167578239127
C           -3.61500580686451       -2.51341566823957        0.17171246452075
O           -2.60071448349462       -3.32148040860857        0.61591694397938
C           -1.48578903617937       -2.71337674806090        1.12996426446052
C           -0.46941095612880       -3.54833020202697        1.55756282263928
C            0.71357553183997       -3.02150291131405        2.04996394985189
C            0.87465137067933       -1.65226185940856        2.09288067025411
C           -0.14387024330924       -0.81084101236958        1.67117272431113
C           -1.34872719570236       -1.32094293577495        1.20480782669140
C           -2.25537807879740        1.47544711679458       -0.63420318488578
C           -1.83444099999711        2.77978809621590       -0.79412779277904
H            1.52060562910152        3.38711571756801        1.75575085291771
H            2.48334945618354        1.11318648929572        1.47930022225405
H            4.57906647823886        1.08805249719723        0.02071088149612
H            6.64839564925134        0.15676931630183        0.94262233617193
H            6.90961701279551       -2.29372191682603        1.18466400784902
H            5.07470209553996       -3.79056682241181        0.43168340228036
H            0.99341142351237       -4.54535523184111       -1.42489326363550
H           -1.19822448622319       -3.79884144846867       -2.33323500636177
H           -1.68825465142915       -1.37758165224462       -2.45023780088415
H           -0.02813385477555        0.25290688030078       -1.71020438544606
H            1.81836772880099        1.37310430406871       -2.73499956586332
H            0.83728601100131        3.64393615632036       -2.42649341205870
H           -1.14149794006159        3.56244018221412        2.41249745996072
H           -1.92419043894855        1.21648138414680        2.72535931769752
H           -4.64608532350558        0.69361931092710       -0.04907802063277
H           -6.62949519001120       -0.41399276523722       -0.96338105698957
H           -6.69175613460964       -2.88077497922139       -1.17138908533509
H           -4.74535821819610       -4.21415892652784       -0.39146422503543
H           -0.62290908075305       -4.61270859292683        1.48385915465290
H            1.50198450930173       -3.67962328087733        2.37829158334806
H            1.79863393995032       -1.22549108366619        2.45388290101941
H            0.01370846291866        0.25569909201489        1.69035225865952
H           -2.56273940840249        0.89207092583397       -1.48866475203429
H           -1.79889128296465        3.23955799915059       -1.76930181486279

          :  Hamiltonian                  GFN2-xTB          :
         :: gradient norm              0.000045017270 Eh/a0 ::
         :: HOMO-LUMO gap              1.885095359457 eV    ::
         :: SCC energy              -116.572575421883 Eh    ::
         :: -> dispersion             -0.115934454110 Eh    ::
         :: repulsion energy           1.868518985865 Eh    ::

    * Orbital Energies and Occupations

         #    Occupation            Energy/Eh            Energy/eV
      -------------------------------------------------------------
         1        2.0000           -0.7757301             -21.1087
       ...           ...                  ...                  ...
        92        2.0000           -0.4326818             -11.7739
        93        2.0000           -0.4314709             -11.7409
        94        2.0000           -0.4304484             -11.7131
        95        2.0000           -0.4261171             -11.5952
        96        2.0000           -0.4258699             -11.5885
        97        2.0000           -0.4242170             -11.5435
        98        2.0000           -0.4214408             -11.4680
        99        2.0000           -0.4176310             -11.3643
       100        2.0000           -0.4096475             -11.1471
       101        2.0000           -0.3995916             -10.8734
       102        2.0000           -0.3964222             -10.7872
       103        2.0000           -0.3534076              -9.6167
       104        2.0000           -0.3526660              -9.5965 (HOMO)
       105                         -0.2833900              -7.7114 (LUMO)
       106                         -0.2623300              -7.1384
       107                         -0.2539307              -6.9098
       108                         -0.2520998              -6.8600
       109                         -0.2485699              -6.7639
       110                         -0.2447803              -6.6608
       111                         -0.2393710              -6.5136
       112                         -0.2363343              -6.4310
       113                         -0.2251447              -6.1265
       114                         -0.2200058              -5.9867
       115                         -0.2050348              -5.5793
       ...                                ...                  ...
       201                          1.2207601              33.2186
      -------------------------------------------------------------
                  HL-Gap            0.0692760 Eh            1.8851 eV

     #   Z          covCN         q      C6AA      α(0)
     1   8 O        0.860    -0.528    24.415     6.625
     2  16 S        3.838     0.964   107.703    17.467
     3   8 O        0.860    -0.528    24.415     6.625
     4   6 C        2.970    -0.088    30.191     9.013
     5   6 C        2.966    -0.033    28.807     8.804
     6   6 C        2.923    -0.039    28.973     8.827
     7   6 C        2.922     0.071    26.423     8.430
     8   7 N        2.750    -0.069    22.571     7.056
     9   6 C        2.922     0.041    27.076     8.533
    10   6 C        2.924    -0.058    29.453     8.900
    11   6 C        2.919    -0.038    28.952     8.824
    12   6 C        2.919    -0.039    28.960     8.825
    13   6 C        2.920    -0.055    29.377     8.888
    14   6 C        2.885     0.126    25.233     8.235
    15   8 O        1.709    -0.249    18.124     5.748
    16   6 C        2.886     0.127    25.223     8.234
    17   6 C        2.921    -0.055    29.365     8.886
    18   6 C        2.919    -0.037    28.920     8.819
    19   6 C        2.920    -0.038    28.946     8.823
    20   6 C        2.924    -0.063    29.558     8.916
    21   6 C        2.921     0.041    27.088     8.535
    22   6 C        2.923    -0.040    28.991     8.830
    23   6 C        2.959    -0.031    28.762     8.797
    24   6 C        2.970    -0.088    30.191     9.013
    25   6 C        2.959    -0.031    28.762     8.797
    26   6 C        2.924    -0.040    28.991     8.830
    27   6 C        2.922     0.070    26.424     8.430
    28   7 N        2.750    -0.068    22.565     7.055
    29   6 C        2.922     0.041    27.075     8.533
    30   6 C        2.924    -0.059    29.456     8.900
    31   6 C        2.919    -0.038    28.952     8.824
    32   6 C        2.919    -0.039    28.961     8.825
    33   6 C        2.920    -0.055    29.377     8.888
    34   6 C        2.885     0.126    25.234     8.235
    35   8 O        1.709    -0.249    18.124     5.748
    36   6 C        2.886     0.127    25.223     8.234
    37   6 C        2.921    -0.055    29.365     8.886
    38   6 C        2.919    -0.037    28.918     8.818
    39   6 C        2.920    -0.038    28.944     8.822
    40   6 C        2.924    -0.063    29.556     8.915
    41   6 C        2.921     0.041    27.089     8.535
    42   6 C        2.923    -0.039    28.975     8.827
    43   6 C        2.966    -0.033    28.807     8.804
    44   1 H        0.926     0.060     2.200     2.319
    45   1 H        0.926     0.056     2.249     2.345
    46   1 H        0.926     0.037     2.494     2.470
    47   1 H        0.926     0.040     2.448     2.447
    48   1 H        0.926     0.042     2.422     2.434
    49   1 H        0.926     0.053     2.279     2.361
    50   1 H        0.926     0.056     2.251     2.346
    51   1 H        0.926     0.044     2.396     2.421
    52   1 H        0.926     0.031     2.569     2.506
    53   1 H        0.926     0.031     2.575     2.510
    54   1 H        0.926     0.059     2.212     2.326
    55   1 H        0.926     0.064     2.156     2.296
    56   1 H        0.926     0.064     2.156     2.296
    57   1 H        0.926     0.059     2.213     2.326
    58   1 H        0.926     0.037     2.493     2.469
    59   1 H        0.926     0.040     2.448     2.447
    60   1 H        0.926     0.042     2.422     2.434
    61   1 H        0.926     0.053     2.279     2.361
    62   1 H        0.926     0.056     2.250     2.346
    63   1 H        0.926     0.044     2.395     2.420
    64   1 H        0.926     0.031     2.569     2.507
    65   1 H        0.926     0.031     2.579     2.511
    66   1 H        0.926     0.056     2.247     2.344
    67   1 H        0.926     0.060     2.201     2.320

molecular dipole:
                 x           y           z       tot (Debye)
 q only:        0.090      -2.062      -0.001
   full:        0.081      -1.850      -0.000       4.706

 projected vibrational frequencies (cm⁻¹)
eigval :       -0.00    -0.00    -0.00    -0.00     0.00     0.00
eigval :       14.10    23.18    25.42    41.38    47.25    53.15
eigval :       59.74    71.87    75.73    86.80    96.66   109.16
eigval :      116.11   116.52   136.07   143.16   167.59   174.54
eigval :      200.03   202.41   210.34   246.21   252.67   261.47
eigval :      268.12   271.76   275.58   287.42   301.32   350.39
eigval :      354.42   366.48   369.02   379.52   382.15   393.86
eigval :      401.93   413.18   416.10   420.79   426.92   433.24
eigval :      436.09   451.27   453.07   467.44   505.24   510.49
eigval :      510.54   513.91   524.45   525.51   529.39   557.46
eigval :      558.90   585.80   588.00   597.84   601.70   602.59
eigval :      603.83   653.27   653.56   660.22   660.26   663.06
eigval :      663.48   686.00   689.17   715.29   723.80   777.77
eigval :      780.50   782.04   782.20   803.49   803.77   812.83
eigval :      825.21   856.92   856.95   861.67   861.93   870.09
eigval :      871.09   876.27   881.69   897.60   899.02   900.88
eigval :      901.03   908.38   909.59   914.52   915.13   915.86
eigval :      916.13   917.13   917.60   926.52   930.37   934.62
eigval :      937.71  1000.17  1002.51  1084.19  1089.47  1089.67
eigval :     1095.23  1095.36  1100.79  1109.47  1109.53  1111.75
eigval :     1117.19  1122.20  1122.82  1137.71  1165.32  1168.21
eigval :     1173.36  1175.31  1175.73  1176.41  1189.15  1190.71
eigval :     1204.69  1204.73  1224.28  1224.34  1239.91  1240.61
eigval :     1247.19  1247.91  1257.50  1265.05  1265.51  1301.17
eigval :     1306.25  1311.36  1312.08  1315.37  1321.14  1334.96
eigval :     1335.95  1352.90  1353.01  1392.99  1395.15  1423.56
eigval :     1424.00  1441.51  1441.59  1455.19  1457.26  1486.53
eigval :     1487.25  1502.99  1503.29  1563.62  1565.84  1567.56
eigval :     1567.59  1570.24  1570.66  1580.99  1581.00  1591.40
eigval :     1591.66  1602.89  1603.00  3081.63  3081.81  3091.04
eigval :     3091.16  3092.39  3092.73  3093.92  3094.46  3098.87
eigval :     3099.08  3103.17  3103.65  3103.66  3103.99  3105.98
eigval :     3106.06  3106.55  3106.83  3109.08  3110.14  3114.67
eigval :     3114.67  3116.52  3118.11

   temp. (K)  partition function   enthalpy   heat capacity  entropy
                                   cal/mol     cal/K/mol   cal/K/mol   J/K/mol
 298.15  VIB  0.547E+14            19564.358    127.885    119.093
         ROT  0.193E+08              888.752      2.981     36.324
         INT  0.106E+22            20453.110    130.865    155.416
         TR   0.135E+29             1481.254      4.968     44.941
         TOT                       21934.3643   135.8336   200.3571   838.2940

       T/K    H(0)-H(T)+PV         H(T)/Eh          T*S/Eh         G(T)/Eh
   ------------------------------------------------------------------------
    298.15    0.349546E-01    0.531044E+00    0.951961E-01    0.435848E+00
   ------------------------------------------------------------------------

         :::::::::::::::::::::::::::::::::::::::::::::::::::::
         ::                  THERMODYNAMIC                  ::
         :::::::::::::::::::::::::::::::::::::::::::::::::::::
         :: total free energy        -114.268208681473 Eh   ::
         ::.................................................::
         :: total energy             -114.704056436019 Eh   ::
         :: zero point energy           0.496089232095 Eh   ::
         :: G(RRHO) w/o ZPVE           -0.060241477549 Eh   ::
         :: G(RRHO) contrib.            0.435847754546 Eh   ::
         :::::::::::::::::::::::::::::::::::::::::::::::::::::

           -------------------------------------------------
          | TOTAL ENERGY             -114.704056436019 Eh   |
          | TOTAL ENTHALPY           -114.173012569519 Eh   |
          | TOTAL FREE ENERGY        -114.268208681473 Eh   |
          | GRADIENT NORM               0.000045000618 Eh/α |
          | HOMO-LUMO GAP               1.885095164650 eV   |
           -------------------------------------------------

 * finished run on 2025/09/08 at 07:15:08.055
