   * xtb version 6.7.1 (edcfbbe) compiled by 'albert@albert-system' on 2024-07-22

   ID    Z sym.   atoms
    1    8 O      1, 3, 15, 35
    2   16 S      2
    3    6 C      4-7, 9-14, 16-27, 29-34, 36-43
    4    7 N      8, 28
    5    1 H      44-67

          program call               : xtb data2507/gas/DPS-PXZ/DPS-PXZ_gas_S0_finalOpt.xtbopt.xyz --gfn 2 --spinpol --tblite --uhf 2 --ohess vtight --parallel 40 --molden --ceasefiles --namespace data2507/gas/DPS-PXZ/DPS-PXZ_gas_T1_preOpt
 * total energy  :  -114.6162661 Eh     change        0.1234547E-07 Eh
 * total energy  :  -114.6194912 Eh     change       -0.3225157E-02 Eh
 * total energy  :  -114.6202972 Eh     change       -0.8059358E-03 Eh
 * total energy  :  -114.6204380 Eh     change       -0.1407896E-03 Eh
 * total energy  :  -114.6205628 Eh     change       -0.1248404E-03 Eh
 * total energy  :  -114.6206218 Eh     change       -0.5898566E-04 Eh
 * total energy  :  -114.6206687 Eh     change       -0.4691953E-04 Eh
 * total energy  :  -114.6206889 Eh     change       -0.2017503E-04 Eh
 * total energy  :  -114.6207003 Eh     change       -0.1142322E-04 Eh
 * total energy  :  -114.6206957 Eh     change        0.4628135E-05 Eh
 * total energy  :  -114.6207154 Eh     change       -0.4827560E-06 Eh
 * total energy  :  -114.6207154 Eh     change        0.1649819E-07 Eh
 * total energy  :  -114.6207154 Eh     change        0.2093074E-07 Eh
 * total energy  :  -114.6207156 Eh     change       -0.1693231E-06 Eh
 * total energy  :  -114.6207158 Eh     change       -0.2731520E-06 Eh
 * total energy  :  -114.6207157 Eh     change        0.1220776E-06 Eh
 * total energy  :  -114.6207159 Eh     change       -0.1989759E-06 Eh
 * total energy  :  -114.6207159 Eh     change        0.7512725E-08 Eh
 * total energy  :  -114.6207160 Eh     change       -0.7576126E-07 Eh
   *** GEOMETRY OPTIMIZATION CONVERGED AFTER 29 ITERATIONS ***

 final structure:
================
67
 xtb: 6.7.1 (edcfbbe)
O           -0.49178805835601        5.55314108064261       -1.22488460010495
S           -0.20562153395850        4.83270173079998       -0.01164009924304
O            0.01812118190778        5.58111128345745        1.19778317431376
C            1.08498140966548        3.64007591471384       -0.28370711921035
C            1.58310763600162        2.94775138813461        0.82896501019115
C            2.06890418394295        1.67364028996509        0.68865558231129
C            2.05502576734554        1.05157150449081       -0.57266706674663
N            2.36521732781648       -0.32236967256059       -0.68379486463098
C            3.57285443290146       -0.81119245947447       -0.21759262880553
C            4.62225564196681        0.03463472700796        0.15196404196293
C            5.80438983160647       -0.48342936831732        0.63809232401560
C            5.97533651339303       -1.85796150160325        0.76322009058638
C            4.96308891413613       -2.71455980926901        0.36691122626327
C            3.77521153287813       -2.20549178082145       -0.13129962985393
O            2.82950679398025       -3.09731778058177       -0.54237015971961
C            1.67617822280137       -2.60521134697151       -1.07356434467326
C            0.74469920938321       -3.52886821589900       -1.52277942501444
C           -0.46793843952806       -3.10462382609768       -2.03515511880509
C           -0.75680005202005       -1.74768261378572       -2.07206077632669
C            0.16191098161265       -0.81902841409807       -1.62069055894081
C            1.40755931035010       -1.22157091464111       -1.13683734837220
C            1.66996364555607        1.78949207398958       -1.70355910881402
C            1.18135747872587        3.06312685888858       -1.55691602607701
C           -1.39042817787677        3.53628312376264        0.26688113225491
C           -1.43779252139824        2.95984274580072        1.54308270133825
C           -1.81670587003277        1.65014695146514        1.69643974597203
C           -2.13762973206124        0.87637454142658        0.56948775317065
N           -2.33037236660662       -0.51830528969991        0.68793385464186
C           -3.49223293360054       -1.11019358777779        0.22470981346618
C           -4.60922092087804       -0.35826699037680       -0.14960129100503
C           -5.74318318660538       -0.97725379669138       -0.63255507834101
C           -5.79728722496230       -2.36195201338339       -0.74960897048522
C           -4.71638682375595       -3.12760171349763       -0.34844105799759
C           -3.57596837320159       -2.51701576427047        0.14658135161170
O           -2.55841110926579       -3.32336827696839        0.56270738899868
C           -1.45089832753908       -2.73243041913736        1.09075188377413
C           -0.44486322600179       -3.57143288315594        1.54516793493678
C            0.72749782788023       -3.04321716282651        2.05472830589745
C            0.90066028913372       -1.66658925390696        2.08354898396302
C           -0.09313061693172       -0.82153197024084        1.62696082745649
C           -1.30021183525983       -1.33075283048454        1.14584598053058
C           -2.20385280745381        1.48846726899535       -0.69505090080580
C           -1.82777769583139        2.79842988359202       -0.84207785317984
H            1.54173952031417        3.42976479120945        1.79259460297961
H            2.42743416631421        1.12333686192988        1.54628858459723
H            4.49916894479923        1.10023563276893        0.04220078770812
H            6.60149383278249        0.18696342523601        0.91837814789044
H            6.89748687722774       -2.25930560795484        1.15134014886096
H            5.07545920142803       -3.78519670438565        0.42677929054209
H            0.99214174204685       -4.57562721276077       -1.45328170144017
H           -1.18702866966358       -3.82676783146534       -2.38709037206827
H           -1.70954195022041       -1.41072832635035       -2.45194091125747
H           -0.08685341175979        0.22915816165034       -1.63196160187729
H            1.75571845610105        1.33882316590492       -2.68166963113037
H            0.84802696871590        3.63978416639311       -2.40485644589063
H           -1.15474637222741        3.56707194043295        2.38795376765219
H           -1.86415901515435        1.19891998489366        2.67690154292119
H           -4.57674198765350        0.71454090725757       -0.04606175683943
H           -6.59397840924667       -0.37824888809476       -0.91666591239783
H           -6.68206925603063       -2.84209410004025       -1.13525714958988
H           -4.73782997517859       -4.20423413419914       -0.40203995312974
H           -0.60293975702458       -4.63574663173329        1.48188868478729
H            1.50494230880290       -3.69996062238508        2.41071579954353
H            1.82146405252843       -1.24808171896040        2.46112026749119
H            0.06616471804120        0.24397261439113        1.63200462004255
H           -2.51415098370979        0.90528835238639       -1.54976332702850
H           -1.82716303743947        3.27718912428178       -1.80821759808649

 projected vibrational frequencies (cm⁻¹)
eigval :       -0.00    -0.00    -0.00    -0.00     0.00     0.00
eigval :       13.83    24.90    27.30    40.11    47.99    59.35
eigval :       66.06    82.69    83.18    89.16    97.01   106.76
eigval :      115.71   120.59   138.14   152.06   167.16   173.00
eigval :      197.48   202.15   205.45   243.73   247.64   259.47
eigval :      267.18   275.05   278.60   286.01   310.35   330.66
eigval :      356.30   372.32   372.82   373.51   377.08   390.07
eigval :      395.27   406.33   409.73   414.00   421.06   427.81
eigval :      430.84   438.27   454.10   463.40   468.97   489.83
eigval :      492.20   506.31   512.02   514.14   524.59   538.78
eigval :      542.16   555.99   580.12   581.15   595.12   598.20
eigval :      600.04   631.88   633.88   642.45   653.42   655.71
eigval :      657.97   661.26   661.40   671.98   705.46   757.51
eigval :      771.60   771.76   773.38   778.80   789.77   792.91
eigval :      798.62   838.79   842.43   851.17   854.80   855.95
eigval :      863.63   865.93   866.62   871.58   891.64   894.25
eigval :      896.43   896.58   897.02   902.21   903.65   905.16
eigval :      906.15   907.24   908.86   914.37   916.54   917.18
eigval :      921.55   925.80   977.96   980.86  1045.84  1054.95
eigval :     1077.32  1079.57  1086.32  1088.20  1106.45  1113.20
eigval :     1115.30  1116.57  1117.82  1120.18  1121.39  1166.48
eigval :     1166.68  1170.74  1171.50  1173.88  1183.37  1189.87
eigval :     1195.06  1209.99  1210.09  1224.76  1230.90  1237.22
eigval :     1237.63  1244.41  1244.52  1247.67  1255.39  1284.36
eigval :     1292.51  1296.08  1305.84  1310.65  1325.53  1325.90
eigval :     1336.61  1338.49  1352.21  1365.92  1390.63  1402.98
eigval :     1405.34  1414.70  1414.83  1416.93  1425.45  1429.91
eigval :     1431.71  1432.68  1435.96  1437.10  1441.22  1485.51
eigval :     1491.64  1499.73  1504.01  1506.92  1514.60  1516.68
eigval :     1527.29  1531.46  1576.99  3075.77  3076.27  3076.86
eigval :     3077.26  3086.92  3087.09  3097.77  3097.84  3103.14
eigval :     3104.31  3104.91  3105.01  3105.12  3105.24  3106.78
eigval :     3107.12  3111.73  3111.80  3116.22  3116.38  3116.50
eigval :     3118.19  3119.68  3120.70

   temp. (K)  partition function   enthalpy   heat capacity  entropy
                                   cal/mol     cal/K/mol   cal/K/mol   J/K/mol
 298.15  VIB  0.412E+14            19825.191    130.719    119.969
         ROT  0.191E+08              888.752      2.981     36.296
         INT  0.786E+21            20713.944    133.700    156.265
         TR   0.135E+29             1481.254      4.968     44.941
         TOT                       22195.1976   138.6681   201.2060   841.8458

       T/K    H(0)-H(T)+PV         H(T)/Eh          T*S/Eh         G(T)/Eh
   ------------------------------------------------------------------------
    298.15    0.353703E-01    0.524984E+00    0.955994E-01    0.429385E+00
   ------------------------------------------------------------------------

         :::::::::::::::::::::::::::::::::::::::::::::::::::::
         ::                  THERMODYNAMIC                  ::
         :::::::::::::::::::::::::::::::::::::::::::::::::::::
         :: total free energy        -114.191331310529 Eh   ::
         ::.................................................::
         :: total energy             -114.620715976444 Eh   ::
         :: zero point energy           0.489613813738 Eh   ::
         :: G(RRHO) w/o ZPVE           -0.060229147823 Eh   ::
         :: G(RRHO) contrib.            0.429384665915 Eh   ::
         :::::::::::::::::::::::::::::::::::::::::::::::::::::

           -------------------------------------------------
          | TOTAL ENERGY             -114.620715976444 Eh   |
          | TOTAL ENTHALPY           -114.095731863876 Eh   |
          | TOTAL FREE ENERGY        -114.191331310529 Eh   |
          | GRADIENT NORM               0.000101651104 Eh/α |
           -------------------------------------------------

 * finished run on 2025/09/08 at 07:15:16.790
