   * xtb version 6.7.1 (edcfbbe) compiled by 'albert@albert-system' on 2024-07-22

   ID    Z sym.   atoms
    1    8 O      1, 14, 36, 48
    2    6 C      2-6, 8-13, 15-35, 37-40, 42-47, 49-56
    3    7 N      7, 41
    4    1 H      57-88

          program call               : xtb data2507/gas/D-BP-PXZ/D-BP-PXZ_gas_S0_crest.xyz --gfn 2 --ohess vtight --parallel 40 --molden --ceasefiles --namespace data2507/gas/D-BP-PXZ/D-BP-PXZ_gas_S0_finalOpt
          :  Hamiltonian                  GFN2-xTB          :
 * total energy  :  -145.5385654 Eh     change       -0.4984486E-08 Eh
 * total energy  :  -145.5385663 Eh     change       -0.9005971E-06 Eh
 * total energy  :  -145.5385672 Eh     change       -0.9216658E-06 Eh
 * total energy  :  -145.5385690 Eh     change       -0.1725626E-05 Eh
 * total energy  :  -145.5385707 Eh     change       -0.1706246E-05 Eh
 * total energy  :  -145.5385719 Eh     change       -0.1209699E-05 Eh
 * total energy  :  -145.5385729 Eh     change       -0.9993245E-06 Eh
 * total energy  :  -145.5385737 Eh     change       -0.8391208E-06 Eh
 * total energy  :  -145.5385743 Eh     change       -0.5347910E-06 Eh
 * total energy  :  -145.5385747 Eh     change       -0.4495661E-06 Eh
 * total energy  :  -145.5385751 Eh     change       -0.4034552E-06 Eh
 * total energy  :  -145.5385754 Eh     change       -0.3326566E-06 Eh
 * total energy  :  -145.5385757 Eh     change       -0.2939780E-06 Eh
 * total energy  :  -145.5385761 Eh     change       -0.3123862E-06 Eh
 * total energy  :  -145.5385764 Eh     change       -0.3304908E-06 Eh
 * total energy  :  -145.5385767 Eh     change       -0.2772583E-06 Eh
 * total energy  :  -145.5385768 Eh     change       -0.1516512E-06 Eh
 * total energy  :  -145.5385769 Eh     change       -0.7617615E-07 Eh
   *** GEOMETRY OPTIMIZATION CONVERGED AFTER 18 ITERATIONS ***

 final structure:
================
88
 xtb: 6.7.1 (edcfbbe)
O           -3.83730334353892       -0.90730714174241        1.81204706127903
C           -3.59418972566667       -1.31172517904387        0.68795554263099
C           -2.20669408351747       -1.63694253243866        0.28617305356622
C           -1.29949987635833       -1.95790760670295        1.29707133285736
C            0.01904022088000       -2.21036498878235        1.00345506189456
C            0.48093782249663       -2.11584793796582       -0.31181030121523
N            1.84425214393958       -2.34160857421834       -0.57485891089908
C            2.67267403312152       -1.35234982532129       -1.12557052622139
C            2.17979753405845       -0.20265994373973       -1.72841761851692
C            3.03651813081487        0.74868545685772       -2.26190862699098
C            4.40359122328423        0.57918481954763       -2.19589736108091
C            4.91384955918125       -0.54953929488309       -1.57646380223555
C            4.06425330642700       -1.50119259096238       -1.04268636646932
O            4.66285193919773       -2.56562894501246       -0.42016318575452
C            3.84718114606259       -3.57017734577670        0.02692926904814
C            4.46121719767334       -4.69423127145835        0.55002400802017
C            3.70103398524870       -5.76937998088014        0.98284875091052
C            2.32635330062497       -5.72297142213029        0.86070931553215
C            1.70797324317939       -4.59732922991604        0.34032854419951
C            2.45236950658206       -3.49076638596731       -0.05194274908022
C           -0.42649787465442       -1.81198337386322       -1.32590379367824
C           -1.75629331996179       -1.57467491035762       -1.03077094456881
C           -4.66859367193720       -1.51579229342787       -0.31297426987576
C           -4.68639938357143       -2.66067901187386       -1.10321107741139
C           -5.74011438835075       -2.90016468664328       -1.96529026189414
C           -6.78514721187739       -1.99434634528105       -2.04638549606874
C           -6.77724597141529       -0.85326958720940       -1.26479965403057
C           -5.72534633440298       -0.59870883395369       -0.39427944105808
C           -5.71918744997075        0.63267074495673        0.41429482058366
C           -6.76730172237171        0.89647171529933        1.28662451854866
C           -6.76374025223705        2.03745903634376        2.06837881313576
C           -5.71071668424227        2.93385494103859        1.98584624951959
C           -4.66060905201069        2.68509926273863        1.12202171536966
C           -4.65444430713513        1.54034866319892        0.33136195410223
C           -3.58406457939847        1.32795994121448       -0.67201625539583
O           -3.83245326308493        0.92370537196925       -1.79498595946581
C           -2.19358211385478        1.64587285960948       -0.27450311950011
C           -1.73823266058334        1.57617141556920        1.04032917605894
C           -0.40622033501887        1.80652260831586        1.33118479643984
C            0.49825010437929        2.11126556720217        0.31474486702254
N            1.86371491653364        2.33051460562253        0.57233707908356
C            2.69185238214491        1.33556629351689        1.11303926259794
C            2.19845475668402        0.18689853788924        1.71734961877730
C            3.05494182007395       -0.77008779739369        2.24104256452709
C            4.42222921856874       -0.60702667436244        2.16384119175391
C            4.93277698435665        0.52072243785411        1.54283656398386
C            4.08338491882216        1.47778468669610        1.01848341217372
O            4.68178043767234        2.54078659824022        0.39319200921147
C            3.86749735321865        3.55270611417100       -0.03967486643865
C            4.48242257722830        4.67717828795359       -0.56083616029955
C            3.72368098735818        5.75887532985087       -0.97968184512184
C            2.34990688684655        5.71845905440367       -0.84563114211961
C            1.73061918137120        4.59245508803890       -0.32717842302810
C            2.47310802253018        3.47983338354708        0.05127515824591
C            0.03129299440270        2.21398390440441       -0.99810030602772
C           -1.28932087492588        1.96779228579100       -1.28765335376762
H           -1.65607885875474       -2.00056922212742        2.31553867353106
H            0.70878037675037       -2.47631913465341        1.78945372329400
H            1.11656632533912       -0.03198621475863       -1.76340919019759
H            2.62575926721469        1.62857115048483       -2.73408207707572
H            5.07164547254500        1.31908572974199       -2.60700314447602
H            5.97586378301492       -0.70911716714346       -1.48369533153047
H            5.53784501472978       -4.70698909068707        0.60711225485349
H            4.18712939978676       -6.63876928822458        1.39643248929720
H            1.72214519713710       -6.56309744029096        1.16648332288499
H            0.63402087064188       -4.57769429113929        0.23748973893080
H           -0.09311169620265       -1.78587611319906       -2.35234039838196
H           -2.44272687177138       -1.31453208528761       -1.82255658983180
H           -3.88056544637765       -3.37581447781224       -1.01892448629955
H           -5.74680459848740       -3.79293223339644       -2.57273018388317
H           -7.60764335246051       -2.17709346170107       -2.72206857322788
H           -7.58385755986943       -0.13840011691880       -1.33772925696622
H           -7.58020669071400        0.18888765437365        1.36069508203555
H           -7.58358162582537        2.22755600574243        2.74525772209975
H           -5.70841054857299        3.82650760177630        2.59348425250146
H           -3.84843578336058        3.39289597578922        1.03667517197350
H           -2.42277096981279        1.31580827869934        1.83370779864273
H           -0.06893542666291        1.77454834726628        2.35617501988255
H            1.13471103953890        0.02164108441909        1.76096182352743
H            2.64397037541838       -1.64938366857196        2.71420436556731
H            5.09011363882334       -1.35120371461705        2.56744229081895
H            5.99475059167677        0.67524374533924        1.44139014620986
H            5.55852952435698        4.68504090828276       -0.62773326988599
H            4.21036279011700        6.62858808868535       -1.39190109538631
H            1.74721461425838        6.56353660157502       -1.14053953492080
H            0.65750754142197        4.57703959823031       -0.21508897099472
H            0.71892940066117        2.48121365582557       -1.78548699456153
H           -1.64975784683637        2.01646550086473       -2.30448415849530

          :  Hamiltonian                  GFN2-xTB          :
         :: gradient norm              0.000037254341 Eh/a0 ::
         :: HOMO-LUMO gap              1.465482636155 eV    ::
         :: SCC energy              -148.051608273699 Eh    ::
         :: -> dispersion             -0.153425022553 Eh    ::
         :: repulsion energy           2.513031380293 Eh    ::

    * Orbital Energies and Occupations

         #    Occupation            Energy/Eh            Energy/eV
      -------------------------------------------------------------
         1        2.0000           -0.7295567             -19.8522
       ...           ...                  ...                  ...
       121        2.0000           -0.4167628             -11.3407
       122        2.0000           -0.4159972             -11.3199
       123        2.0000           -0.4157969             -11.3144
       124        2.0000           -0.4118010             -11.2057
       125        2.0000           -0.4111727             -11.1886
       126        2.0000           -0.4101007             -11.1594
       127        2.0000           -0.3997206             -10.8770
       128        2.0000           -0.3923297             -10.6758
       129        2.0000           -0.3902766             -10.6200
       130        2.0000           -0.3862287             -10.5098
       131        2.0000           -0.3855135             -10.4904
       132        2.0000           -0.3470014              -9.4424
       133        2.0000           -0.3451779              -9.3928 (HOMO)
       134                         -0.2913226              -7.9273 (LUMO)
       135                         -0.2832293              -7.7071
       136                         -0.2466899              -6.7128
       137                         -0.2417507              -6.5784
       138                         -0.2405261              -6.5450
       139                         -0.2401445              -6.5347
       140                         -0.2383262              -6.4852
       141                         -0.2372177              -6.4550
       142                         -0.2338979              -6.3647
       143                         -0.2312128              -6.2916
       144                         -0.2310657              -6.2876
       ...                                ...                  ...
       256                          0.6855927              18.6559
      -------------------------------------------------------------
                  HL-Gap            0.0538553 Eh            1.4655 eV

     #   Z          covCN         q      C6AA      α(0)
     1   8 O        0.858    -0.389    21.465     6.212
     2   6 C        2.830     0.227    23.244     7.900
     3   6 C        2.972    -0.020    28.498     8.757
     4   6 C        2.925    -0.021    28.537     8.761
     5   6 C        2.922    -0.043    29.063     8.841
     6   6 C        2.920     0.070    26.433     8.431
     7   7 N        2.750    -0.070    22.591     7.059
     8   6 C        2.919     0.041    27.070     8.532
     9   6 C        2.924    -0.062    29.538     8.913
    10   6 C        2.920    -0.038    28.936     8.821
    11   6 C        2.918    -0.037    28.909     8.817
    12   6 C        2.921    -0.054    29.350     8.884
    13   6 C        2.888     0.125    25.255     8.239
    14   8 O        1.709    -0.251    18.151     5.752
    15   6 C        2.887     0.127    25.225     8.234
    16   6 C        2.920    -0.056    29.391     8.890
    17   6 C        2.919    -0.039    28.965     8.826
    18   6 C        2.919    -0.039    28.968     8.826
    19   6 C        2.924    -0.057    29.409     8.893
    20   6 C        2.926     0.042    27.060     8.531
    21   6 C        2.920    -0.044    29.083     8.844
    22   6 C        2.919    -0.026    28.657     8.778
    23   6 C        2.976    -0.011    28.275     8.722
    24   6 C        2.922    -0.025    28.621     8.773
    25   6 C        2.918    -0.028    28.695     8.784
    26   6 C        2.919    -0.022    28.551     8.762
    27   6 C        2.924    -0.026    28.657     8.779
    28   6 C        2.981     0.033    27.246     8.562
    29   6 C        2.981     0.033    27.246     8.562
    30   6 C        2.924    -0.026    28.657     8.779
    31   6 C        2.919    -0.022    28.551     8.762
    32   6 C        2.918    -0.028    28.695     8.784
    33   6 C        2.922    -0.025    28.621     8.773
    34   6 C        2.976    -0.011    28.276     8.722
    35   6 C        2.830     0.227    23.243     7.900
    36   8 O        0.858    -0.389    21.464     6.211
    37   6 C        2.972    -0.020    28.498     8.756
    38   6 C        2.919    -0.026    28.658     8.779
    39   6 C        2.920    -0.044    29.083     8.844
    40   6 C        2.920     0.070    26.433     8.431
    41   7 N        2.750    -0.070    22.593     7.060
    42   6 C        2.919     0.041    27.070     8.532
    43   6 C        2.924    -0.062    29.539     8.913
    44   6 C        2.920    -0.038    28.936     8.821
    45   6 C        2.918    -0.037    28.908     8.817
    46   6 C        2.921    -0.054    29.349     8.884
    47   6 C        2.888     0.125    25.255     8.239
    48   8 O        1.709    -0.251    18.152     5.752
    49   6 C        2.887     0.127    25.225     8.234
    50   6 C        2.920    -0.056    29.391     8.890
    51   6 C        2.919    -0.039    28.965     8.826
    52   6 C        2.919    -0.039    28.967     8.826
    53   6 C        2.924    -0.057    29.408     8.893
    54   6 C        2.926     0.042    27.060     8.531
    55   6 C        2.922    -0.043    29.061     8.840
    56   6 C        2.925    -0.021    28.537     8.761
    57   1 H        0.926     0.058     2.218     2.329
    58   1 H        0.926     0.046     2.375     2.410
    59   1 H        0.926     0.039     2.463     2.454
    60   1 H        0.926     0.031     2.577     2.510
    61   1 H        0.926     0.041     2.434     2.439
    62   1 H        0.926     0.053     2.281     2.362
    63   1 H        0.926     0.052     2.299     2.371
    64   1 H        0.926     0.040     2.448     2.447
    65   1 H        0.926     0.038     2.477     2.461
    66   1 H        0.926     0.036     2.508     2.477
    67   1 H        0.926     0.048     2.351     2.398
    68   1 H        0.926     0.056     2.242     2.341
    69   1 H        0.926     0.035     2.521     2.483
    70   1 H        0.926     0.038     2.478     2.461
    71   1 H        0.926     0.040     2.451     2.448
    72   1 H        0.926     0.041     2.439     2.442
    73   1 H        0.926     0.041     2.438     2.442
    74   1 H        0.926     0.040     2.450     2.448
    75   1 H        0.926     0.038     2.477     2.461
    76   1 H        0.926     0.035     2.521     2.483
    77   1 H        0.926     0.056     2.243     2.342
    78   1 H        0.926     0.048     2.351     2.398
    79   1 H        0.926     0.039     2.462     2.454
    80   1 H        0.926     0.031     2.579     2.511
    81   1 H        0.926     0.041     2.434     2.439
    82   1 H        0.926     0.053     2.281     2.362
    83   1 H        0.926     0.052     2.299     2.371
    84   1 H        0.926     0.040     2.448     2.447
    85   1 H        0.926     0.038     2.477     2.461
    86   1 H        0.926     0.036     2.509     2.477
    87   1 H        0.926     0.046     2.376     2.410
    88   1 H        0.926     0.058     2.219     2.330

molecular dipole:
                 x           y           z       tot (Debye)
 q only:       -0.066       0.003       0.002
   full:       -0.136       0.003       0.001       0.345

 projected vibrational frequencies (cm⁻¹)
eigval :       -0.00    -0.00    -0.00     0.00     0.00     0.00
eigval :       17.48    19.40    23.91    26.08    37.21    43.80
eigval :       50.93    53.37    56.36    63.05    70.56    73.83
eigval :       74.32    82.09    93.39   101.27   110.58   112.26
eigval :      118.49   130.83   140.78   148.83   161.49   167.96
eigval :      175.43   185.31   191.83   211.83   218.40   242.34
eigval :      244.12   253.09   256.13   275.80   277.64   281.92
eigval :      282.08   289.28   316.24   316.99   335.12   353.87
eigval :      362.49   380.24   383.64   384.05   391.50   393.12
eigval :      393.50   400.87   419.41   422.33   433.24   436.12
eigval :      450.00   450.88   461.17   463.17   478.78   483.36
eigval :      510.19   510.88   513.72   526.88   526.95   531.53
eigval :      538.60   542.98   562.70   563.04   584.98   585.31
eigval :      588.12   593.74   594.96   609.59   610.20   631.32
eigval :      633.60   653.65   658.14   661.35   662.19   665.86
eigval :      666.71   672.54   676.85   695.26   703.30   727.58
eigval :      733.07   743.16   745.37   758.41   779.28   780.92
eigval :      781.46   782.08   782.46   790.64   804.50   805.06
eigval :      831.48   834.22   857.45   857.77   865.63   865.85
eigval :      870.28   870.76   883.76   885.54   887.67   891.08
eigval :      893.10   896.84   900.47   900.78   901.31   902.18
eigval :      915.28   915.83   916.49   916.52   917.03   917.95
eigval :      919.82   921.96   929.76   930.63   933.85   936.72
eigval :      938.62   941.32   945.14   947.35  1001.12  1018.23
eigval :     1026.95  1090.14  1090.21  1094.03  1094.39  1096.34
eigval :     1096.41  1109.44  1109.56  1112.62  1122.18  1123.32
eigval :     1136.18  1136.90  1149.59  1169.86  1170.87  1175.91
eigval :     1176.09  1177.19  1178.92  1181.14  1181.70  1186.11
eigval :     1186.57  1197.13  1197.86  1206.82  1206.94  1224.72
eigval :     1226.63  1243.03  1243.66  1243.82  1251.06  1260.82
eigval :     1261.16  1262.03  1265.05  1268.62  1268.90  1289.98
eigval :     1304.36  1308.11  1311.59  1311.93  1314.73  1317.51
eigval :     1322.08  1323.18  1336.82  1336.86  1353.32  1353.78
eigval :     1404.38  1404.46  1423.61  1423.81  1424.50  1424.77
eigval :     1443.14  1443.44  1448.93  1472.33  1473.20  1477.84
eigval :     1485.13  1486.02  1502.69  1503.23  1554.53  1554.74
eigval :     1563.99  1569.08  1569.93  1569.98  1580.57  1580.83
eigval :     1580.90  1583.97  1586.60  1591.16  1592.56  1592.69
eigval :     1603.05  1603.22  1668.78  1678.09  3073.92  3074.07
eigval :     3077.49  3078.45  3082.20  3082.52  3085.53  3086.55
eigval :     3088.71  3088.79  3089.30  3089.33  3090.61  3090.67
eigval :     3094.10  3094.59  3097.57  3097.66  3098.85  3099.53
eigval :     3102.83  3102.88  3103.19  3103.41  3104.92  3104.96
eigval :     3113.47  3113.50  3115.32  3117.28  3120.24  3121.17

   temp. (K)  partition function   enthalpy   heat capacity  entropy
                                   cal/mol     cal/K/mol   cal/K/mol   J/K/mol
 298.15  VIB  0.358E+19            25802.313    166.196    158.628
         ROT  0.417E+08              888.752      2.981     37.852
         INT  0.150E+27            26691.066    169.177    196.479
         TR   0.189E+29             1481.254      4.968     45.601
         TOT                       28172.3197   174.1449   242.0805  1012.8648

       T/K    H(0)-H(T)+PV         H(T)/Eh          T*S/Eh         G(T)/Eh
   ------------------------------------------------------------------------
    298.15    0.448954E-01    0.707289E+00    0.115020E+00    0.592269E+00
   ------------------------------------------------------------------------

         :::::::::::::::::::::::::::::::::::::::::::::::::::::
         ::                  THERMODYNAMIC                  ::
         :::::::::::::::::::::::::::::::::::::::::::::::::::::
         :: total free energy        -144.946307726828 Eh   ::
         ::.................................................::
         :: total energy             -145.538576893404 Eh   ::
         :: zero point energy           0.662393976454 Eh   ::
         :: G(RRHO) w/o ZPVE           -0.070124809879 Eh   ::
         :: G(RRHO) contrib.            0.592269166576 Eh   ::
         :::::::::::::::::::::::::::::::::::::::::::::::::::::

           -------------------------------------------------
          | TOTAL ENERGY             -145.538576893404 Eh   |
          | TOTAL ENTHALPY           -144.831287467769 Eh   |
          | TOTAL FREE ENERGY        -144.946307726828 Eh   |
          | GRADIENT NORM               0.000037193736 Eh/α |
          | HOMO-LUMO GAP               1.465477456738 eV   |
           -------------------------------------------------

 * finished run on 2025/08/23 at 06:17:01.364
