   * xtb version 6.7.1 (edcfbbe) compiled by 'albert@albert-system' on 2024-07-22

   ID    Z sym.   atoms
    1    8 O      1, 14, 36, 48
    2    6 C      2-6, 8-13, 15-35, 37-40, 42-47, 49-56
    3    7 N      7, 41
    4    1 H      57-88

          program call               : xtb data2507/gas/D-BP-PXZ/D-BP-PXZ_gas_T1_crest.xyz --gfn 2 --spinpol --tblite --uhf 2 --ohess vtight --parallel 40 --molden --ceasefiles --namespace data2507/gas/D-BP-PXZ/D-BP-PXZ_gas_T1_finalOpt
 * total energy  :  -145.4675855 Eh     change       -0.9812140E-08 Eh
 * total energy  :  -145.4676040 Eh     change       -0.1851967E-04 Eh
 * total energy  :  -145.4676112 Eh     change       -0.7160904E-05 Eh
 * total energy  :  -145.4676127 Eh     change       -0.1489187E-05 Eh
 * total energy  :  -145.4676153 Eh     change       -0.2586896E-05 Eh
 * total energy  :  -145.4676168 Eh     change       -0.1529908E-05 Eh
 * total energy  :  -145.4676179 Eh     change       -0.1145258E-05 Eh
 * total energy  :  -145.4676190 Eh     change       -0.1042982E-05 Eh
 * total energy  :  -145.4676201 Eh     change       -0.1066073E-05 Eh
 * total energy  :  -145.4676209 Eh     change       -0.8823420E-06 Eh
 * total energy  :  -145.4676218 Eh     change       -0.8712036E-06 Eh
 * total energy  :  -145.4676224 Eh     change       -0.5538089E-06 Eh
 * total energy  :  -145.4676227 Eh     change       -0.3163917E-06 Eh
 * total energy  :  -145.4676230 Eh     change       -0.3022051E-06 Eh
 * total energy  :  -145.4676232 Eh     change       -0.2615363E-06 Eh
 * total energy  :  -145.4676234 Eh     change       -0.1978332E-06 Eh
 * total energy  :  -145.4676236 Eh     change       -0.1868189E-06 Eh
 * total energy  :  -145.4676237 Eh     change       -0.1147478E-06 Eh
 * total energy  :  -145.4676238 Eh     change       -0.9380426E-07 Eh
   *** GEOMETRY OPTIMIZATION CONVERGED AFTER 19 ITERATIONS ***

 final structure:
================
88
 xtb: 6.7.1 (edcfbbe)
O           -3.84793713239970       -0.88538693113882        1.73390903650192
C           -3.57025375234523       -1.20690861448995        0.56495462873733
C           -2.19338278117387       -1.49981119810111        0.18035012983749
C           -1.28269821947529       -1.72747080785553        1.22722540467607
C            0.03015610231592       -2.02097556854159        0.96893213636743
C            0.49904811663399       -2.05272145965120       -0.34740855591086
N            1.87501724606357       -2.31781724081740       -0.56770510682745
C            2.72720422311504       -1.36074867067766       -1.10857845497184
C            2.25759494506267       -0.21550564224682       -1.74394330763452
C            3.13693015951513        0.71491455478482       -2.27013203125186
C            4.50347227794423        0.52908617182036       -2.16879001363893
C            4.99072748295931       -0.59715652434297       -1.52783317411661
C            4.11758419673300       -1.53392293819764       -1.00182046111936
O            4.67447346146472       -2.60472802054520       -0.36143597935752
C            3.82963294478233       -3.58574735500966        0.07812197914982
C            4.40356599080053       -4.71668655905296        0.63317897901995
C            3.60350560225009       -5.75673522430963        1.07676227771676
C            2.22825833563102       -5.66823879272103        0.94491176080276
C            1.64793707169910       -4.53921826566502        0.39640601786957
C            2.43444325924340       -3.46898840062419       -0.02553211516048
C           -0.39540183015944       -1.83051046060914       -1.39675187866667
C           -1.72343357473403       -1.56598446151754       -1.13872176068258
C           -4.66090377890388       -1.46712911843273       -0.40493086331064
C           -4.65688954732088       -2.59066712088759       -1.22142143174445
C           -5.72416333625292       -2.84703596624539       -2.06434903962340
C           -6.80721898234237       -1.98532939399210       -2.09307768717775
C           -6.82503716735708       -0.86871381599429       -1.27505122713557
C           -5.76378296932880       -0.59886862538395       -0.42373281499487
C           -5.76298232814558        0.59428494038254        0.43379614942180
C           -6.82370115265061        0.86489716388478        1.28548871438423
C           -6.80416841954882        1.98072186843422        2.10457164849048
C           -5.71978586159723        2.84078700101978        2.07655677436480
C           -4.65311542042075        2.58380333102030        1.23310323760286
C           -4.65888922427492        1.46107870735831        0.41539420035164
C           -3.56950329457930        1.20067327718644       -0.55557865591464
O           -3.84871588236911        0.87716120420251       -1.72388389955380
C           -2.19240522676053        1.49623182715753       -0.17422662466643
C           -1.71901695463620        1.56240350947249        1.14365871801804
C           -0.39077213150369        1.82910264959625        1.39834610915715
C            0.50061834079945        2.05339047482831        0.34681873093023
N            1.87686755590043        2.31989035015468        0.56368751894591
C            2.73123326837709        1.36341668330283        1.10218589293582
C            2.26417322656708        0.21702453567056        1.73738021534464
C            3.14553462743978       -0.71265562297825        2.26145698165679
C            4.51167620872378       -0.52494065321172        2.15812361517695
C            4.99641787105655        0.60233425799875        1.51708363876435
C            4.12121170313574        1.53830709674217        0.99307662254956
O            4.67568168994276        2.61008281094214        0.35224462204353
C            3.82885154558606        3.58994977243284       -0.08600208705773
C            4.40049510312019        4.72136205654020       -0.64245857164880
C            3.59847447860857        5.76045563517833       -1.08472279840454
C            2.22359204157851        5.67054388830359       -0.95005453051057
C            1.64554568510243        4.54103004015251       -0.40015386443983
C            2.43397838510137        3.47165374090632        0.02037411706464
C            0.02823417566994        2.02172025589260       -0.96829493774051
C           -1.28476640920910        1.72612756093221       -1.22331541203791
H           -1.65427773752416       -1.68020119207667        2.23966426128277
H            0.71178421244480       -2.23603592232924        1.77824038406488
H            1.19528363366093       -0.05250385406579       -1.81086820036959
H            2.74998890939984        1.59284758397630       -2.76572774934535
H            5.18809358101355        1.25583380053420       -2.57599303835877
H            6.04906036985353       -0.76908725479010       -1.41746452485310
H            5.47832356864083       -4.76198653738525        0.70536139402116
H            4.05637821390645       -6.63355114466942        1.51130911330207
H            1.59830890772283       -6.48206464620942        1.26829003457667
H            0.57663973006196       -4.47901016589355        0.28844829906182
H           -0.04517841750312       -1.89069958200963       -2.41714820272606
H           -2.40150475712717       -1.36832061963899       -1.95480112714546
H           -3.82457139727745       -3.27879591272113       -1.17981116198470
H           -5.70953003390098       -3.72264321234550       -2.69717812247180
H           -7.64045354481450       -2.18394128342358       -2.75132793610011
H           -7.66291578293681       -0.18700748310036       -1.30330784667453
H           -7.66250270377080        0.18430655597854        1.31329874391306
H           -7.63704752690524        2.17995469728475        2.76307615653255
H           -5.70375307606897        3.71576169400362        2.71022843671291
H           -3.81997772899495        3.27094462264423        1.19188155109530
H           -2.39456341796626        1.36310474596955        1.96143654140182
H           -0.03797818214312        1.88921008565280        2.41786848601161
H            1.20217827127665        0.05261452846817        1.80586410157183
H            2.76050520397733       -1.59153211234044        2.75687985719145
H            5.19789422594406       -1.25105979340014        2.56374729515918
H            6.05434619664610        0.77569274242012        1.40506147234556
H            5.47506627237952        4.76777500594602       -0.71673264339751
H            4.04956232400039        6.63763054201776       -1.52040428072435
H            1.59215200633366        6.48365796646938       -1.27231654557014
H            0.57453255896127        4.47978424088883       -0.28999303639892
H            0.70738218545774        2.23831486358636       -1.77926367435413
H           -1.65885710747941        1.67875619760125       -2.23482349775515

 projected vibrational frequencies (cm⁻¹)
eigval :       -0.00    -0.00     0.00     0.00     0.00     0.00
eigval :       16.17    18.18    24.19    24.34    33.91    42.87
eigval :       48.47    54.78    56.63    68.45    72.12    74.04
eigval :       79.07    82.78    98.49   102.40   108.13   121.61
eigval :      124.89   137.15   139.94   148.16   166.70   170.27
eigval :      174.91   188.93   205.48   213.08   220.16   244.95
eigval :      246.73   250.07   255.26   274.27   278.92   281.51
eigval :      282.97   296.72   318.10   323.67   337.23   343.41
eigval :      360.57   376.86   388.99   390.07   393.64   395.73
eigval :      397.75   399.29   418.19   425.13   433.96   436.99
eigval :      451.17   455.49   459.32   460.15   469.81   470.55
eigval :      504.04   504.24   509.72   529.10   529.93   531.74
eigval :      534.05   537.98   549.18   552.11   577.60   579.90
eigval :      584.89   588.44   588.72   597.92   605.23   605.48
eigval :      606.06   628.92   636.69   662.99   665.16   665.35
eigval :      665.41   670.83   671.59   677.07   683.91   703.47
eigval :      712.88   732.63   736.45   754.83   774.53   777.98
eigval :      780.32   780.57   780.60   783.83   800.60   802.47
eigval :      811.91   818.39   856.71   857.01   858.56   864.89
eigval :      867.78   870.28   870.57   873.47   876.66   882.31
eigval :      883.03   890.51   898.63   901.28   902.10   902.23
eigval :      911.25   913.04   913.33   914.37   916.29   917.86
eigval :      918.39   918.62   922.75   923.19   927.13   929.09
eigval :      930.77   934.15   934.97   937.27   988.82  1007.21
eigval :     1015.39  1036.18  1085.77  1086.01  1092.44  1092.74
eigval :     1092.92  1093.68  1104.92  1113.01  1113.08  1120.98
eigval :     1122.87  1130.95  1132.04  1148.43  1167.38  1169.32
eigval :     1169.65  1175.19  1175.49  1176.96  1179.61  1185.12
eigval :     1185.38  1193.69  1196.47  1201.53  1211.50  1211.81
eigval :     1218.84  1219.85  1239.91  1240.08  1240.69  1250.74
eigval :     1251.59  1258.05  1258.65  1263.46  1263.97  1290.37
eigval :     1295.86  1298.95  1310.15  1313.24  1313.45  1318.16
eigval :     1319.27  1323.62  1326.42  1338.21  1338.52  1344.96
eigval :     1348.80  1409.25  1410.43  1419.91  1420.81  1421.04
eigval :     1425.26  1439.07  1440.99  1442.10  1450.48  1451.96
eigval :     1454.39  1455.15  1470.36  1476.14  1483.06  1502.66
eigval :     1506.03  1526.97  1553.16  1559.83  1559.90  1560.36
eigval :     1565.07  1566.54  1566.59  1573.41  1575.74  1579.74
eigval :     1580.53  1580.62  1589.05  1589.78  3068.29  3068.52
eigval :     3072.41  3073.41  3077.20  3077.40  3079.43  3080.49
eigval :     3083.57  3083.79  3084.85  3084.98  3087.93  3088.47
eigval :     3095.95  3095.96  3096.50  3097.50  3098.67  3098.73
eigval :     3103.96  3104.02  3104.66  3104.70  3111.33  3111.39
eigval :     3115.67  3115.72  3116.52  3118.38  3128.29  3128.94

   temp. (K)  partition function   enthalpy   heat capacity  entropy
                                   cal/mol     cal/K/mol   cal/K/mol   J/K/mol
 298.15  VIB  0.357E+19            25888.174    167.570    158.583
         ROT  0.415E+08              888.752      2.981     37.840
         INT  0.148E+27            26776.926    170.551    196.423
         TR   0.189E+29             1481.254      4.968     45.601
         TOT                       28258.1799   175.5192   242.0249  1012.6321

       T/K    H(0)-H(T)+PV         H(T)/Eh          T*S/Eh         G(T)/Eh
   ------------------------------------------------------------------------
    298.15    0.450323E-01    0.703364E+00    0.114994E+00    0.588370E+00
   ------------------------------------------------------------------------

         :::::::::::::::::::::::::::::::::::::::::::::::::::::
         ::                  THERMODYNAMIC                  ::
         :::::::::::::::::::::::::::::::::::::::::::::::::::::
         :: total free energy        -144.879253386621 Eh   ::
         ::.................................................::
         :: total energy             -145.467623827706 Eh   ::
         :: zero point energy           0.658331997962 Eh   ::
         :: G(RRHO) w/o ZPVE           -0.069961556877 Eh   ::
         :: G(RRHO) contrib.            0.588370441085 Eh   ::
         :::::::::::::::::::::::::::::::::::::::::::::::::::::

           -------------------------------------------------
          | TOTAL ENERGY             -145.467623827706 Eh   |
          | TOTAL ENTHALPY           -144.764259553579 Eh   |
          | TOTAL FREE ENERGY        -144.879253386621 Eh   |
          | GRADIENT NORM               0.000046679977 Eh/α |
           -------------------------------------------------

 * finished run on 2025/08/23 at 06:26:00.662
