   * xtb version 6.7.1 (edcfbbe) compiled by 'albert@albert-system' on 2024-07-22

   ID    Z sym.   atoms
    1    8 O      1, 14, 36, 48
    2    6 C      2-6, 8-13, 15-35, 37-40, 42-47, 49-56
    3    7 N      7, 41
    4    1 H      57-88

          program call               : xtb data2507/gas/D-BP-PXZ/D-BP-PXZ_gas_S0_finalOpt.xtbopt.xyz --gfn 2 --spinpol --tblite --uhf 2 --ohess vtight --parallel 40 --molden --ceasefiles --namespace data2507/gas/D-BP-PXZ/D-BP-PXZ_gas_T1_preOpt
 * total energy  :  -145.4621251 Eh     change        0.3767320E-07 Eh
 * total energy  :  -145.4649161 Eh     change       -0.2791023E-02 Eh
 * total energy  :  -145.4660123 Eh     change       -0.1096176E-02 Eh
 * total energy  :  -145.4664463 Eh     change       -0.4339942E-03 Eh
 * total energy  :  -145.4668586 Eh     change       -0.4122759E-03 Eh
 * total energy  :  -145.4671303 Eh     change       -0.2717594E-03 Eh
 * total energy  :  -145.4672973 Eh     change       -0.1669623E-03 Eh
 * total energy  :  -145.4673839 Eh     change       -0.8662005E-04 Eh
 * total energy  :  -145.4674438 Eh     change       -0.5988785E-04 Eh
 * total energy  :  -145.4674912 Eh     change       -0.4738783E-04 Eh
 * total energy  :  -145.4676216 Eh     change       -0.7332005E-06 Eh
 * total energy  :  -145.4676223 Eh     change       -0.7435383E-06 Eh
 * total energy  :  -145.4676228 Eh     change       -0.4679004E-06 Eh
 * total energy  :  -145.4676231 Eh     change       -0.2592645E-06 Eh
 * total energy  :  -145.4676232 Eh     change       -0.1451619E-06 Eh
 * total energy  :  -145.4676233 Eh     change       -0.1180730E-06 Eh
 * total energy  :  -145.4676235 Eh     change       -0.2074477E-06 Eh
 * total energy  :  -145.4676236 Eh     change       -0.6109045E-07 Eh
 * total energy  :  -145.4676236 Eh     change       -0.5475570E-07 Eh
   *** GEOMETRY OPTIMIZATION CONVERGED AFTER 34 ITERATIONS ***

 final structure:
================
88
 xtb: 6.7.1 (edcfbbe)
O           -3.84622990811318       -0.88364052849816        1.73084188607748
C           -3.57197142301671       -1.19751679993321        0.55878425315481
C           -2.19705591808434       -1.49323031542547        0.16970462757797
C           -1.28598401479936       -1.73393496647793        1.21338613465703
C            0.02536431486656       -2.03036265059196        0.95096841844730
C            0.49282079872336       -2.05181288815477       -0.36612421527339
N            1.86791333355808       -2.31820828991457       -0.59051602403569
C            2.72122630440352       -1.35800850192651       -1.12420094678972
C            2.25299065694084       -0.20604426628527       -1.74834223398800
C            3.13335473494550        0.72725905642077       -2.26768605300074
C            4.49968200427301        0.53774873850098       -2.17049780825186
C            4.98565014174425       -0.59528220567164       -1.54064937945478
C            4.11144804436302       -1.53495055024858       -1.02159768653949
O            4.66733484452590       -2.61263490851342       -0.39205663494786
C            3.82123347090245       -3.59547264691487        0.04089312320826
C            4.39407155232975       -4.73225264717879        0.58501336827662
C            3.59287847285651       -5.77432184129222        1.02173452156651
C            2.21751850650705       -5.68165426930236        0.89407353681579
C            1.63831346485354       -4.54686419632593        0.35634407088263
C            2.42605867061740       -3.47485506263515       -0.05872839474942
C           -0.40217623705089       -1.81726527641411       -1.41237595853634
C           -1.72891726261486       -1.55005500925425       -1.15050382509560
C           -4.66539254484021       -1.44651600046554       -0.41077477671395
C           -4.66636733488347       -2.56350926474649       -1.23626877718434
C           -5.73620400283761       -2.81010564631178       -2.07883602645848
C           -6.81680125958701       -1.94505127477023       -2.09840163072375
C           -6.82966679297717       -0.83500074754741       -1.27137568232974
C           -5.76591712153126       -0.57509705775358       -0.42009178823357
C           -5.76006661507131        0.61119607729802        0.44686695495212
C           -6.81852589829074        0.87838829530770        1.30248256811383
C           -6.79458670876566        1.98823033540033        2.12954172790396
C           -5.70806833328256        2.84572100234165        2.10572324494337
C           -4.64340877276539        2.59180452484002        1.25877505743900
C           -4.65360446758941        1.47498998734480        0.43311825117637
C           -3.56608974309067        1.21874485537880       -0.54120010325764
O           -3.84729844772919        0.90679170872144       -1.71190897925621
C           -2.18749556672924        1.50600232051379       -0.15809005978846
C           -1.71304051038304        1.55902729476739        1.15993203336666
C           -0.38357159493019        1.81851114993589        1.41592371346517
C            0.50786774096382        2.04880664706526        0.36574651944363
N            1.88546727866526        2.30727892228244        0.58391488470795
C            2.73584933646784        1.34193605436103        1.11295119923675
C            2.26405480524674        0.19214050536171        1.73839898266219
C            3.14154005152828       -0.74644106253195        2.25306684868754
C            4.50844710662095       -0.56445964066857        2.14978824004506
C            4.99784771346606        0.56627957284224        1.51847978667850
C            4.12654719975905        1.51117293036560        1.00404981392527
O            4.68552435125080        2.58619662823959        0.37268699320758
C            3.84294753681004        3.57418824609253       -0.05538477843904
C            4.41961429502706        4.70831533990026       -0.60100251058111
C            3.62225129446164        5.75529057619618       -1.03296590599510
C            2.24699851459595        5.67017330484404       -0.89906005586372
C            1.66394788227278        4.53808812611622       -0.35979194683665
C            2.44759666252518        3.46128253742347        0.05058042195297
C            0.03427588051314        2.03101621233350       -0.94917221577007
C           -1.27997589941690        1.74228574743147       -1.20575565398925
H           -1.65622481763252       -1.69414546309437        2.22663409612786
H            0.70693514972947       -2.25537986542198        1.75757787862526
H            1.19093762305378       -0.04007736178729       -1.81192174863792
H            2.74736415787868        1.61041009468285       -2.75466863129583
H            5.18509816113919        1.26674017861119       -2.57231351659049
H            6.04380559475810       -0.77045275930520       -1.43374679727201
H            5.46890818214731       -4.78037505210382        0.65419061298979
H            4.04495650812783       -6.65576132715908        1.44766993184232
H            1.58656714764041       -6.49674209974060        1.21228121306524
H            0.56688477081243       -4.48356132440191        0.25152011307113
H           -0.05337795327049       -1.86978259250289       -2.43369376287594
H           -2.40713853188902       -1.34282282603261       -1.96408265448086
H           -3.83594188232487       -3.25431821025294       -1.20194997417285
H           -5.72551342780941       -3.68076549145527       -2.71853900851630
H           -7.65197544390099       -2.13593278769553       -2.75648091084576
H           -7.66562414341044       -0.15066851515584       -1.29244093160335
H           -7.65913341939313        0.19988550542332        1.32687099197716
H           -7.62576669695034        2.18486461519453        2.79097848440921
H           -5.68872592984917        3.71619487379847        2.74547553711886
H           -3.80834679611065        3.27683109982160        1.22115873863460
H           -2.38871248529576        1.35506207384524        1.97646210606446
H           -0.02979061306592        1.86821191257881        2.43566597200578
H            1.20138786375103        0.03209552659137        1.80669165491296
H            2.75284715525393       -1.62782705640467        2.74110901191041
H            5.19160949567901       -1.29754790503132        2.54796954176592
H            6.05646686588604        0.73561130904536        1.40685472982214
H            5.49437300171364        4.75051024881915       -0.67508974514238
H            4.07728000074222        6.63464278002949       -1.46007401386302
H            1.61915846617794        6.48910953268985       -1.21352093602882
H            0.59267683304294        4.48067074687197       -0.25007641664746
H            0.71342895527945        2.25270738125883       -1.75872650772922
H           -1.65506653506624        1.70533055984227       -2.21732353957964

 projected vibrational frequencies (cm⁻¹)
eigval :       -0.00    -0.00    -0.00     0.00     0.00     0.00
eigval :       16.31    17.23    23.60    24.26    35.87    42.90
eigval :       47.21    54.38    56.66    68.54    72.05    73.15
eigval :       79.13    82.88    97.76   102.85   107.86   121.20
eigval :      125.19   137.37   140.11   148.10   166.15   170.22
eigval :      175.47   189.06   204.87   212.97   220.10   245.36
eigval :      247.07   250.63   255.06   274.09   279.41   281.34
eigval :      282.90   296.84   318.59   323.28   337.24   343.51
eigval :      360.70   376.29   388.92   390.26   393.38   395.79
eigval :      397.66   399.05   418.06   424.87   433.65   436.73
eigval :      451.14   455.51   458.75   460.18   469.85   470.68
eigval :      503.95   504.17   509.54   529.18   530.01   531.82
eigval :      534.24   538.04   549.32   551.71   577.63   579.98
eigval :      584.89   588.37   588.48   597.72   605.39   605.50
eigval :      606.11   628.85   636.52   663.09   665.28   665.33
eigval :      665.41   670.84   671.59   677.11   683.99   703.53
eigval :      712.78   732.47   736.61   754.70   774.49   778.15
eigval :      780.25   780.36   780.66   783.79   800.35   802.52
eigval :      811.35   818.34   856.60   857.00   858.67   864.92
eigval :      868.36   870.19   870.25   873.39   876.15   882.41
eigval :      882.80   890.42   898.81   901.46   901.97   902.03
eigval :      910.79   912.86   913.51   914.11   915.86   917.83
eigval :      918.27   918.55   922.74   922.98   927.11   929.15
eigval :      931.53   934.65   934.96   937.19   989.57  1007.02
eigval :     1015.01  1041.88  1085.61  1085.94  1092.31  1092.57
eigval :     1092.68  1094.29  1104.77  1112.74  1112.94  1121.17
eigval :     1122.67  1131.03  1132.16  1148.52  1167.58  1169.64
eigval :     1169.95  1175.07  1175.41  1176.87  1178.91  1184.95
eigval :     1185.42  1193.57  1196.53  1197.98  1211.40  1211.75
eigval :     1220.34  1221.02  1239.88  1240.11  1240.58  1250.53
eigval :     1251.58  1257.00  1258.85  1263.18  1264.06  1290.85
eigval :     1295.15  1299.02  1310.14  1313.46  1313.50  1317.69
eigval :     1319.27  1323.60  1325.01  1337.81  1338.26  1345.66
eigval :     1348.94  1409.17  1410.88  1420.16  1420.97  1421.11
eigval :     1425.12  1439.86  1440.93  1442.25  1450.53  1452.18
eigval :     1454.51  1455.29  1470.55  1475.34  1482.39  1502.59
eigval :     1505.98  1527.13  1553.31  1559.82  1559.94  1560.41
eigval :     1565.07  1566.61  1566.63  1573.37  1575.71  1579.26
eigval :     1580.51  1580.73  1589.74  1590.00  3068.21  3068.39
eigval :     3072.36  3073.39  3077.23  3077.40  3079.41  3080.53
eigval :     3083.82  3083.98  3085.15  3085.25  3087.83  3088.43
eigval :     3096.10  3096.11  3096.62  3097.25  3098.71  3098.97
eigval :     3104.10  3104.12  3104.68  3104.71  3111.72  3111.75
eigval :     3115.47  3115.68  3116.68  3118.60  3128.39  3129.21

   temp. (K)  partition function   enthalpy   heat capacity  entropy
                                   cal/mol     cal/K/mol   cal/K/mol   J/K/mol
 298.15  VIB  0.379E+19            25891.791    167.562    158.661
         ROT  0.415E+08              888.752      2.981     37.839
         INT  0.157E+27            26780.544    170.543    196.500
         TR   0.189E+29             1481.254      4.968     45.601
         TOT                       28261.7976   175.5109   242.1016  1012.9529

       T/K    H(0)-H(T)+PV         H(T)/Eh          T*S/Eh         G(T)/Eh
   ------------------------------------------------------------------------
    298.15    0.450380E-01    0.703369E+00    0.115030E+00    0.588339E+00
   ------------------------------------------------------------------------

         :::::::::::::::::::::::::::::::::::::::::::::::::::::
         ::                  THERMODYNAMIC                  ::
         :::::::::::::::::::::::::::::::::::::::::::::::::::::
         :: total free energy        -144.879285081001 Eh   ::
         ::.................................................::
         :: total energy             -145.467623699171 Eh   ::
         :: zero point energy           0.658330840211 Eh   ::
         :: G(RRHO) w/o ZPVE           -0.069992222042 Eh   ::
         :: G(RRHO) contrib.            0.588338618169 Eh   ::
         :::::::::::::::::::::::::::::::::::::::::::::::::::::

           -------------------------------------------------
          | TOTAL ENERGY             -145.467623699171 Eh   |
          | TOTAL ENTHALPY           -144.764254817721 Eh   |
          | TOTAL FREE ENERGY        -144.879285081001 Eh   |
          | GRADIENT NORM               0.000149075823 Eh/α |
           -------------------------------------------------

 * finished run on 2025/08/23 at 06:17:18.529
