   * xtb version 6.7.1 (edcfbbe) compiled by 'albert@albert-system' on 2024-07-22

   ID    Z sym.   atoms
    1    8 O      1, 14, 36, 48
    2    6 C      2-6, 8-13, 15-35, 37-40, 42-47, 49-56
    3    7 N      7, 41
    4    1 H      57-88

          program call               : xtb data2507/gas/D-BP-PXZ/D-BP-PXZ.xyz --gfn 2 --ohess vtight --parallel 40 --molden --ceasefiles --namespace data2507/gas/D-BP-PXZ/D-BP-PXZ_gas_S0_preOpt
          :  Hamiltonian                  GFN2-xTB          :
 * total energy  :  -145.4941136 Eh     change       -0.5287632E-08 Eh
 * total energy  :  -145.5079570 Eh     change       -0.1384342E-01 Eh
 * total energy  :  -145.5130075 Eh     change       -0.5050466E-02 Eh
 * total energy  :  -145.5148193 Eh     change       -0.1811813E-02 Eh
 * total energy  :  -145.5162657 Eh     change       -0.1446323E-02 Eh
 * total energy  :  -145.5171701 Eh     change       -0.9044285E-03 Eh
 * total energy  :  -145.5177800 Eh     change       -0.6099480E-03 Eh
 * total energy  :  -145.5182865 Eh     change       -0.5064736E-03 Eh
 * total energy  :  -145.5187276 Eh     change       -0.4411178E-03 Eh
 * total energy  :  -145.5190866 Eh     change       -0.3589566E-03 Eh
 * total energy  :  -145.5237659 Eh     change       -0.1407440E-05 Eh
 * total energy  :  -145.5237674 Eh     change       -0.1489328E-05 Eh
 * total energy  :  -145.5237691 Eh     change       -0.1756135E-05 Eh
 * total energy  :  -145.5237707 Eh     change       -0.1539094E-05 Eh
 * total energy  :  -145.5237721 Eh     change       -0.1401987E-05 Eh
 * total energy  :  -145.5237734 Eh     change       -0.1332488E-05 Eh
 * total energy  :  -145.5237748 Eh     change       -0.1348596E-05 Eh
 * total energy  :  -145.5237762 Eh     change       -0.1453861E-05 Eh
 * total energy  :  -145.5237762 Eh     change       -0.4603834E-08 Eh
   *** GEOMETRY OPTIMIZATION CONVERGED AFTER 152 ITERATIONS ***

 final structure:
================
88
 xtb: 6.7.1 (edcfbbe)
O            0.10383367892478        1.51287974230503        1.28245984472513
C           -0.42727180803002        1.06288382463281        0.28628393435559
C           -1.79615555031561        0.50123157819379        0.31390407352981
C           -2.54450798003017        0.30661611052446       -0.84815919722427
C           -3.83314589495835       -0.17767220807470       -0.77309871582448
C           -4.40167021117524       -0.48165538238652        0.46436379103233
N           -5.71594461341018       -0.97225027889887        0.53634007069049
C           -6.70131734193336       -0.27080740427992        1.24150760558928
C           -6.45383846463695        0.95611215872360        1.84468705186486
C           -7.45505017116638        1.62614532123833        2.53082482075463
C           -8.72373950640084        1.08936390308309        2.61492894793232
C           -8.99749276787820       -0.11532910305795        1.98572643737419
C           -8.00287410511590       -0.78618051867326        1.29779952231885
O           -8.36332584914294       -1.95058378313853        0.66862460455818
C           -7.39136396453615       -2.62083553349767       -0.02888523965393
C           -7.76826853108927       -3.79712216340037       -0.65082710455592
C           -6.83519677174583       -4.55394427650257       -1.34281932839124
C           -5.52077537098082       -4.13573040288651       -1.38806418042544
C           -5.13858768215676       -2.95563559498376       -0.76875091088918
C           -6.06835225009628       -2.16571841643162       -0.10395703644970
C           -3.65749248928734       -0.28634888632167        1.62846134745718
C           -2.37346067938738        0.20541383857421        1.55023845551000
C            0.27537323779752        1.01305893727954       -1.02873225135006
C            0.44875302322563       -0.21933911608205       -1.65040753702840
C            1.18515302752028       -0.32089839508519       -2.81603540680896
C            1.73091706208781        0.81835435063733       -3.38558684846736
C            1.54915196074899        2.04946826716768       -2.78441187311511
C            0.83926023424226        2.16280596438435       -1.59225282849845
C            0.63604636101898        3.47919316423234       -0.96675250129675
C           -0.64514210004878        3.87632619558411       -0.59534833227682
C           -0.87242676630682        5.12379158733311       -0.04519913898052
C            0.17906374368250        6.00991494406880        0.12333104839768
C            1.45341556346924        5.63862877927856       -0.25978528653807
C            1.69809071560419        4.37462690190515       -0.78754355703949
C            3.10222928685350        4.04405162724190       -1.16111656629343
O            3.79150646037133        4.83553099594392       -1.77449632144241
C            3.62117203509644        2.72519310680951       -0.73066752707585
C            3.11643631606321        2.05527532331503        0.38236567579010
C            3.63467677372186        0.82961771647933        0.74571308736005
C            4.66035919042000        0.24975265648941        0.00216386050694
N            5.17950666986649       -1.00936250919259        0.36277802339108
C            4.36665444966257       -2.14515603046541        0.35532774972190
C            3.02881162682844       -2.09910701799923       -0.01603152937515
C            2.25364966853394       -3.24880942077571       -0.01853485735840
C            2.80167496648099       -4.46392003533353        0.33754578459107
C            4.14384067902134       -4.53190251615040        0.68043831920436
C            4.92257202179005       -3.38972966878753        0.68301632294462
O            6.24839637676682       -3.54532066320958        0.99928212646207
C            7.03237956354836       -2.41815645628642        1.01306980719147
C            8.36045137208922       -2.58444029465596        1.35887620287907
C            9.20854955069783       -1.48911666269641        1.42708046765707
C            8.71149432071388       -0.22810171091255        1.16758186304393
C            7.38062352395243       -0.05646071457263        0.81875106669405
C            6.52667339036414       -1.14706128568113        0.71072390037912
C            5.17944894772932        0.92633726162832       -1.10056562270292
C            4.67082274700256        2.15701986386607       -1.45262828927617
H           -2.12448482721658        0.55919778682396       -1.81083477610549
H           -4.41867346771765       -0.31075607443418       -1.67084724010108
H           -5.47348178270088        1.39978283109839        1.77165193837840
H           -7.23098595472950        2.57433243224787        2.99450769603064
H           -9.50457035248829        1.60366155355951        3.15225300942550
H           -9.98300519234390       -0.55193895198290        2.01032364033810
H           -8.79842168797829       -4.10600869811565       -0.57463809541600
H           -7.13896786084795       -5.46811207755666       -1.82752384853388
H           -4.77722927579440       -4.72534177063486       -1.90176625724942
H           -4.10348767653451       -2.65349982374689       -0.79557143337294
H           -4.09471259072879       -0.53057195728320        2.58516119648921
H           -1.78427724785598        0.36119436345331        2.44152291331298
H            0.01855660146227       -1.10220379235263       -1.19957630489360
H            1.33080682880925       -1.28529646681169       -3.27860478931796
H            2.29583671915113        0.74677772793066       -4.30267264407869
H            1.95485660323476        2.93992062135138       -3.24186297021886
H           -1.47517908765396        3.20242751500935       -0.75628306653547
H           -1.87377052260847        5.40798288634544        0.24248641396409
H            0.00395322789578        6.98799844975239        0.54524966318104
H            2.28487589970643        6.31817502710263       -0.14468689786584
H            2.32599294452827        2.49143388671146        0.97328348137540
H            3.24842677163928        0.31638467434280        1.61349772595189
H            2.59056458249030       -1.15969912254482       -0.31424792887438
H            1.21502072538800       -3.18427094911926       -0.30508780048106
H            2.20101836153840       -5.35978792109329        0.34114394533815
H            4.61000140503202       -5.46762288319624        0.94449664752684
H            8.71028841850983       -3.58098986892564        1.57611505895901
H           10.24424402241375       -1.62864243457203        1.69354851067775
H            9.35275555447955        0.63694122698740        1.23738885087882
H            7.00191651602169        0.93686933948631        0.63659060623803
H            5.97627866706660        0.47594174497350       -1.67399707185440
H            5.06226600159758        2.69282305439496       -2.30455599857097

          :  Hamiltonian                  GFN2-xTB          :
         :: gradient norm              0.000053225889 Eh/a0 ::
         :: HOMO-LUMO gap              1.269320685802 eV    ::
         :: SCC energy              -148.036991300809 Eh    ::
         :: -> dispersion             -0.133268708480 Eh    ::
         :: repulsion energy           2.513215070737 Eh    ::

    * Orbital Energies and Occupations

         #    Occupation            Energy/Eh            Energy/eV
      -------------------------------------------------------------
         1        2.0000           -0.7341627             -19.9776
       ...           ...                  ...                  ...
       121        2.0000           -0.4187896             -11.3958
       122        2.0000           -0.4164034             -11.3309
       123        2.0000           -0.4150918             -11.2952
       124        2.0000           -0.4148187             -11.2878
       125        2.0000           -0.4136458             -11.2559
       126        2.0000           -0.4114496             -11.1961
       127        2.0000           -0.4028301             -10.9616
       128        2.0000           -0.3966962             -10.7947
       129        2.0000           -0.3960708             -10.7776
       130        2.0000           -0.3891537             -10.5894
       131        2.0000           -0.3876886             -10.5495
       132        2.0000           -0.3506567              -9.5419
       133        2.0000           -0.3423980              -9.3171 (HOMO)
       134                         -0.2957513              -8.0478 (LUMO)
       135                         -0.2848940              -7.7524
       136                         -0.2582143              -7.0264
       137                         -0.2492798              -6.7832
       138                         -0.2457393              -6.6869
       139                         -0.2444501              -6.6518
       140                         -0.2383280              -6.4852
       141                         -0.2376305              -6.4663
       142                         -0.2356576              -6.4126
       143                         -0.2347540              -6.3880
       144                         -0.2285306              -6.2186
       ...                                ...                  ...
       256                          0.6810368              18.5320
      -------------------------------------------------------------
                  HL-Gap            0.0466467 Eh            1.2693 eV

     #   Z          covCN         q      C6AA      α(0)
     1   8 O        0.858    -0.377    21.223     6.177
     2   6 C        2.828     0.231    23.171     7.888
     3   6 C        2.972    -0.018    28.464     8.751
     4   6 C        2.920    -0.027    28.678     8.782
     5   6 C        2.920    -0.041    29.014     8.833
     6   6 C        2.921     0.073    26.373     8.422
     7   7 N        2.751    -0.067    22.545     7.052
     8   6 C        2.921     0.042    27.067     8.532
     9   6 C        2.924    -0.059    29.470     8.902
    10   6 C        2.919    -0.038    28.945     8.823
    11   6 C        2.919    -0.039    28.961     8.825
    12   6 C        2.920    -0.055    29.375     8.888
    13   6 C        2.885     0.126    25.244     8.237
    14   8 O        1.709    -0.252    18.177     5.756
    15   6 C        2.885     0.126    25.240     8.236
    16   6 C        2.920    -0.055    29.377     8.888
    17   6 C        2.919    -0.039    28.965     8.826
    18   6 C        2.919    -0.038    28.954     8.824
    19   6 C        2.924    -0.059    29.473     8.903
    20   6 C        2.921     0.042    27.066     8.532
    21   6 C        2.919    -0.040    28.997     8.830
    22   6 C        2.924    -0.018    28.450     8.747
    23   6 C        2.977    -0.017    28.425     8.745
    24   6 C        2.923    -0.028    28.689     8.784
    25   6 C        2.918    -0.029    28.731     8.790
    26   6 C        2.918    -0.026    28.656     8.778
    27   6 C        2.924    -0.032    28.788     8.799
    28   6 C        2.979     0.017    27.620     8.621
    29   6 C        2.978     0.017    27.619     8.621
    30   6 C        2.925    -0.026    28.659     8.779
    31   6 C        2.919    -0.023    28.585     8.767
    32   6 C        2.918    -0.027    28.670     8.780
    33   6 C        2.925    -0.018    28.465     8.749
    34   6 C        2.975    -0.012    28.303     8.727
    35   6 C        2.829     0.229    23.198     7.893
    36   8 O        0.858    -0.374    21.164     6.168
    37   6 C        2.973    -0.017    28.421     8.745
    38   6 C        2.920    -0.026    28.652     8.778
    39   6 C        2.921    -0.038    28.951     8.824
    40   6 C        2.922     0.069    26.454     8.434
    41   7 N        2.751    -0.069    22.569     7.056
    42   6 C        2.922     0.043    27.034     8.527
    43   6 C        2.923    -0.060    29.495     8.906
    44   6 C        2.920    -0.038    28.952     8.824
    45   6 C        2.919    -0.041    29.013     8.833
    46   6 C        2.920    -0.057    29.405     8.892
    47   6 C        2.884     0.125    25.250     8.238
    48   8 O        1.709    -0.255    18.216     5.762
    49   6 C        2.884     0.125    25.267     8.241
    50   6 C        2.920    -0.056    29.393     8.891
    51   6 C        2.919    -0.040    28.991     8.830
    52   6 C        2.919    -0.038    28.949     8.823
    53   6 C        2.924    -0.059    29.468     8.902
    54   6 C        2.922     0.042    27.047     8.529
    55   6 C        2.920    -0.042    29.044     8.838
    56   6 C        2.924    -0.020    28.515     8.757
    57   1 H        0.926     0.042     2.426     2.436
    58   1 H        0.926     0.046     2.368     2.407
    59   1 H        0.926     0.036     2.497     2.471
    60   1 H        0.926     0.038     2.469     2.457
    61   1 H        0.926     0.041     2.441     2.443
    62   1 H        0.926     0.053     2.288     2.366
    63   1 H        0.926     0.053     2.288     2.365
    64   1 H        0.926     0.040     2.443     2.444
    65   1 H        0.926     0.037     2.483     2.464
    66   1 H        0.926     0.034     2.524     2.485
    67   1 H        0.926     0.049     2.332     2.388
    68   1 H        0.926     0.065     2.147     2.291
    69   1 H        0.926     0.035     2.516     2.480
    70   1 H        0.926     0.041     2.442     2.443
    71   1 H        0.926     0.041     2.436     2.441
    72   1 H        0.926     0.042     2.426     2.436
    73   1 H        0.926     0.028     2.611     2.527
    74   1 H        0.926     0.038     2.473     2.459
    75   1 H        0.926     0.041     2.431     2.438
    76   1 H        0.926     0.052     2.295     2.369
    77   1 H        0.926     0.064     2.153     2.294
    78   1 H        0.926     0.050     2.324     2.384
    79   1 H        0.926     0.033     2.539     2.492
    80   1 H        0.926     0.030     2.592     2.518
    81   1 H        0.926     0.037     2.486     2.466
    82   1 H        0.926     0.051     2.310     2.377
    83   1 H        0.926     0.051     2.313     2.378
    84   1 H        0.926     0.039     2.467     2.456
    85   1 H        0.926     0.038     2.481     2.463
    86   1 H        0.926     0.037     2.483     2.464
    87   1 H        0.926     0.045     2.388     2.417
    88   1 H        0.926     0.058     2.218     2.329

molecular dipole:
                 x           y           z       tot (Debye)
 q only:       -1.255      -0.640      -0.288
   full:       -1.384      -0.707      -0.364       4.057

 projected vibrational frequencies (cm⁻¹)
eigval :       -0.00    -0.00    -0.00    -0.00     0.00     0.00
eigval :        3.34     8.43    10.12    16.72    23.04    26.51
eigval :       35.08    38.37    40.27    42.13    52.00    57.52
eigval :       65.53    71.12    76.24    86.76    87.80   118.15
eigval :      120.69   121.67   126.45   133.93   158.23   158.33
eigval :      168.79   178.29   188.95   208.46   216.83   235.12
eigval :      242.97   250.73   252.37   262.33   275.34   276.84
eigval :      281.99   293.70   304.62   323.78   341.40   345.99
eigval :      367.52   374.81   378.64   381.15   383.97   386.35
eigval :      394.23   396.97   420.07   420.38   430.84   431.62
eigval :      446.55   447.32   458.55   464.65   472.47   480.30
eigval :      507.34   509.69   510.24   522.99   523.06   528.70
eigval :      545.59   546.49   554.74   563.04   585.76   585.98
eigval :      589.53   591.97   593.39   607.92   609.50   627.90
eigval :      634.73   655.63   659.99   660.56   661.80   662.12
eigval :      663.35   670.13   677.08   695.29   710.94   722.88
eigval :      732.46   737.76   743.26   764.73   777.38   779.26
eigval :      779.73   779.81   783.34   790.19   802.94   803.57
eigval :      827.99   828.40   855.65   856.33   864.07   864.34
eigval :      867.27   867.89   879.24   879.59   887.96   891.08
eigval :      895.76   896.90   898.02   898.82   898.91   899.92
eigval :      912.31   914.80   915.10   915.84   917.46   917.88
eigval :      920.55   922.34   928.18   930.65   931.52   932.45
eigval :      936.37   938.10   939.43   944.48   999.71  1018.24
eigval :     1024.71  1090.86  1090.99  1091.93  1093.05  1094.73
eigval :     1097.47  1108.66  1109.12  1114.33  1121.48  1121.78
eigval :     1132.71  1134.40  1141.31  1170.74  1170.96  1174.63
eigval :     1175.47  1175.73  1176.98  1180.66  1181.38  1183.96
eigval :     1185.64  1193.70  1196.68  1202.68  1203.00  1223.76
eigval :     1226.06  1242.42  1243.34  1243.87  1246.00  1254.53
eigval :     1259.00  1261.78  1262.21  1262.89  1263.93  1290.23
eigval :     1310.58  1311.09  1311.60  1311.99  1314.25  1316.46
eigval :     1320.76  1321.30  1337.90  1339.92  1354.51  1356.13
eigval :     1405.07  1406.86  1412.03  1424.35  1424.83  1432.16
eigval :     1442.55  1443.39  1446.86  1472.33  1473.07  1480.66
eigval :     1486.21  1488.11  1504.03  1505.66  1552.89  1557.94
eigval :     1564.11  1567.80  1568.55  1568.96  1578.73  1580.43
eigval :     1580.66  1581.14  1585.54  1590.33  1591.08  1591.15
eigval :     1602.45  1603.45  1689.20  1692.84  3070.14  3076.03
eigval :     3081.10  3082.75  3083.00  3084.28  3084.94  3088.65
eigval :     3089.65  3090.28  3090.32  3090.51  3091.32  3092.86
eigval :     3093.22  3095.72  3098.12  3098.44  3099.45  3099.73
eigval :     3099.78  3100.38  3100.83  3106.48  3106.82  3107.23
eigval :     3107.92  3107.96  3112.84  3113.43  3114.38  3114.96

   temp. (K)  partition function   enthalpy   heat capacity  entropy
                                   cal/mol     cal/K/mol   cal/K/mol   J/K/mol
 298.15  VIB  0.608E+22            26291.414    163.999    165.774
         ROT  0.136E+09              888.752      2.981     40.203
         INT  0.829E+30            27180.166    166.980    205.977
         TR   0.189E+29             1481.254      4.968     45.601
         TOT                       28661.4202   171.9485   251.5783  1052.6034

       T/K    H(0)-H(T)+PV         H(T)/Eh          T*S/Eh         G(T)/Eh
   ------------------------------------------------------------------------
    298.15    0.456749E-01    0.706810E+00    0.119533E+00    0.587277E+00
   ------------------------------------------------------------------------

         :::::::::::::::::::::::::::::::::::::::::::::::::::::
         ::                  THERMODYNAMIC                  ::
         :::::::::::::::::::::::::::::::::::::::::::::::::::::
         :: total free energy        -144.936499230910 Eh   ::
         ::.................................................::
         :: total energy             -145.523776230071 Eh   ::
         :: zero point energy           0.661135066184 Eh   ::
         :: G(RRHO) w/o ZPVE           -0.073858067023 Eh   ::
         :: G(RRHO) contrib.            0.587276999161 Eh   ::
         :::::::::::::::::::::::::::::::::::::::::::::::::::::

           -------------------------------------------------
          | TOTAL ENERGY             -145.523776230071 Eh   |
          | TOTAL ENTHALPY           -144.816966283494 Eh   |
          | TOTAL FREE ENERGY        -144.936499230910 Eh   |
          | GRADIENT NORM               0.000053224547 Eh/α |
          | HOMO-LUMO GAP               1.269321874813 eV   |
           -------------------------------------------------

 * finished run on 2025/08/23 at 06:11:45.574
