   * xtb version 6.7.1 (edcfbbe) compiled by 'albert@albert-system' on 2024-07-22

   ID    Z sym.   atoms
    1    6 C      1-6, 8-13, 15-36, 38-43, 45-53
    2    8 O      7, 44
    3    7 N      14, 37
    4    1 H      54-83

          program call               : xtb data2507/toluene/SBF-PXZ/SBF-PXZ_toluene_S0_crest.xyz --gfn 2 --gbsa toluene --ohess vtight --parallel 40 --molden --ceasefiles --namespace data2507/toluene/SBF-PXZ/SBF-PXZ_toluene_S0_finalOpt
      * Solvation model:               GBSA
        Solvent                        toluene
        Solvent mass                       9.2140E+01 g/mol
          :  Hamiltonian                  GFN2-xTB          :
 * total energy  :  -134.3448616 Eh     change       -0.5600839E-08 Eh
 * total energy  :  -134.3449271 Eh     change       -0.6547340E-04 Eh
 * total energy  :  -134.3449597 Eh     change       -0.3268534E-04 Eh
 * total energy  :  -134.3449698 Eh     change       -0.1010479E-04 Eh
 * total energy  :  -134.3449798 Eh     change       -0.9921411E-05 Eh
 * total energy  :  -134.3449885 Eh     change       -0.8761327E-05 Eh
 * total energy  :  -134.3449995 Eh     change       -0.1092699E-04 Eh
 * total energy  :  -134.3450154 Eh     change       -0.1593322E-04 Eh
 * total energy  :  -134.3450336 Eh     change       -0.1823657E-04 Eh
 * total energy  :  -134.3450478 Eh     change       -0.1420729E-04 Eh
 * total energy  :  -134.3451758 Eh     change       -0.1103936E-05 Eh
 * total energy  :  -134.3451765 Eh     change       -0.6996747E-06 Eh
 * total energy  :  -134.3451772 Eh     change       -0.6883444E-06 Eh
 * total energy  :  -134.3451781 Eh     change       -0.8950388E-06 Eh
 * total energy  :  -134.3451790 Eh     change       -0.9190479E-06 Eh
 * total energy  :  -134.3451798 Eh     change       -0.8107211E-06 Eh
 * total energy  :  -134.3451806 Eh     change       -0.8313547E-06 Eh
 * total energy  :  -134.3451816 Eh     change       -0.9608822E-06 Eh
 * total energy  :  -134.3451816 Eh     change       -0.4936567E-08 Eh
   *** GEOMETRY OPTIMIZATION CONVERGED AFTER 44 ITERATIONS ***

 final structure:
================
83
 xtb: 6.7.1 (edcfbbe)
C            7.30972413122932        3.26013898612991        1.76607693137318
C            5.94928788744802        3.35319376489551        1.97898306961840
C            5.11438773502498        2.29357141865247        1.65707186677381
C            5.62882979383959        1.11637157861051        1.12705321115856
C            7.00764800210373        1.04491580090889        0.88602716314484
C            7.83613812720635        2.10320353998755        1.20831765260720
O            7.60024036053679       -0.05858667517286        0.31444181436818
C            6.78063677669159       -1.11264386001925       -0.02199611937683
C            7.38508452181461       -2.21344327386315       -0.59928043608115
C            6.63123827764345       -3.32705713163613       -0.94303613840465
C            5.27444908868609       -3.33205502891510       -0.69082131342250
C            4.66408590182336       -2.22965788065916       -0.11160688151856
C            5.39908352290966       -1.09615526248490        0.21425042410167
N            4.81661831300678        0.03057851806290        0.79757359346249
C            3.42993235326822        0.05726661933901        1.07707395595444
C            2.99187747389774        0.11012681340881        2.39894509123908
C            1.64120913232465        0.12918753269650        2.69912614360202
C            0.72526913166330        0.07962757630861        1.65964807831215
C            1.17057165481154        0.02101691257047        0.32966447513547
C            2.51262443372320        0.01831938087590        0.02667626754180
C            0.00055519784579       -0.04415642170883       -0.62149368666503
C           -0.03453830385850        1.08042805169589       -1.63089812429167
C           -0.08511388674592        2.43705620555692       -1.39618974961758
C           -0.12976294836377        3.29542057839316       -2.48726235938130
C           -0.12144816674981        2.79844147679735       -3.78209863194294
C           -0.06714703988321        1.43407749506558       -4.02123690827745
C           -0.02418656859562        0.57154868008043       -2.93780210563390
C            0.02838684013774       -0.88126416912272       -2.86699749038811
C            0.07109545929827       -1.84473043335771       -3.86170656758252
C            0.12090187376086       -3.17967552477526       -3.49150252695148
C            0.12526208116187       -3.54907452055278       -2.15464481222781
C            0.08134880167694       -2.58891466027181       -1.15188084953176
C            0.03571799721163       -1.26118409609291       -1.51685973152745
C           -1.17045761005599       -0.01138376311861        0.32989645028833
C           -2.51214376310886       -0.03590331142119        0.02593453078869
C           -3.43069835219367        0.04248094689498        1.07287716911374
N           -4.81711032244919        0.04859694186832        0.79111129577306
C           -5.39408303252670        1.11316454997516        0.09584657393773
C           -4.65017903377517        2.19331901287346       -0.36382305121747
C           -5.25633113046281        3.23567106375403       -1.04906025522853
C           -6.61726829778398        3.22362931433144       -1.27752703851684
C           -7.37927650574710        2.16502426609704       -0.80287366531440
C           -6.77906407830197        1.12362640246546       -0.12043653588762
O           -7.60655856366792        0.12418253793980        0.34036382437756
C           -7.01813745616005       -0.92309092166143        1.01298799048642
C           -7.85335596987021       -1.93301433239049        1.45204391111256
C           -7.33146541501609       -3.03420657125373        2.11664030333633
C           -5.96929530268065       -3.12138271033348        2.32099679553425
C           -5.12769809013563       -2.10994665515825        1.88255414372367
C           -5.63686568433057       -0.98691853743300        1.24148455573967
C           -2.99447381479050        0.12880356613680        2.39374272010163
C           -1.64441604094110        0.13575917050646        2.69665038828611
C           -0.72703476519937        0.07044209455280        1.65923911235780
H            7.96521102349318        4.07864574032841        2.01899263556543
H            5.52241037836492        4.25274003652932        2.39562132023576
H            4.05116844855455        2.38332221256554        1.81478481456226
H            8.89237663585387        2.00315783367296        1.01246212355269
H            8.45045682119276       -2.18168325142890       -0.76662045960203
H            7.11194853177250       -4.18014056000667       -1.39556901991863
H            4.67525689419627       -4.19486897771770       -0.93880245513116
H            3.60561249012233       -2.25325878564475        0.09219559087642
H            3.72482404923645        0.13361830721520        3.19211629523793
H            1.31247765579219        0.16951605285681        3.72623743381117
H            2.85808966185136       -0.01680674764559       -0.99601657360769
H           -0.09217591427016        2.82487936968158       -0.38746333482206
H           -0.17174070727094        4.36250974025466       -2.32461511677925
H           -0.15800746784974        3.48531368911434       -4.61531735395987
H           -0.06087325544727        1.05312500240146       -5.03167279487710
H            0.06712807927404       -1.56323483273619       -4.90427311227074
H            0.15674703382471       -3.94387434137880       -4.25449868703128
H            0.16302672340411       -4.59565085960111       -1.88959816318659
H            0.08482633915623       -2.87717042772131       -0.11031127489443
H           -2.85614624294812       -0.10904103521297       -0.99521555284710
H           -3.58815934317694        2.22395892581479       -0.18031378223608
H           -4.64994548208060        4.05715842264912       -1.39891282728598
H           -7.09486604255543        4.03013080918632       -1.81147271879979
H           -8.44775073240684        2.13103786069577       -0.94858113630349
H           -8.91115415411319       -1.84042337153991        1.26109322052434
H           -7.99191415687552       -3.81550461155532        2.45867253252218
H           -5.54630416684590       -3.97938145218528        2.82092386597633
H           -4.06342581841245       -2.19548527797641        2.03576939686528
H           -3.72884512825835        0.19376719789073        3.18332919113947
H           -1.31707954872996        0.20396008206523        3.72273030312012

          :  Hamiltonian                  GFN2-xTB          :
         :: gradient norm              0.000056062851 Eh/a0 ::
         :: HOMO-LUMO gap              2.067403595649 eV    ::
         :: SCC energy              -136.763134526449 Eh    ::
         :: -> dispersion             -0.123597021074 Eh    ::
         :: -> Gsolv                  -0.052813307700 Eh    ::
         :: repulsion energy           2.417952920533 Eh    ::

    * Orbital Energies and Occupations

         #    Occupation            Energy/Eh            Energy/eV
      -------------------------------------------------------------
         1        2.0000           -0.7285971             -19.8261
       ...           ...                  ...                  ...
       112        2.0000           -0.4150779             -11.2948
       113        2.0000           -0.4150690             -11.2946
       114        2.0000           -0.4124537             -11.2234
       115        2.0000           -0.4119324             -11.2093
       116        2.0000           -0.4070060             -11.0752
       117        2.0000           -0.4045729             -11.0090
       118        2.0000           -0.4005199             -10.8987
       119        2.0000           -0.3948043             -10.7432
       120        2.0000           -0.3899871             -10.6121
       121        2.0000           -0.3878911             -10.5551
       122        2.0000           -0.3831945             -10.4273
       123        2.0000           -0.3429630              -9.3325
       124        2.0000           -0.3413383              -9.2883 (HOMO)
       125                         -0.2653626              -7.2209 (LUMO)
       126                         -0.2558039              -6.9608
       127                         -0.2383067              -6.4847
       128                         -0.2378073              -6.4711
       129                         -0.2368904              -6.4461
       130                         -0.2348157              -6.3897
       131                         -0.2295302              -6.2458
       132                         -0.2290467              -6.2327
       133                         -0.2290276              -6.2322
       134                         -0.2224113              -6.0521
       135                         -0.2181450              -5.9360
       ...                                ...                  ...
       242                          0.7247893              19.7225
      -------------------------------------------------------------
                  HL-Gap            0.0759757 Eh            2.0674 eV

     #   Z          covCN         q      C6AA      α(0)
     1   6 C        2.919    -0.042    29.051     8.839
     2   6 C        2.919    -0.040    28.985     8.829
     3   6 C        2.924    -0.061    29.521     8.910
     4   6 C        2.922     0.044    27.022     8.525
     5   6 C        2.882     0.121    25.333     8.251
     6   6 C        2.919    -0.059    29.461     8.901
     7   8 O        1.708    -0.276    18.572     5.819
     8   6 C        2.882     0.121    25.333     8.251
     9   6 C        2.919    -0.059    29.462     8.901
    10   6 C        2.919    -0.042    29.048     8.838
    11   6 C        2.919    -0.039    28.981     8.828
    12   6 C        2.924    -0.061    29.516     8.909
    13   6 C        2.922     0.044    27.019     8.524
    14   7 N        2.751    -0.076    22.709     7.078
    15   6 C        2.923     0.063    26.594     8.457
    16   6 C        2.923    -0.043    29.076     8.843
    17   6 C        2.914    -0.033    28.820     8.803
    18   6 C        3.036     0.001    27.980     8.676
    19   6 C        3.056     0.009    27.773     8.643
    20   6 C        2.916    -0.044    29.082     8.843
    21   6 C        3.977     0.011    20.315     6.404
    22   6 C        3.055     0.005    27.861     8.656
    23   6 C        2.913    -0.034    28.843     8.807
    24   6 C        2.923    -0.032    28.790     8.799
    25   6 C        2.921    -0.032    28.801     8.801
    26   6 C        2.914    -0.034    28.839     8.806
    27   6 C        3.035     0.001    27.969     8.674
    28   6 C        3.035     0.001    27.969     8.674
    29   6 C        2.914    -0.034    28.840     8.806
    30   6 C        2.921    -0.032    28.800     8.801
    31   6 C        2.923    -0.032    28.789     8.799
    32   6 C        2.913    -0.034    28.842     8.806
    33   6 C        3.054     0.005    27.862     8.657
    34   6 C        3.057     0.009    27.773     8.643
    35   6 C        2.916    -0.044    29.084     8.843
    36   6 C        2.923     0.063    26.594     8.457
    37   7 N        2.751    -0.076    22.710     7.078
    38   6 C        2.921     0.044    27.019     8.524
    39   6 C        2.924    -0.061    29.518     8.910
    40   6 C        2.919    -0.039    28.981     8.828
    41   6 C        2.919    -0.042    29.048     8.838
    42   6 C        2.919    -0.059    29.462     8.901
    43   6 C        2.882     0.121    25.333     8.251
    44   8 O        1.708    -0.276    18.572     5.818
    45   6 C        2.882     0.121    25.333     8.251
    46   6 C        2.919    -0.059    29.461     8.901
    47   6 C        2.919    -0.042    29.050     8.838
    48   6 C        2.919    -0.040    28.985     8.829
    49   6 C        2.924    -0.061    29.518     8.910
    50   6 C        2.922     0.044    27.022     8.525
    51   6 C        2.923    -0.043    29.075     8.843
    52   6 C        2.914    -0.033    28.819     8.803
    53   6 C        3.036     0.001    27.981     8.676
    54   1 H        0.926     0.040     2.445     2.445
    55   1 H        0.926     0.040     2.446     2.446
    56   1 H        0.926     0.039     2.463     2.454
    57   1 H        0.926     0.046     2.375     2.410
    58   1 H        0.926     0.046     2.373     2.409
    59   1 H        0.926     0.040     2.443     2.444
    60   1 H        0.926     0.040     2.451     2.448
    61   1 H        0.926     0.038     2.474     2.460
    62   1 H        0.926     0.043     2.403     2.424
    63   1 H        0.926     0.047     2.358     2.401
    64   1 H        0.926     0.039     2.467     2.456
    65   1 H        0.926     0.029     2.604     2.523
    66   1 H        0.926     0.035     2.520     2.482
    67   1 H        0.926     0.035     2.520     2.482
    68   1 H        0.926     0.036     2.509     2.477
    69   1 H        0.926     0.036     2.509     2.477
    70   1 H        0.926     0.035     2.520     2.483
    71   1 H        0.926     0.035     2.520     2.482
    72   1 H        0.926     0.029     2.602     2.522
    73   1 H        0.926     0.039     2.464     2.455
    74   1 H        0.926     0.038     2.472     2.459
    75   1 H        0.926     0.040     2.451     2.448
    76   1 H        0.926     0.040     2.443     2.444
    77   1 H        0.926     0.046     2.373     2.409
    78   1 H        0.926     0.046     2.375     2.410
    79   1 H        0.926     0.040     2.444     2.445
    80   1 H        0.926     0.040     2.446     2.446
    81   1 H        0.926     0.039     2.464     2.455
    82   1 H        0.926     0.043     2.406     2.425
    83   1 H        0.926     0.047     2.358     2.401

molecular dipole:
                 x           y           z       tot (Debye)
 q only:       -0.001       0.003       0.229
   full:       -0.001       0.004       0.218       0.555

 projected vibrational frequencies (cm⁻¹)
eigval :       -0.00    -0.00    -0.00    -0.00     0.00     0.00
eigval :        9.38    12.62    16.02    21.46    22.37    25.00
eigval :       35.79    42.34    44.66    52.68    54.90    80.54
eigval :       82.52    96.71   109.95   112.24   114.93   133.61
eigval :      141.68   166.92   178.65   194.10   216.63   226.46
eigval :      229.10   238.30   249.99   252.13   263.99   272.10
eigval :      280.79   282.14   285.55   310.78   325.08   354.92
eigval :      381.10   388.01   389.80   396.62   403.42   406.65
eigval :      413.75   418.95   424.40   427.81   429.18   429.99
eigval :      438.61   447.05   455.63   480.58   487.93   491.03
eigval :      505.21   511.60   512.14   517.80   520.81   524.59
eigval :      539.22   540.09   552.00   568.89   578.92   584.44
eigval :      591.37   602.56   607.67   628.54   636.91   644.74
eigval :      645.39   660.35   660.99   661.27   661.62   670.24
eigval :      678.25   688.84   703.05   709.36   719.57   739.57
eigval :      752.70   756.89   769.38   773.59   776.34   777.95
eigval :      778.06   787.45   795.89   811.42   822.15   834.82
eigval :      851.82   852.01   860.62   861.05   861.73   862.31
eigval :      876.07   880.74   884.78   885.73   888.91   893.95
eigval :      895.30   896.21   897.64   902.55   908.69   912.27
eigval :      912.77   913.53   914.42   914.64   915.69   916.66
eigval :      918.87   919.86   920.52   928.91   929.71   990.46
eigval :      995.27  1007.34  1018.23  1072.58  1073.58  1077.70
eigval :     1088.28  1088.74  1090.43  1091.35  1104.97  1105.12
eigval :     1110.06  1114.92  1135.56  1141.97  1149.77  1158.63
eigval :     1160.86  1172.52  1173.95  1174.65  1175.68  1178.77
eigval :     1179.15  1182.25  1185.40  1195.29  1196.30  1197.83
eigval :     1206.82  1218.24  1221.24  1233.66  1237.10  1240.49
eigval :     1242.02  1249.15  1257.37  1258.65  1258.85  1273.67
eigval :     1282.62  1303.85  1304.80  1305.32  1313.95  1317.65
eigval :     1324.69  1332.76  1335.62  1350.58  1353.18  1364.44
eigval :     1370.10  1416.40  1420.60  1423.41  1426.91  1429.92
eigval :     1435.91  1438.83  1441.49  1445.75  1459.89  1466.78
eigval :     1469.76  1481.16  1481.31  1502.44  1503.42  1564.70
eigval :     1565.16  1567.43  1579.00  1579.56  1582.72  1584.03
eigval :     1586.71  1586.86  1590.42  1594.86  1597.50  1600.96
eigval :     1602.52  1603.26  1603.80  3069.88  3070.73  3073.39
eigval :     3074.20  3081.37  3082.36  3082.46  3083.38  3085.60
eigval :     3085.78  3085.92  3086.77  3088.05  3089.36  3090.06
eigval :     3091.28  3093.71  3094.30  3094.46  3095.30  3095.47
eigval :     3095.94  3102.77  3103.06  3104.53  3104.63  3107.68
eigval :     3107.91  3110.12  3110.42

   temp. (K)  partition function   enthalpy   heat capacity  entropy
                                   cal/mol     cal/K/mol   cal/K/mol   J/K/mol
 298.15  VIB  0.170E+19            23355.814    150.802    143.553
         ROT  0.474E+08              888.752      2.981     38.103
         INT  0.804E+26            24244.566    153.783    181.655
         TR   0.171E+29             1481.254      4.968     45.406
         TOT                       25725.8202   158.7511   227.0613   950.0247

       T/K    H(0)-H(T)+PV         H(T)/Eh          T*S/Eh         G(T)/Eh
   ------------------------------------------------------------------------
    298.15    0.409967E-01    0.668283E+00    0.107884E+00    0.560399E+00
   ------------------------------------------------------------------------

         :::::::::::::::::::::::::::::::::::::::::::::::::::::
         ::                  THERMODYNAMIC                  ::
         :::::::::::::::::::::::::::::::::::::::::::::::::::::
         :: total free energy        -133.784782581739 Eh   ::
         ::.................................................::
         :: total energy             -134.345181607111 Eh   ::
         :: zero point energy           0.627286493811 Eh   ::
         :: G(RRHO) w/o ZPVE           -0.066887468439 Eh   ::
         :: G(RRHO) contrib.            0.560399025372 Eh   ::
         :::::::::::::::::::::::::::::::::::::::::::::::::::::

           -------------------------------------------------
          | TOTAL ENERGY             -134.345181607111 Eh   |
          | TOTAL ENTHALPY           -133.676898409283 Eh   |
          | TOTAL FREE ENERGY        -133.784782581739 Eh   |
          | GRADIENT NORM               0.000056062600 Eh/α |
          | HOMO-LUMO GAP               2.067403791235 eV   |
           -------------------------------------------------

 * finished run on 2025/07/18 at 03:56:26.103
