   * xtb version 6.7.1 (edcfbbe) compiled by 'albert@albert-system' on 2024-07-22

   ID    Z sym.   atoms
    1    6 C      1-6, 8-13, 15-36, 38-43, 45-53
    2    8 O      7, 44
    3    7 N      14, 37
    4    1 H      54-83

          program call               : xtb data2507/toluene/SBF-PXZ/SBF-PXZ.xyz --gfn 2 --gbsa toluene --ohess vtight --parallel 40 --molden --ceasefiles --namespace data2507/toluene/SBF-PXZ/SBF-PXZ_toluene_S0_preOpt
      * Solvation model:               GBSA
        Solvent                        toluene
        Solvent mass                       9.2140E+01 g/mol
          :  Hamiltonian                  GFN2-xTB          :
 * total energy  :  -134.3279065 Eh     change       -0.8184998E-08 Eh
 * total energy  :  -134.3387486 Eh     change       -0.1084204E-01 Eh
 * total energy  :  -134.3421988 Eh     change       -0.3450208E-02 Eh
 * total energy  :  -134.3433764 Eh     change       -0.1177560E-02 Eh
 * total energy  :  -134.3442043 Eh     change       -0.8279068E-03 Eh
 * total energy  :  -134.3444769 Eh     change       -0.2725993E-03 Eh
 * total energy  :  -134.3445481 Eh     change       -0.7124714E-04 Eh
 * total energy  :  -134.3445698 Eh     change       -0.2169491E-04 Eh
 * total energy  :  -134.3445804 Eh     change       -0.1059496E-04 Eh
 * total energy  :  -134.3446013 Eh     change       -0.2088102E-04 Eh
 * total energy  :  -134.3451785 Eh     change       -0.5686630E-06 Eh
 * total energy  :  -134.3451790 Eh     change       -0.5362243E-06 Eh
 * total energy  :  -134.3451796 Eh     change       -0.5501663E-06 Eh
 * total energy  :  -134.3451801 Eh     change       -0.5528558E-06 Eh
 * total energy  :  -134.3451807 Eh     change       -0.5883548E-06 Eh
 * total energy  :  -134.3451813 Eh     change       -0.6115531E-06 Eh
 * total energy  :  -134.3451820 Eh     change       -0.6516624E-06 Eh
 * total energy  :  -134.3451826 Eh     change       -0.6701613E-06 Eh
 * total energy  :  -134.3451826 Eh     change       -0.4771977E-08 Eh
   *** GEOMETRY OPTIMIZATION CONVERGED AFTER 152 ITERATIONS ***

 final structure:
================
83
 xtb: 6.7.1 (edcfbbe)
C            7.21933825801613        3.72046326402511        0.49420656779864
C            5.85449286451223        3.84887061464399        0.65358047901099
C            5.04990273554927        2.72287853093279        0.74587661196901
C            5.60052482990263        1.44831609575914        0.69017597257052
C            6.98429092458124        1.32921941139796        0.50261424357231
C            7.78221027107037        2.45397652106634        0.41225528853388
O            7.61013414887881        0.10760772325918        0.39052901886873
C            6.81739733541362       -1.01686344117547        0.45599523185155
C            7.45294597547666       -2.23815224571876        0.33586262179115
C            6.72474485945924       -3.41765139042869        0.41276612022270
C            5.36175174391349       -3.36232775755130        0.62150488032363
C            4.71960771631912       -2.13895185875283        0.74355340274030
C            5.43083633960213       -0.94895931158366        0.65085928653410
N            4.81791648358341        0.29753360961050        0.77815817732725
C            3.42895211000580        0.39526039647943        1.03695104484240
C            2.99226933034808        0.86082893661987        2.27533073282660
C            1.64160733426349        0.96789683028394        2.55656775174306
C            0.72628088698660        0.59689211390873        1.58378960606002
C            1.17074403340793        0.12664247663517        0.33808785046684
C            2.51318884182519        0.02487404041100        0.05269847690073
C           -0.00003286600610       -0.20550779439814       -0.55453725768849
C           -0.00000309134333        0.56591381994624       -1.85488584488453
C           -0.00003317027699        1.93145387243128       -2.03801590311861
C            0.00007320200229        2.42401795745806       -3.33674001246415
C            0.00021570985951        1.56176148510365       -4.42317134640248
C            0.00024221257699        0.18750969512957       -4.24172242274222
C            0.00012986514793       -0.31132193423803       -2.94912926915381
C            0.00013131565569       -1.67700568252807       -2.44619797247533
C            0.00020880985220       -2.89449828350364       -3.10729320999834
C            0.00016316218242       -4.05885233548005       -2.35513504854719
C            0.00004712718985       -4.01140906232708       -0.96901493263423
C           -0.00002051946200       -2.79448849346205       -0.29924686668423
C            0.00001946633159       -1.63547138546495       -1.04420108446380
C           -1.17079299708726        0.12656830321902        0.33813248673992
C           -2.51324503512419        0.02469481359804        0.05280932379794
C           -3.42899029187172        0.39497942220589        1.03711802647597
N           -4.81795977637971        0.29712220487093        0.77840025238455
C           -5.60071368390851        1.44782217567495        0.69062541867381
C           -5.05022683708039        2.72244340033558        0.74632602589746
C           -5.85495862782113        3.84835106989852        0.65424011456633
C           -7.21981682466688        3.71980113694759        0.49508673566802
C           -7.78255732233729        2.45325692032582        0.41312612774889
C           -6.98449526198873        1.32858370791074        0.50326812686702
O           -7.61021745846601        0.10691101118783        0.39117669982222
C           -6.81735805189880       -1.01747898028709        0.45654331337471
C           -7.45280318082375       -2.23883285748036        0.33652166171072
C           -6.72447512867300       -3.41825895319245        0.41333861238968
C           -5.36145769989821       -3.36279697620709        0.62188201624606
C           -4.71941715326458       -2.13935517924934        0.74381598243927
C           -5.43077643888704       -0.94943401711753        0.65120951733355
C           -2.99228467221290        0.86055513212965        2.27548709617412
C           -1.64161795067162        0.96773509493923        2.55665778430445
C           -0.72630918028839        0.59682571866304        1.58382768011479
H            7.85113771927500        4.59204911931615        0.42532236530695
H            5.40040264911714        4.82672983207088        0.70439557716845
H            3.98282219640861        2.83371275788334        0.85842272338622
H            8.84359245802203        2.31851513034368        0.27405538958660
H            8.52147243182363       -2.24577007502451        0.18656677830387
H            7.23037509194322       -4.36567501821620        0.31686222735904
H            4.78278639389054       -4.27031951730362        0.69408136059502
H            3.65604735008334       -2.10858111344812        0.91902003465995
H            3.72671394850935        1.13944864369134        3.01689150603407
H            1.31243209110450        1.32849464128451        3.51892106630442
H            2.85975017202746       -0.33090657188276       -0.90631226836350
H           -0.00013394879197        2.60414237753824       -1.19242251170902
H            0.00005505206823        3.49147336539195       -3.50212976097467
H            0.00030944006824        1.96778651562406       -5.42448298577254
H            0.00035694790940       -0.47912698083527       -5.09126565892221
H            0.00029644932572       -2.93676068184697       -4.18633269944565
H            0.00021874541331       -5.01687520449549       -2.85477822017553
H            0.00001265529571       -4.93146999352439       -0.40297969588406
H           -0.00010301690056       -2.75930121938095        0.78097764694672
H           -2.85982571643164       -0.33109473146075       -0.90619137053375
H           -3.98314006176523        2.83339040054204        0.85870347742671
H           -5.40097063243302        4.82625819541664        0.70504556440328
H           -7.85172567878288        4.59132067870801        0.42636718385320
H           -8.84394639937981        2.31768452735138        0.27508744549089
H           -8.52135053826917       -2.24655660014340        0.18738093189505
H           -7.23002574978992       -4.36633405382725        0.31752177336036
H           -4.78239089780046       -4.27072991005041        0.69438503632163
H           -3.65583415865642       -2.10887618757689        0.91912450963387
H           -3.72671515116902        1.13908870493304        3.01709445332256
H           -1.31242551557759        1.32833640208155        3.51900392298728

          :  Hamiltonian                  GFN2-xTB          :
         :: gradient norm              0.000054243111 Eh/a0 ::
         :: HOMO-LUMO gap              2.039469530894 eV    ::
         :: SCC energy              -136.763438574101 Eh    ::
         :: -> dispersion             -0.123162668315 Eh    ::
         :: -> Gsolv                  -0.053214531183 Eh    ::
         :: repulsion energy           2.418255927980 Eh    ::

    * Orbital Energies and Occupations

         #    Occupation            Energy/Eh            Energy/eV
      -------------------------------------------------------------
         1        2.0000           -0.7282671             -19.8172
       ...           ...                  ...                  ...
       112        2.0000           -0.4148951             -11.2899
       113        2.0000           -0.4148941             -11.2898
       114        2.0000           -0.4122740             -11.2185
       115        2.0000           -0.4119802             -11.2106
       116        2.0000           -0.4073168             -11.0837
       117        2.0000           -0.4052698             -11.0280
       118        2.0000           -0.4008264             -10.9070
       119        2.0000           -0.3944626             -10.7339
       120        2.0000           -0.3901029             -10.6152
       121        2.0000           -0.3882237             -10.5641
       122        2.0000           -0.3834113             -10.4332
       123        2.0000           -0.3428439              -9.3293
       124        2.0000           -0.3410706              -9.2810 (HOMO)
       125                         -0.2661214              -7.2415 (LUMO)
       126                         -0.2559761              -6.9655
       127                         -0.2387098              -6.4956
       128                         -0.2376768              -6.4675
       129                         -0.2369623              -6.4481
       130                         -0.2353511              -6.4042
       131                         -0.2297200              -6.2510
       132                         -0.2289388              -6.2297
       133                         -0.2289350              -6.2296
       134                         -0.2226680              -6.0591
       135                         -0.2174247              -5.9164
       ...                                ...                  ...
       242                          0.7246120              19.7177
      -------------------------------------------------------------
                  HL-Gap            0.0749491 Eh            2.0395 eV

     #   Z          covCN         q      C6AA      α(0)
     1   6 C        2.919    -0.043    29.056     8.839
     2   6 C        2.919    -0.040    28.985     8.829
     3   6 C        2.924    -0.061    29.522     8.910
     4   6 C        2.922     0.044    27.017     8.524
     5   6 C        2.881     0.121    25.335     8.252
     6   6 C        2.919    -0.059    29.463     8.901
     7   8 O        1.708    -0.276    18.582     5.820
     8   6 C        2.881     0.121    25.337     8.252
     9   6 C        2.919    -0.059    29.464     8.901
    10   6 C        2.919    -0.042    29.055     8.839
    11   6 C        2.919    -0.040    28.982     8.828
    12   6 C        2.924    -0.061    29.521     8.910
    13   6 C        2.922     0.044    27.014     8.523
    14   7 N        2.752    -0.077    22.732     7.081
    15   6 C        2.924     0.063    26.582     8.455
    16   6 C        2.923    -0.043    29.058     8.840
    17   6 C        2.914    -0.033    28.810     8.802
    18   6 C        3.036     0.001    27.966     8.674
    19   6 C        3.056     0.009    27.764     8.641
    20   6 C        2.915    -0.043    29.066     8.841
    21   6 C        3.977     0.011    20.313     6.403
    22   6 C        3.055     0.005    27.861     8.656
    23   6 C        2.913    -0.034    28.841     8.806
    24   6 C        2.923    -0.032    28.792     8.799
    25   6 C        2.921    -0.032    28.804     8.801
    26   6 C        2.914    -0.034    28.843     8.807
    27   6 C        3.035     0.001    27.970     8.675
    28   6 C        3.035     0.001    27.965     8.674
    29   6 C        2.915    -0.034    28.835     8.806
    30   6 C        2.921    -0.032    28.795     8.800
    31   6 C        2.923    -0.032    28.786     8.798
    32   6 C        2.913    -0.034    28.841     8.806
    33   6 C        3.054     0.005    27.862     8.657
    34   6 C        3.056     0.009    27.764     8.641
    35   6 C        2.915    -0.043    29.066     8.841
    36   6 C        2.924     0.063    26.582     8.455
    37   7 N        2.752    -0.077    22.732     7.081
    38   6 C        2.922     0.044    27.017     8.524
    39   6 C        2.924    -0.061    29.522     8.910
    40   6 C        2.919    -0.040    28.985     8.829
    41   6 C        2.919    -0.043    29.056     8.839
    42   6 C        2.919    -0.059    29.463     8.901
    43   6 C        2.881     0.121    25.335     8.252
    44   8 O        1.708    -0.276    18.582     5.820
    45   6 C        2.881     0.121    25.337     8.252
    46   6 C        2.919    -0.059    29.464     8.901
    47   6 C        2.919    -0.042    29.055     8.839
    48   6 C        2.919    -0.040    28.982     8.828
    49   6 C        2.924    -0.061    29.521     8.910
    50   6 C        2.922     0.044    27.014     8.523
    51   6 C        2.923    -0.043    29.058     8.840
    52   6 C        2.914    -0.033    28.810     8.802
    53   6 C        3.036     0.001    27.966     8.674
    54   1 H        0.926     0.040     2.447     2.446
    55   1 H        0.926     0.040     2.449     2.447
    56   1 H        0.926     0.038     2.477     2.461
    57   1 H        0.926     0.045     2.378     2.412
    58   1 H        0.926     0.046     2.376     2.411
    59   1 H        0.926     0.040     2.447     2.446
    60   1 H        0.926     0.040     2.453     2.449
    61   1 H        0.926     0.037     2.483     2.464
    62   1 H        0.926     0.044     2.401     2.423
    63   1 H        0.926     0.048     2.348     2.396
    64   1 H        0.926     0.039     2.459     2.452
    65   1 H        0.926     0.029     2.595     2.519
    66   1 H        0.926     0.035     2.519     2.482
    67   1 H        0.926     0.035     2.521     2.483
    68   1 H        0.926     0.036     2.506     2.476
    69   1 H        0.926     0.036     2.508     2.477
    70   1 H        0.926     0.035     2.516     2.481
    71   1 H        0.926     0.035     2.515     2.480
    72   1 H        0.926     0.029     2.605     2.524
    73   1 H        0.926     0.039     2.459     2.452
    74   1 H        0.926     0.038     2.477     2.461
    75   1 H        0.926     0.040     2.449     2.447
    76   1 H        0.926     0.040     2.447     2.446
    77   1 H        0.926     0.045     2.378     2.412
    78   1 H        0.926     0.046     2.376     2.411
    79   1 H        0.926     0.040     2.447     2.446
    80   1 H        0.926     0.040     2.453     2.449
    81   1 H        0.926     0.037     2.483     2.464
    82   1 H        0.926     0.044     2.401     2.423
    83   1 H        0.926     0.048     2.348     2.396

molecular dipole:
                 x           y           z       tot (Debye)
 q only:        0.000       0.095       0.197
   full:        0.000       0.093       0.190       0.538

 projected vibrational frequencies (cm⁻¹)
eigval :       -0.00    -0.00    -0.00     0.00     0.00     0.00
eigval :        4.93     7.88    13.31    18.92    20.65    23.02
eigval :       37.09    41.58    43.14    50.05    51.12    77.42
eigval :       81.36    96.39   109.11   110.96   116.22   127.49
eigval :      136.86   165.04   179.16   193.33   218.44   220.05
eigval :      229.32   234.43   248.63   249.62   263.99   271.32
eigval :      278.71   280.77   283.05   310.85   324.64   354.11
eigval :      382.96   387.87   388.22   396.36   403.44   405.96
eigval :      414.18   417.34   424.85   426.89   427.65   429.69
eigval :      439.45   446.58   452.59   478.99   486.82   492.12
eigval :      505.87   509.79   510.00   514.03   519.20   521.57
eigval :      536.78   543.47   549.80   568.31   578.63   583.41
eigval :      591.30   602.33   606.83   628.93   636.93   644.57
eigval :      645.84   659.01   659.05   660.86   661.09   670.19
eigval :      677.39   688.38   702.35   709.03   719.30   739.09
eigval :      752.75   756.89   768.18   775.01   775.29   776.81
eigval :      776.91   786.07   795.71   811.44   817.89   830.54
eigval :      851.46   851.48   860.20   860.30   862.47   862.50
eigval :      875.68   878.29   882.41   882.78   885.32   894.29
eigval :      894.31   895.42   895.91   900.86   909.96   910.43
eigval :      911.23   911.36   911.81   913.29   914.32   914.71
eigval :      917.58   917.93   919.86   927.04   929.14   990.06
eigval :      995.63  1007.18  1016.82  1072.61  1073.74  1077.77
eigval :     1088.15  1088.26  1090.67  1090.93  1104.83  1104.86
eigval :     1109.22  1114.17  1135.46  1142.84  1149.91  1157.67
eigval :     1160.15  1172.52  1173.69  1173.88  1176.07  1177.95
eigval :     1178.80  1182.04  1184.97  1195.30  1195.36  1196.78
eigval :     1206.54  1217.23  1220.44  1233.34  1237.04  1241.28
eigval :     1242.13  1249.30  1259.03  1259.03  1259.42  1273.41
eigval :     1282.08  1304.36  1305.05  1305.90  1314.29  1317.41
eigval :     1324.48  1334.19  1336.84  1351.06  1353.79  1364.40
eigval :     1369.57  1416.23  1420.62  1422.76  1426.93  1429.76
eigval :     1435.87  1438.43  1440.88  1445.30  1459.86  1466.89
eigval :     1470.02  1482.07  1482.28  1503.07  1504.03  1564.74
eigval :     1565.08  1567.75  1578.79  1579.22  1582.73  1584.05
eigval :     1586.94  1587.00  1590.72  1594.75  1597.39  1600.70
eigval :     1602.25  1603.16  1603.67  3069.28  3071.13  3074.37
eigval :     3074.94  3081.40  3082.60  3083.00  3083.87  3085.61
eigval :     3085.62  3086.08  3086.09  3089.73  3090.03  3090.47
eigval :     3091.61  3094.49  3094.60  3094.62  3095.19  3095.21
eigval :     3096.83  3102.72  3102.76  3103.98  3104.03  3107.66
eigval :     3107.67  3109.34  3109.38

   temp. (K)  partition function   enthalpy   heat capacity  entropy
                                   cal/mol     cal/K/mol   cal/K/mol   J/K/mol
 298.15  VIB  0.107E+20            23449.898    150.772    145.587
         ROT  0.948E+08              888.752      2.981     39.482
         INT  0.102E+28            24338.650    153.753    185.069
         TR   0.171E+29             1481.254      4.968     45.406
         TOT                       25819.9041   158.7213   230.4754   964.3092

       T/K    H(0)-H(T)+PV         H(T)/Eh          T*S/Eh         G(T)/Eh
   ------------------------------------------------------------------------
    298.15    0.411466E-01    0.668103E+00    0.109506E+00    0.558597E+00
   ------------------------------------------------------------------------

         :::::::::::::::::::::::::::::::::::::::::::::::::::::
         ::                  THERMODYNAMIC                  ::
         :::::::::::::::::::::::::::::::::::::::::::::::::::::
         :: total free energy        -133.786585500042 Eh   ::
         ::.................................................::
         :: total energy             -134.345182646652 Eh   ::
         :: zero point energy           0.626956819724 Eh   ::
         :: G(RRHO) w/o ZPVE           -0.068359673114 Eh   ::
         :: G(RRHO) contrib.            0.558597146610 Eh   ::
         :::::::::::::::::::::::::::::::::::::::::::::::::::::

           -------------------------------------------------
          | TOTAL ENERGY             -134.345182646652 Eh   |
          | TOTAL ENTHALPY           -133.677079190728 Eh   |
          | TOTAL FREE ENERGY        -133.786585500042 Eh   |
          | GRADIENT NORM               0.000054245102 Eh/α |
          | HOMO-LUMO GAP               2.039469689627 eV   |
           -------------------------------------------------

 * finished run on 2025/07/18 at 03:52:21.713
