   * xtb version 6.7.1 (edcfbbe) compiled by 'albert@albert-system' on 2024-07-22

   ID    Z sym.   atoms
    1    6 C      1-6, 8-13, 15-36, 38-43, 45-53
    2    8 O      7, 44
    3    7 N      14, 37
    4    1 H      54-83

          program call               : xtb data2507/toluene/SBF-PXZ/SBF-PXZ_toluene_S0_finalOpt.xtbopt.xyz --gfn 2 --uhf 2 --gbsa toluene --ohess vtight --parallel 40 --molden --ceasefiles --namespace data2507/toluene/SBF-PXZ/SBF-PXZ_toluene_T1_preOpt
      * Solvation model:               GBSA
        Solvent                        toluene
        Solvent mass                       9.2140E+01 g/mol
          :  Hamiltonian                  GFN2-xTB          :
 * total energy  :  -134.2535108 Eh     change       -0.1228960E-07 Eh
 * total energy  :  -134.2570460 Eh     change       -0.3535195E-02 Eh
 * total energy  :  -134.2582307 Eh     change       -0.1184667E-02 Eh
 * total energy  :  -134.2584238 Eh     change       -0.1931937E-03 Eh
 * total energy  :  -134.2585565 Eh     change       -0.1326821E-03 Eh
 * total energy  :  -134.2585821 Eh     change       -0.2561481E-04 Eh
 * total energy  :  -134.2586007 Eh     change       -0.1854934E-04 Eh
 * total energy  :  -134.2586137 Eh     change       -0.1298826E-04 Eh
 * total energy  :  -134.2586234 Eh     change       -0.9700360E-05 Eh
 * total energy  :  -134.2586388 Eh     change       -0.1540744E-04 Eh
 * total energy  :  -134.2588293 Eh     change       -0.2455171E-05 Eh
 * total energy  :  -134.2588314 Eh     change       -0.2131970E-05 Eh
 * total energy  :  -134.2588332 Eh     change       -0.1749441E-05 Eh
 * total energy  :  -134.2588346 Eh     change       -0.1435117E-05 Eh
 * total energy  :  -134.2588359 Eh     change       -0.1236344E-05 Eh
 * total energy  :  -134.2588370 Eh     change       -0.1133574E-05 Eh
 * total energy  :  -134.2588381 Eh     change       -0.1099387E-05 Eh
 * total energy  :  -134.2588392 Eh     change       -0.1106082E-05 Eh
 * total energy  :  -134.2588392 Eh     change       -0.6123514E-08 Eh
   *** GEOMETRY OPTIMIZATION CONVERGED AFTER 68 ITERATIONS ***

 final structure:
================
83
 xtb: 6.7.1 (edcfbbe)
C            7.34829272784072        3.16299801622444        2.01001258979932
C            5.98200986782687        3.26557696490437        2.21439995187406
C            5.13358413310257        2.24958592147688        1.81517791280342
C            5.63610004254445        1.09571150767148        1.21147417577755
C            7.01941423380094        1.02301537569002        0.97141236769280
C            7.86339827881788        2.04384313668153        1.37529725849631
O            7.59021013681768       -0.03347560190547        0.31416815067983
C            6.76330468391583       -1.03976424455528       -0.10713766214001
C            7.35475051690595       -2.10198677315180       -0.77088719036946
C            6.58597001895840       -3.17535825621437       -1.19161006381861
C            5.22777697567863       -3.19104517974480       -0.92153769502262
C            4.63119504082813       -2.13544394382626       -0.25663142565807
C            5.37936957453150       -1.02590300440939        0.13902334232612
N            4.81061988465083        0.05369672930481        0.80656877513063
C            3.43103695014457        0.08037362363236        1.08244867544320
C            2.98058535874775        0.14715393441132        2.41886660574756
C            1.64844233740084        0.13565940437571        2.72195324522540
C            0.69588596986421        0.07504170780165        1.67279611226736
C            1.16995676152540        0.01761269907299        0.31923885564608
C            2.49586781843980        0.01291786291054        0.02264696029747
C           -0.00111707886191       -0.04862485722916       -0.63453615914186
C           -0.03300675881452        1.06139916822101       -1.65707912696059
C           -0.09096305284248        2.42112489798831       -1.44217330992655
C           -0.13302093401501        3.26668444985453       -2.54350898570756
C           -0.11740717472750        2.75371736111218       -3.83263799895065
C           -0.05783486375735        1.38717260224818       -4.05413787348979
C           -0.01537341167833        0.53734397121255       -2.95943627232167
C            0.04158878982546       -0.91240600591688       -2.87094339211608
C            0.09692376317865       -1.88880189376509       -3.85382256608102
C            0.14640941866214       -3.21859035912661       -3.46751496912178
C            0.13974080265027       -3.57187622758759       -2.12569702212925
C            0.08577911001389       -2.59888849517046       -1.13566948458142
C            0.03829164082965       -1.27510877163122       -1.51482587607295
C           -1.17471580808453       -0.00733865713439        0.31693290575597
C           -2.50009602285104       -0.01629150878626        0.01697086668990
C           -3.43748652185255        0.02681776486876        1.07557050459728
N           -4.81710851418355        0.04391398854647        0.79708566353456
C           -5.37903227022247        1.07476825047601        0.05141574432383
C           -4.61910500475195        2.13239790856250       -0.44909008028843
C           -5.21064974506707        3.14294939327381       -1.18501691871296
C           -6.57446766236046        3.13296857067386       -1.42470482499915
C           -7.35325992139670        2.11170630059320       -0.90458995192778
C           -6.76701917702605        1.09396209569963       -0.17006229676776
O           -7.60292112600924        0.13973966482705        0.34482625375190
C           -7.03726633903390       -0.87364051949845        1.07107698539089
C           -7.88870668155227       -1.84625537369196        1.56729292895563
C           -7.37824593239244       -2.92309088804031        2.27503747700116
C           -6.01007817977787       -3.03197707435684        2.46365908103003
C           -5.15435916590217       -2.06263562420306        1.97453689401571
C           -5.65115416946273       -0.95042670757096        1.29296541579356
C           -2.99106707244228        0.07869800208392        2.41387473782420
C           -1.65964105221105        0.10814601149575        2.71874540599085
C           -0.70449244811264        0.06279586269524        1.67130969532530
H            8.01104670117212        3.95340092408393        2.32460728341064
H            5.56802981339727        4.14555563538294        2.68204754568134
H            4.06934891731079        2.34566973030690        1.95786971369579
H            8.91844811546143        1.94356709627858        1.17536171427140
H            8.41951961628672       -2.06928392902502       -0.93932774443584
H            7.05206455125768       -3.99741402106591       -1.71124442051258
H            4.62246739007324       -4.03224430176507       -1.22207753841843
H            3.57785049308828       -2.16872100039346       -0.03185540742241
H            3.71894119437883        0.17180755745553        3.20865872691793
H            1.31726812476208        0.15919800393038        3.74933557263340
H            2.84638617139307       -0.01354590936201       -0.99975066900772
H           -0.10489149845722        2.81988423405077       -0.43743930893226
H           -0.17857924891702        4.33594337218433       -2.39443233443964
H           -0.15253395328107        3.43037989702632       -4.67471591245918
H           -0.04716120386556        0.99355242801201       -5.06017803624357
H            0.10270666614125       -1.61992459163062       -4.90018511265106
H            0.19067589645174       -3.99227926999704       -4.22097869525447
H            0.17665828585725       -4.61550272683629       -1.84777181170917
H            0.08223450841966       -2.87263799885718       -0.08984301763034
H           -2.84858721183418       -0.08275764344860       -1.00429612101465
H           -3.56072125769529        2.16222063931409       -0.24875263602862
H           -4.59679212679986        3.94465171512359       -1.56553095711539
H           -7.03672956940463        3.92060928137600       -1.99828783923592
H           -8.42171434363259        2.08649577043114       -1.04935737848801
H           -8.94587026338275       -1.74426260368284        1.37966529622318
H           -8.04682671566968       -3.67611912479644        2.66082042957007
H           -5.60082308980516       -3.88070421242957        2.98955145912832
H           -4.08914944139545       -2.16265364815723        2.10778452134910
H           -3.73199964503902        0.13201825428552        3.19990241914568
H           -1.33092167703484        0.17758931892833        3.74482537993952

          :  Hamiltonian                  GFN2-xTB          :
         :: gradient norm              0.000064646546 Eh/a0 ::
         :: HOMO-LUMO gap              0.173139229472 eV    ::
         :: SCC energy              -136.659297099506 Eh    ::
         :: -> dispersion             -0.124141522841 Eh    ::
         :: -> Gsolv                  -0.052009463677 Eh    ::
         :: repulsion energy           2.400457891707 Eh    ::

    * Orbital Energies and Occupations

         #    Occupation            Energy/Eh            Energy/eV
      -------------------------------------------------------------
         1        2.0000           -0.7430767             -20.2201
       ...           ...                  ...                  ...
       113        2.0000           -0.4124779             -11.2241
       114        2.0000           -0.4075076             -11.0888
       115        2.0000           -0.4057034             -11.0398
       116        2.0000           -0.3986119             -10.8468
       117        2.0000           -0.3975472             -10.8178
       118        2.0000           -0.3952528             -10.7554
       119        2.0000           -0.3897548             -10.6058
       120        2.0000           -0.3889777             -10.5846
       121        2.0000           -0.3769411             -10.2571
       122        2.0000           -0.3676911             -10.0054
       123        1.9782           -0.3501614              -9.5284
       124        1.0218           -0.3429371              -9.3318
       125        0.9530           -0.2548881              -6.9359 (HOMO)
       126        0.0244           -0.2485252              -6.7627 (LUMO)
       127        0.0117           -0.2478149              -6.7434
       128        0.0108           -0.2477357              -6.7412
       129        0.0000           -0.2368938              -6.4462
       130        0.0000           -0.2368490              -6.4450
       131                         -0.2240381              -6.0964
       132                         -0.2219862              -6.0406
       133                         -0.2210607              -6.0154
       134                         -0.2187130              -5.9515
       135                         -0.2132552              -5.8030
       136                         -0.2070165              -5.6332
       ...                                ...                  ...
       242                          0.7463924              20.3104
      -------------------------------------------------------------
                  HL-Gap            0.0063629 Eh            0.1731 eV

     #   Z          covCN         q      C6AA      α(0)
     1   6 C        2.919    -0.036    28.885     8.813
     2   6 C        2.918    -0.035    28.862     8.810
     3   6 C        2.922    -0.053    29.317     8.879
     4   6 C        2.925     0.044    27.020     8.524
     5   6 C        2.885     0.126    25.229     8.235
     6   6 C        2.917    -0.056    29.392     8.890
     7   8 O        1.709    -0.246    18.081     5.741
     8   6 C        2.885     0.126    25.226     8.234
     9   6 C        2.917    -0.056    29.397     8.891
    10   6 C        2.919    -0.035    28.871     8.811
    11   6 C        2.918    -0.034    28.856     8.809
    12   6 C        2.922    -0.053    29.310     8.878
    13   6 C        2.925     0.044    27.005     8.522
    14   7 N        2.750    -0.032    21.853     6.943
    15   6 C        2.923     0.021    27.530     8.604
    16   6 C        2.913    -0.046    29.154     8.854
    17   6 C        2.907    -0.050    29.240     8.867
    18   6 C        3.028    -0.020    28.468     8.752
    19   6 C        3.050    -0.006    28.116     8.696
    20   6 C        2.908    -0.051    29.261     8.870
    21   6 C        3.970     0.009    20.349     6.409
    22   6 C        3.056     0.003    27.916     8.665
    23   6 C        2.913    -0.035    28.875     8.812
    24   6 C        2.922    -0.035    28.877     8.812
    25   6 C        2.920    -0.035    28.877     8.812
    26   6 C        2.914    -0.037    28.916     8.818
    27   6 C        3.035    -0.003    28.062     8.689
    28   6 C        3.035    -0.003    28.062     8.689
    29   6 C        2.914    -0.037    28.916     8.818
    30   6 C        2.920    -0.035    28.877     8.812
    31   6 C        2.922    -0.035    28.877     8.812
    32   6 C        2.913    -0.035    28.876     8.812
    33   6 C        3.056     0.003    27.913     8.664
    34   6 C        3.050    -0.006    28.118     8.697
    35   6 C        2.908    -0.051    29.261     8.870
    36   6 C        2.923     0.021    27.528     8.604
    37   7 N        2.750    -0.032    21.865     6.945
    38   6 C        2.925     0.045    26.998     8.521
    39   6 C        2.922    -0.053    29.313     8.879
    40   6 C        2.918    -0.034    28.856     8.809
    41   6 C        2.919    -0.035    28.869     8.811
    42   6 C        2.917    -0.056    29.396     8.891
    43   6 C        2.885     0.126    25.226     8.234
    44   8 O        1.709    -0.247    18.085     5.742
    45   6 C        2.884     0.126    25.232     8.235
    46   6 C        2.917    -0.056    29.392     8.890
    47   6 C        2.919    -0.036    28.889     8.814
    48   6 C        2.918    -0.035    28.862     8.810
    49   6 C        2.922    -0.053    29.314     8.879
    50   6 C        2.925     0.044    27.020     8.524
    51   6 C        2.914    -0.046    29.152     8.854
    52   6 C        2.907    -0.050    29.238     8.866
    53   6 C        3.028    -0.020    28.468     8.752
    54   1 H        0.926     0.050     2.318     2.381
    55   1 H        0.926     0.049     2.337     2.391
    56   1 H        0.926     0.052     2.300     2.372
    57   1 H        0.926     0.055     2.254     2.348
    58   1 H        0.926     0.056     2.249     2.345
    59   1 H        0.926     0.050     2.315     2.379
    60   1 H        0.926     0.048     2.345     2.395
    61   1 H        0.926     0.051     2.308     2.376
    62   1 H        0.925     0.023     2.681     2.561
    63   1 H        0.926     0.022     2.708     2.573
    64   1 H        0.926     0.018     2.769     2.602
    65   1 H        0.926     0.024     2.675     2.558
    66   1 H        0.926     0.029     2.599     2.521
    67   1 H        0.926     0.029     2.599     2.521
    68   1 H        0.926     0.029     2.603     2.523
    69   1 H        0.926     0.029     2.602     2.523
    70   1 H        0.926     0.029     2.598     2.521
    71   1 H        0.926     0.029     2.599     2.521
    72   1 H        0.926     0.024     2.674     2.557
    73   1 H        0.926     0.018     2.767     2.601
    74   1 H        0.926     0.051     2.307     2.375
    75   1 H        0.926     0.048     2.344     2.394
    76   1 H        0.926     0.050     2.314     2.379
    77   1 H        0.926     0.056     2.249     2.345
    78   1 H        0.926     0.055     2.255     2.348
    79   1 H        0.926     0.050     2.319     2.382
    80   1 H        0.926     0.049     2.338     2.391
    81   1 H        0.926     0.051     2.306     2.375
    82   1 H        0.925     0.023     2.689     2.564
    83   1 H        0.926     0.022     2.709     2.574

molecular dipole:
                 x           y           z       tot (Debye)
 q only:        0.016       0.020       0.092
   full:        0.015       0.017       0.059       0.160

 projected vibrational frequencies (cm⁻¹)
eigval :       -0.00    -0.00     0.00     0.00     0.00     0.00
eigval :        7.70    12.78    14.75    18.48    24.50    25.14
eigval :       38.93    40.46    52.87    60.22    64.63    79.10
eigval :       81.94    96.90   108.16   112.62   119.07   134.91
eigval :      141.59   167.73   178.25   196.72   222.11   231.44
eigval :      235.05   235.83   245.20   250.68   264.69   269.38
eigval :      275.78   279.15   286.34   308.19   328.87   345.60
eigval :      365.78   387.59   388.19   388.90   394.44   398.68
eigval :      411.11   414.06   424.69   426.25   433.85   434.36
eigval :      448.89   457.07   459.23   466.02   470.41   487.62
eigval :      501.08   502.04   503.06   508.56   520.00   530.03
eigval :      531.56   537.98   548.89   559.83   563.59   579.84
eigval :      589.55   592.98   600.59   602.79   610.39   627.27
eigval :      641.03   656.26   662.28   663.35   666.89   666.93
eigval :      669.38   670.42   672.98   698.52   710.01   728.12
eigval :      743.72   753.89   765.78   773.22   773.67   775.87
eigval :      776.85   784.32   786.02   789.34   793.46   804.83
eigval :      852.15   852.39   854.17   857.09   864.27   864.50
eigval :      869.34   872.92   876.99   877.32   880.37   888.62
eigval :      893.33   894.60   896.38   898.79   900.02   901.82
eigval :      903.68   908.51   908.75   909.05   910.69   914.80
eigval :      915.16   915.63   917.52   925.18   926.06   960.96
eigval :      964.05   999.64  1006.47  1060.04  1071.57  1076.23
eigval :     1081.25  1082.28  1082.86  1084.73  1105.84  1107.49
eigval :     1109.85  1110.00  1121.97  1131.66  1140.86  1147.99
eigval :     1157.43  1160.77  1168.99  1169.72  1170.80  1175.41
eigval :     1176.45  1178.10  1181.02  1191.67  1198.59  1204.81
eigval :     1205.00  1206.75  1213.44  1228.37  1230.55  1235.20
eigval :     1237.80  1247.12  1249.86  1250.95  1259.83  1278.03
eigval :     1283.00  1292.39  1296.11  1300.58  1303.31  1316.17
eigval :     1316.75  1326.87  1330.29  1334.41  1337.62  1346.00
eigval :     1363.81  1372.39  1376.71  1407.73  1408.24  1408.83
eigval :     1424.08  1425.74  1426.86  1436.84  1438.93  1440.24
eigval :     1440.84  1444.56  1460.24  1461.81  1475.69  1482.22
eigval :     1496.05  1520.69  1528.31  1530.46  1537.04  1540.86
eigval :     1542.03  1555.58  1564.53  1570.40  1573.95  1576.54
eigval :     1589.66  1599.95  1605.80  3061.31  3061.87  3064.12
eigval :     3064.65  3067.51  3068.12  3068.78  3069.86  3074.82
eigval :     3075.87  3079.13  3081.47  3083.58  3085.11  3090.84
eigval :     3091.22  3091.60  3091.85  3099.15  3099.24  3100.26
eigval :     3100.48  3109.42  3109.72  3109.91  3110.11  3112.84
eigval :     3113.27  3116.83  3117.35

   temp. (K)  partition function   enthalpy   heat capacity  entropy
                                   cal/mol     cal/K/mol   cal/K/mol   J/K/mol
 298.15  VIB  0.169E+19            23508.769    152.776    144.512
         ROT  0.948E+08              888.752      2.981     39.481
         INT  0.161E+27            24397.522    155.757    183.994
         TR   0.171E+29             1481.254      4.968     45.406
         TOT                       25878.7756   160.7254   229.3995   959.8074

       T/K    H(0)-H(T)+PV         H(T)/Eh          T*S/Eh         G(T)/Eh
   ------------------------------------------------------------------------
    298.15    0.412405E-01    0.664100E+00    0.108995E+00    0.555105E+00
   ------------------------------------------------------------------------

         :::::::::::::::::::::::::::::::::::::::::::::::::::::
         ::                  THERMODYNAMIC                  ::
         :::::::::::::::::::::::::::::::::::::::::::::::::::::
         :: total free energy        -133.703733956674 Eh   ::
         ::.................................................::
         :: total energy             -134.258839209051 Eh   ::
         :: zero point energy           0.622859894987 Eh   ::
         :: G(RRHO) w/o ZPVE           -0.067754642609 Eh   ::
         :: G(RRHO) contrib.            0.555105252377 Eh   ::
         :::::::::::::::::::::::::::::::::::::::::::::::::::::

           -------------------------------------------------
          | TOTAL ENERGY             -134.258839209051 Eh   |
          | TOTAL ENTHALPY           -133.594738860001 Eh   |
          | TOTAL FREE ENERGY        -133.703733956674 Eh   |
          | GRADIENT NORM               0.000064743337 Eh/α |
          | HOMO-LUMO GAP               0.173143184013 eV   |
           -------------------------------------------------

 * finished run on 2025/07/18 at 03:56:37.351
