   * xtb version 6.7.1 (edcfbbe) compiled by 'albert@albert-system' on 2024-07-22

   ID    Z sym.   atoms
    1    6 C      1-6, 8-13, 15-36, 38-43, 45-53
    2    8 O      7, 44
    3    7 N      14, 37
    4    1 H      54-83

          program call               : xtb data2507/toluene/SBF-PXZ/SBF-PXZ_toluene_T1_crest.xyz --gfn 2 --uhf 2 --gbsa toluene --ohess vtight --parallel 40 --molden --ceasefiles --namespace data2507/toluene/SBF-PXZ/SBF-PXZ_toluene_T1_finalOpt
      * Solvation model:               GBSA
        Solvent                        toluene
        Solvent mass                       9.2140E+01 g/mol
          :  Hamiltonian                  GFN2-xTB          :
 * total energy  :  -134.2589037 Eh     change       -0.1293517E-07 Eh
 * total energy  :  -134.2589438 Eh     change       -0.4010398E-04 Eh
 * total energy  :  -134.2589609 Eh     change       -0.1711092E-04 Eh
 * total energy  :  -134.2589674 Eh     change       -0.6531792E-05 Eh
 * total energy  :  -134.2589736 Eh     change       -0.6238384E-05 Eh
 * total energy  :  -134.2589787 Eh     change       -0.5083982E-05 Eh
 * total energy  :  -134.2589846 Eh     change       -0.5920018E-05 Eh
 * total energy  :  -134.2589928 Eh     change       -0.8104597E-05 Eh
 * total energy  :  -134.2590021 Eh     change       -0.9349879E-05 Eh
 * total energy  :  -134.2590096 Eh     change       -0.7457314E-05 Eh
 * total energy  :  -134.2590784 Eh     change       -0.3981145E-06 Eh
 * total energy  :  -134.2590788 Eh     change       -0.4567849E-06 Eh
 * total energy  :  -134.2590795 Eh     change       -0.6871674E-06 Eh
 * total energy  :  -134.2590805 Eh     change       -0.1014232E-05 Eh
 * total energy  :  -134.2590816 Eh     change       -0.1094959E-05 Eh
 * total energy  :  -134.2590825 Eh     change       -0.8711049E-06 Eh
 * total energy  :  -134.2590832 Eh     change       -0.6900899E-06 Eh
 * total energy  :  -134.2590837 Eh     change       -0.5293107E-06 Eh
 * total energy  :  -134.2590837 Eh     change       -0.2381313E-08 Eh
   *** GEOMETRY OPTIMIZATION CONVERGED AFTER 44 ITERATIONS ***

 final structure:
================
83
 xtb: 6.7.1 (edcfbbe)
C            6.50101323385250        3.19217790722110        1.29749793453297
C            5.13930975120704        3.00205313495434        1.46146644399590
C            4.57027435065000        1.76255293015416        1.23232930943332
C            5.35086406396806        0.68413508071203        0.81430340708434
C            6.73720574352201        0.88036940534057        0.69032932016852
C            7.30084414615611        2.12392863777400        0.92437949232536
O            7.59359104824210       -0.13730430584163        0.36597564529231
C            7.05028617796782       -1.37063837671849        0.12517183279213
C            7.92356031416938       -2.38744431822207       -0.22238543473341
C            7.43773910025408       -3.65076864271258       -0.52073278388176
C            6.07229397245648       -3.88273459473888       -0.49406795773790
C            5.19482132856230       -2.87309535725427       -0.14497771902736
C            5.66635904644230       -1.60554993305868        0.20085058163192
N            4.81074059452440       -0.57487683817821        0.57138239949692
C            3.43251319263539       -0.80773499809485        0.72672598134408
C            2.98168243798427       -1.76796822519549        1.65864831721142
C            1.64951229976867       -1.99137337976061        1.86244807318301
C            0.69742274310964       -1.25304022817069        1.11413631655316
C            1.17194159923498       -0.29309080855575        0.15854806971691
C            2.49749901486356       -0.06442458613489       -0.03227740683838
C            0.00142795863566        0.37798587784517       -0.52343100356010
C            0.00953174962214        1.87963175536317       -0.36454615452144
C            0.01756525517176        2.61518663599329        0.80054521112886
C            0.02766053989526        4.00137001951702        0.71095087633254
C            0.02959778058600        4.63170411636821       -0.52513892516680
C            0.02161578240714        3.89630100054097       -1.69963747504197
C            0.01168860011989        2.51226725939712       -1.61750221265565
C            0.00364133815891        1.48763548588547       -2.64857992200367
C            0.00087409980790        1.58209795514842       -4.03185554549926
C           -0.00701332623160        0.41421270912717       -4.77752486535197
C           -0.01206240484236       -0.82699042225890       -4.15743391390837
C           -0.00959117546172       -0.92910879939458       -2.77194891116277
C           -0.00161625000052        0.22913767126879       -2.02588952964227
C           -1.17252993153066       -0.28576812955224        0.15977292879619
C           -2.49703845267660       -0.05169335975652       -0.03216929560305
C           -3.43569290088154       -0.79219679699265        0.72503510471685
N           -4.81322151142298       -0.55706438460307        0.56631734879127
C           -5.35312227744685        0.70179288812884        0.81035462219203
C           -4.57241910337632        1.77960331930285        1.22959037803135
C           -5.14143591424564        3.01877134883381        1.46072835634989
C           -6.50320746410652        3.20906419901659        1.29763367886123
C           -7.30307235574445        2.14145286698465        0.92280790391729
C           -6.73943058787651        0.89832516624374        0.68647007923600
O           -7.59588121776746       -0.11862532299318        0.36002068193955
C           -7.05256519853478       -1.35134592738029        0.11610829877353
C           -7.92567237307227       -2.36705346940173       -0.23501614493251
C           -7.43981022282545       -3.62971453037539       -0.53609181142864
C           -6.07444438496187       -3.86206082459339       -0.50844302598005
C           -5.19714967335231       -2.85349886892894       -0.15587235917097
C           -5.66874959442554       -1.58666149908759        0.19249661330519
C           -2.98959187520759       -1.75457807766480        1.65701606154060
C           -1.65855661124343       -1.98337526016650        1.86208210058979
C           -0.70285212512049       -1.24899127642993        1.11454576485151
H            6.94560416571638        4.15876823387356        1.47362511866858
H            4.50915456718250        3.81961614710750        1.77588171495208
H            3.51316148770735        1.62069680423339        1.38564466970335
H            8.36869471317635        2.22896174229986        0.81533422935264
H            8.97811791321943       -2.16466765875931       -0.26066662621829
H            8.12310122603200       -4.43955404468828       -0.78723974246520
H            5.68204636291574       -4.85491809271838       -0.75278807078001
H            4.13219585988221       -3.05500654870305       -0.14602367817168
H            3.71969579960527       -2.30303744256779        2.24052766206873
H            1.31711239160501       -2.70791171849619        2.59857453151828
H            2.84888589974326        0.64757332813915       -0.76602788741693
H            0.01634725953599        2.12230988749687        1.76284734429456
H            0.03417021435733        4.59494236080466        1.61390062448770
H            0.03759458874773        5.71151017727195       -0.57119596735077
H            0.02344165187328        4.39291756676678       -2.65907454985370
H            0.00467863244459        2.54598073886772       -4.51992203514314
H           -0.00923263436577        0.46929665989703       -5.85700123946158
H           -0.01810796030795       -1.72458429824810       -4.75907145655971
H           -0.01379677557225       -1.89580186360046       -2.28853090205956
H           -2.84493552177547        0.66191876756103       -0.76599001304753
H           -3.51528506770550        1.63744619503652        1.38248589800075
H           -4.51124744899889        3.83593191469986        1.77612648679418
H           -6.94782735755487        4.17528838788986        1.47569391625414
H           -8.37095408445387        2.24660293933926        0.81417402341842
H           -8.98015244144356       -2.14398883951129       -0.27374469541947
H           -8.12504673462758       -4.41766030964128       -0.80538447906418
H           -5.68412970362225       -4.83370129647944       -0.76908708812905
H           -4.13457048827244       -3.03569525824233       -0.15600899953198
H           -3.73040468998372       -2.28729710895004        2.23750130174190
H           -1.32972370108140       -2.70184582347989        2.59792545216336

          :  Hamiltonian                  GFN2-xTB          :
         :: gradient norm              0.000041501796 Eh/a0 ::
         :: HOMO-LUMO gap              0.170254858543 eV    ::
         :: SCC energy              -136.659635901339 Eh    ::
         :: -> dispersion             -0.124157335656 Eh    ::
         :: -> Gsolv                  -0.051962105993 Eh    ::
         :: repulsion energy           2.400552201555 Eh    ::

    * Orbital Energies and Occupations

         #    Occupation            Energy/Eh            Energy/eV
      -------------------------------------------------------------
         1        2.0000           -0.7428863             -20.2150
       ...           ...                  ...                  ...
       113        2.0000           -0.4127995             -11.2328
       114        2.0000           -0.4071466             -11.0790
       115        2.0000           -0.4059572             -11.0467
       116        2.0000           -0.3991864             -10.8624
       117        2.0000           -0.3968681             -10.7993
       118        2.0000           -0.3953672             -10.7585
       119        2.0000           -0.3895014             -10.5989
       120        2.0000           -0.3893388             -10.5944
       121        2.0000           -0.3770499             -10.2601
       122        2.0000           -0.3677723             -10.0076
       123        1.9866           -0.3505574              -9.5392
       124        1.0134           -0.3423896              -9.3169
       125        0.9530           -0.2549160              -6.9366 (HOMO)
       126        0.0272           -0.2486591              -6.7664 (LUMO)
       127        0.0100           -0.2476906              -6.7400
       128        0.0098           -0.2476695              -6.7394
       129        0.0000           -0.2368172              -6.4441
       130        0.0000           -0.2368070              -6.4438
       131                         -0.2241059              -6.0982
       132                         -0.2215563              -6.0289
       133                         -0.2215182              -6.0278
       134                         -0.2187691              -5.9530
       135                         -0.2132827              -5.8037
       136                         -0.2070201              -5.6333
       ...                                ...                  ...
       242                          0.7467090              20.3190
      -------------------------------------------------------------
                  HL-Gap            0.0062569 Eh            0.1703 eV

     #   Z          covCN         q      C6AA      α(0)
     1   6 C        2.919    -0.035    28.870     8.811
     2   6 C        2.918    -0.034    28.858     8.809
     3   6 C        2.922    -0.053    29.314     8.879
     4   6 C        2.924     0.044    27.006     8.522
     5   6 C        2.885     0.127    25.225     8.234
     6   6 C        2.917    -0.056    29.398     8.891
     7   8 O        1.709    -0.247    18.088     5.742
     8   6 C        2.884     0.126    25.231     8.235
     9   6 C        2.917    -0.056    29.394     8.891
    10   6 C        2.919    -0.036    28.889     8.814
    11   6 C        2.918    -0.035    28.864     8.810
    12   6 C        2.922    -0.053    29.316     8.879
    13   6 C        2.925     0.043    27.026     8.525
    14   7 N        2.750    -0.032    21.855     6.943
    15   6 C        2.923     0.021    27.528     8.604
    16   6 C        2.914    -0.046    29.153     8.854
    17   6 C        2.907    -0.050    29.238     8.866
    18   6 C        3.028    -0.020    28.468     8.752
    19   6 C        3.051    -0.006    28.115     8.696
    20   6 C        2.908    -0.051    29.263     8.870
    21   6 C        3.970     0.009    20.347     6.409
    22   6 C        3.057     0.002    27.915     8.665
    23   6 C        2.913    -0.035    28.877     8.812
    24   6 C        2.922    -0.035    28.876     8.812
    25   6 C        2.920    -0.035    28.867     8.811
    26   6 C        2.914    -0.037    28.909     8.817
    27   6 C        3.035    -0.003    28.054     8.688
    28   6 C        3.036    -0.003    28.067     8.690
    29   6 C        2.914    -0.037    28.921     8.819
    30   6 C        2.920    -0.035    28.881     8.813
    31   6 C        2.922    -0.035    28.877     8.812
    32   6 C        2.913    -0.035    28.872     8.811
    33   6 C        3.055     0.003    27.914     8.665
    34   6 C        3.051    -0.006    28.115     8.696
    35   6 C        2.908    -0.051    29.263     8.870
    36   6 C        2.923     0.021    27.528     8.604
    37   7 N        2.750    -0.032    21.856     6.943
    38   6 C        2.924     0.044    27.005     8.522
    39   6 C        2.922    -0.053    29.314     8.879
    40   6 C        2.918    -0.034    28.858     8.809
    41   6 C        2.919    -0.035    28.870     8.811
    42   6 C        2.917    -0.056    29.398     8.891
    43   6 C        2.885     0.127    25.225     8.234
    44   8 O        1.709    -0.247    18.089     5.742
    45   6 C        2.884     0.126    25.231     8.235
    46   6 C        2.917    -0.056    29.394     8.891
    47   6 C        2.919    -0.036    28.889     8.814
    48   6 C        2.918    -0.035    28.864     8.810
    49   6 C        2.922    -0.053    29.316     8.879
    50   6 C        2.925     0.043    27.026     8.525
    51   6 C        2.914    -0.046    29.153     8.854
    52   6 C        2.907    -0.050    29.238     8.866
    53   6 C        3.028    -0.020    28.468     8.752
    54   1 H        0.926     0.050     2.315     2.379
    55   1 H        0.926     0.048     2.344     2.394
    56   1 H        0.926     0.051     2.305     2.374
    57   1 H        0.926     0.056     2.250     2.346
    58   1 H        0.926     0.055     2.256     2.349
    59   1 H        0.926     0.050     2.320     2.382
    60   1 H        0.926     0.048     2.339     2.392
    61   1 H        0.926     0.051     2.302     2.373
    62   1 H        0.925     0.023     2.682     2.561
    63   1 H        0.926     0.022     2.707     2.573
    64   1 H        0.926     0.018     2.764     2.600
    65   1 H        0.926     0.024     2.681     2.560
    66   1 H        0.926     0.030     2.591     2.517
    67   1 H        0.926     0.030     2.589     2.516
    68   1 H        0.926     0.029     2.601     2.522
    69   1 H        0.926     0.029     2.600     2.522
    70   1 H        0.926     0.029     2.605     2.524
    71   1 H        0.926     0.029     2.606     2.524
    72   1 H        0.926     0.025     2.665     2.553
    73   1 H        0.926     0.018     2.763     2.599
    74   1 H        0.926     0.051     2.305     2.374
    75   1 H        0.926     0.048     2.344     2.394
    76   1 H        0.926     0.050     2.315     2.379
    77   1 H        0.926     0.056     2.250     2.346
    78   1 H        0.926     0.055     2.256     2.349
    79   1 H        0.926     0.050     2.320     2.382
    80   1 H        0.926     0.048     2.339     2.392
    81   1 H        0.926     0.051     2.303     2.373
    82   1 H        0.925     0.023     2.683     2.561
    83   1 H        0.926     0.022     2.707     2.573

molecular dipole:
                 x           y           z       tot (Debye)
 q only:        0.002      -0.010       0.101
   full:        0.002       0.014       0.077       0.199

 projected vibrational frequencies (cm⁻¹)
eigval :       -0.00    -0.00     0.00     0.00     0.00     0.00
eigval :        7.78     8.70    15.18    17.47    20.99    23.99
eigval :       36.19    40.83    52.31    61.43    64.92    78.12
eigval :       80.03    97.16   106.09   111.19   121.48   132.28
eigval :      139.99   166.90   179.08   196.39   226.87   230.48
eigval :      232.85   235.52   245.60   249.66   265.27   271.25
eigval :      273.97   275.78   287.58   308.24   329.59   344.78
eigval :      366.32   382.76   387.44   389.99   394.72   398.83
eigval :      410.09   414.16   425.05   425.90   433.63   434.65
eigval :      448.31   456.80   461.03   461.32   474.61   487.93
eigval :      501.20   501.56   503.26   504.90   521.33   528.70
eigval :      534.63   538.76   545.43   559.44   562.93   579.20
eigval :      589.35   595.15   600.59   602.24   609.38   627.10
eigval :      641.19   656.51   663.18   664.52   668.34   668.64
eigval :      670.13   670.40   672.73   697.44   710.76   726.53
eigval :      743.76   753.96   765.77   771.82   773.13   775.96
eigval :      776.15   783.48   785.02   787.37   793.40   804.96
eigval :      851.69   852.12   853.40   854.27   863.95   864.75
eigval :      869.70   873.35   876.52   877.67   880.38   889.55
eigval :      892.54   892.77   895.92   897.92   899.26   900.83
eigval :      903.15   908.11   908.56   908.84   910.36   913.10
eigval :      913.67   919.49   919.64   924.04   924.98   960.85
eigval :      964.04   999.58  1006.34  1059.90  1072.07  1076.66
eigval :     1082.40  1083.49  1083.69  1085.52  1106.03  1108.75
eigval :     1109.85  1109.96  1122.03  1133.38  1140.74  1148.80
eigval :     1158.54  1161.79  1169.69  1170.80  1170.82  1176.08
eigval :     1178.09  1179.44  1181.99  1192.86  1198.11  1205.44
eigval :     1205.65  1206.89  1213.36  1228.91  1230.74  1235.13
eigval :     1237.69  1247.30  1250.97  1251.35  1260.17  1278.30
eigval :     1283.69  1292.63  1297.50  1301.15  1304.85  1316.01
eigval :     1316.55  1326.48  1330.71  1333.80  1337.91  1345.73
eigval :     1363.98  1372.52  1377.00  1408.09  1408.43  1409.04
eigval :     1424.55  1425.98  1430.44  1437.49  1439.66  1440.77
eigval :     1441.70  1448.96  1460.26  1461.81  1476.44  1482.70
eigval :     1496.79  1522.70  1529.36  1529.93  1537.33  1541.26
eigval :     1541.97  1555.56  1565.02  1571.45  1574.57  1576.40
eigval :     1589.53  1599.67  1606.02  3062.12  3062.73  3064.06
eigval :     3064.81  3068.12  3068.94  3069.41  3069.99  3075.33
eigval :     3076.50  3079.08  3081.16  3084.01  3085.69  3090.62
eigval :     3090.68  3091.77  3091.84  3099.61  3099.66  3100.04
eigval :     3100.15  3109.50  3109.50  3109.71  3109.88  3112.71
eigval :     3112.79  3117.59  3117.75

   temp. (K)  partition function   enthalpy   heat capacity  entropy
                                   cal/mol     cal/K/mol   cal/K/mol   J/K/mol
 298.15  VIB  0.339E+19            23537.963    152.699    145.185
         ROT  0.947E+08              888.752      2.981     39.479
         INT  0.321E+27            24426.716    155.680    184.663
         TR   0.171E+29             1481.254      4.968     45.406
         TOT                       25907.9695   160.6483   230.0694   962.6103

       T/K    H(0)-H(T)+PV         H(T)/Eh          T*S/Eh         G(T)/Eh
   ------------------------------------------------------------------------
    298.15    0.412870E-01    0.664172E+00    0.109313E+00    0.554858E+00
   ------------------------------------------------------------------------

         :::::::::::::::::::::::::::::::::::::::::::::::::::::
         ::                  THERMODYNAMIC                  ::
         :::::::::::::::::::::::::::::::::::::::::::::::::::::
         :: total free energy        -133.704225581860 Eh   ::
         ::.................................................::
         :: total energy             -134.259083700427 Eh   ::
         :: zero point energy           0.622884530835 Eh   ::
         :: G(RRHO) w/o ZPVE           -0.068026412268 Eh   ::
         :: G(RRHO) contrib.            0.554858118567 Eh   ::
         :::::::::::::::::::::::::::::::::::::::::::::::::::::

           -------------------------------------------------
          | TOTAL ENERGY             -134.259083700427 Eh   |
          | TOTAL ENTHALPY           -133.594912192092 Eh   |
          | TOTAL FREE ENERGY        -133.704225581860 Eh   |
          | GRADIENT NORM               0.000041472432 Eh/α |
          | HOMO-LUMO GAP               0.170258220250 eV   |
           -------------------------------------------------

 * finished run on 2025/07/18 at 04:02:11.337
