   * xtb version 6.7.1 (edcfbbe) compiled by 'albert@albert-system' on 2024-07-22

   ID    Z sym.   atoms
    1    6 C      1-7, 9-22, 24-36, 38-51
    2    7 N      8, 23, 37
    3    1 H      52-88

          program call               : xtb data2507/gas/DFPBI/DFPBI_gas_S0_crest.xyz --gfn 2 --ohess vtight --parallel 40 --molden --ceasefiles --namespace data2507/gas/DFPBI/DFPBI_gas_S0_finalOpt
          :  Hamiltonian                  GFN2-xTB          :
 * total energy  :  -130.4755510 Eh     change       -0.3164757E-08 Eh
 * total energy  :  -130.4755521 Eh     change       -0.1172166E-05 Eh
 * total energy  :  -130.4755537 Eh     change       -0.1550073E-05 Eh
 * total energy  :  -130.4755556 Eh     change       -0.1950172E-05 Eh
 * total energy  :  -130.4755564 Eh     change       -0.7515447E-06 Eh
 * total energy  :  -130.4755571 Eh     change       -0.6591243E-06 Eh
 * total energy  :  -130.4755579 Eh     change       -0.8511918E-06 Eh
 * total energy  :  -130.4755588 Eh     change       -0.8568804E-06 Eh
 * total energy  :  -130.4755596 Eh     change       -0.7912168E-06 Eh
 * total energy  :  -130.4755603 Eh     change       -0.7719466E-06 Eh
 * total energy  :  -130.4755630 Eh     change       -0.5622198E-06 Eh
 * total energy  :  -130.4755635 Eh     change       -0.4505125E-06 Eh
 * total energy  :  -130.4755637 Eh     change       -0.2894658E-06 Eh
 * total energy  :  -130.4755640 Eh     change       -0.2227841E-06 Eh
 * total energy  :  -130.4755642 Eh     change       -0.2484716E-06 Eh
 * total energy  :  -130.4755646 Eh     change       -0.3512392E-06 Eh
 * total energy  :  -130.4755650 Eh     change       -0.4245940E-06 Eh
 * total energy  :  -130.4755654 Eh     change       -0.4483087E-06 Eh
 * total energy  :  -130.4755654 Eh     change       -0.3014662E-08 Eh
   *** GEOMETRY OPTIMIZATION CONVERGED AFTER 22 ITERATIONS ***

 final structure:
================
88
 xtb: 6.7.1 (edcfbbe)
C            1.58037561309767        0.65025433486204        2.28837057625179
C            1.59266540962443        0.60990112511985        0.75812123332844
C            1.49589158856642        2.02684844735464        0.18299980857244
C            0.48312130161681       -0.26522240480963        0.22075019816113
C           -0.87321513039253       -0.10313042951768        0.36531190364876
C           -1.73422123422609       -1.01527077288768       -0.25324877908598
C           -3.17707562661450       -0.87343738467583       -0.17685613992808
N           -4.01543854606246       -1.87711264116597       -0.11955045806782
C           -5.26739361738283       -1.35065820658156       -0.02492961699085
C           -6.43436584900215       -2.21865211072477        0.01804052806853
C           -7.68075741909241       -1.80541637486363       -0.44845188224486
C           -8.76343689278148       -2.66263055687856       -0.39267291677356
C           -8.61883870792622       -3.94173954715953        0.11914025590148
C           -7.37801324805184       -4.36644781145567        0.56594203094588
C           -6.29268060859356       -3.51395155287503        0.51404398855633
C           -5.18551329468829        0.03248059189527       -0.01798483417340
C           -6.21188305671182        1.06035033681402        0.08627194674408
C           -7.18381114091932        0.97224995247698        1.08274035265220
C           -8.15660522335909        1.94606262852249        1.19677988254755
C           -8.17266321375888        3.02207713384686        0.32347251279348
C           -7.21347489623480        3.11503536497530       -0.67072103581774
C           -6.23850948227484        2.14254347701854       -0.79173623212337
N           -3.84331840922017        0.32634201152717       -0.12765197696447
C           -3.28476283036999        1.61361162704267       -0.20531642373508
C           -2.44513244276970        1.93799108150864       -1.26650135132635
C           -1.88172984413009        3.19806274080154       -1.33377543644170
C           -2.16026063479086        4.14027633113741       -0.35674011170954
C           -3.00567057662518        3.81957358429810        0.69217546989847
C           -3.56799198440112        2.55877000352065        0.77444075489582
C           -1.20880105534200       -2.10326546889615       -0.95354040721116
C            0.15563674212215       -2.27555331762186       -1.08606772165224
C            1.00601728201442       -1.34233027822751       -0.51183108825327
C            2.45276868317858       -1.24273958552701       -0.50302660186053
C            3.42949444911415       -2.04214056800180       -1.07628746499962
C            4.75777629695152       -1.69613392975448       -0.91932888550238
C            5.12556831685453       -0.56581901077612       -0.18538420146115
N            6.47437705755009       -0.22635576771006       -0.04108421199533
C            6.85901193302785        1.11862729504312       -0.03805152789243
C            7.89472835673899        1.55698654922980        0.78718510988734
C            8.27186257888765        2.88572230356415        0.78538799841882
C            7.62140995243864        3.79967733402423       -0.02740275711456
C            6.58950656502788        3.37064450186858       -0.84616925326941
C            6.21108475524784        2.04252153203417       -0.85858386721802
C            7.44036768165942       -1.23017022762208        0.09422692121079
C            8.69176047815642       -1.09356900607073       -0.50614343425469
C            9.64263421152342       -2.08552703287688       -0.36615746768397
C            9.36218465791788       -3.22912421680641        0.36359097102137
C            8.11917748942458       -3.37161595867979        0.95835507371558
C            7.16453577569498       -2.38165883785328        0.83128878502967
C            4.13826384234015        0.23290439904395        0.40220257738763
C            2.81770774105433       -0.10490265838631        0.23417827001447
H            2.42560081149755        1.22619893760198        2.65802236968639
H            0.66198925178138        1.11043837038562        2.64561282669304
H            1.64330620220290       -0.35850551296792        2.69083548622636
H            0.57106409829000        2.50296613550278        0.50211847569872
H            2.33607330857076        2.62962330447006        0.52026324777339
H            1.50767409110069        1.99087356869354       -0.90441306710637
H           -1.26742067727667        0.70813461845988        0.95899742412624
H           -7.79852565473556       -0.81675560292614       -0.86685765193515
H           -9.72602621874043       -2.33209913695596       -0.75620513076971
H           -9.46896598029608       -4.60705616699231        0.16222847509318
H           -7.25851088992286       -5.36696693908441        0.95640212429066
H           -5.31865642104700       -3.83113053760943        0.85317971037279
H           -7.16617858123515        0.13362981419525        1.76345924264784
H           -8.90393658805336        1.86824947510744        1.97278523720146
H           -8.93260262784979        3.78374936514129        0.41593266953134
H           -7.22536839799812        3.94785906109457       -1.35869905119682
H           -5.50271520367257        2.21370929892340       -1.58011962906521
H           -2.23559620950006        1.19806414761893       -2.02464806571701
H           -1.22581549058090        3.44645174015955       -2.15449835765234
H           -1.71875959406811        5.12376328137182       -0.41359853753365
H           -3.22570250411859        4.55170876872927        1.45461526779018
H           -4.21999809433678        2.29944998321422        1.59527509078365
H           -1.89992679377934       -2.80466832264515       -1.39452130946299
H            0.55019478096021       -3.11775278191658       -1.63456523599469
H            3.16138299293736       -2.91673696963035       -1.64964890646589
H            5.53011092107053       -2.29960353704635       -1.37333262871317
H            8.39701400913329        0.84894634192162        1.43005514070315
H            9.07439701325026        3.21141886394037        1.43086030303318
H            7.91664647815391        4.83794905653837       -0.02318382379118
H            6.08023815716905        4.07456970598490       -1.48819041816920
H            5.41325020275139        1.70921519630678       -1.50611317035062
H            8.90936898654534       -0.20733453665985       -1.08429487519472
H           10.60703209501682       -1.96815995114241       -0.83830889966242
H           10.10674732402868       -4.00365167642355        0.46774520503990
H            7.89326116756559       -4.25750784855405        1.53357986295198
H            6.19909033267518       -2.49064217138688        1.30341713827186
H            4.42640590360283        1.10027539374688        0.97806157637283

          :  Hamiltonian                  GFN2-xTB          :
         :: gradient norm              0.000039778468 Eh/a0 ::
         :: HOMO-LUMO gap              2.343148661759 eV    ::
         :: SCC energy              -132.912347942967 Eh    ::
         :: -> dispersion             -0.125254738369 Eh    ::
         :: repulsion energy           2.436782502516 Eh    ::

    * Orbital Energies and Occupations

         #    Occupation            Energy/Eh            Energy/eV
      -------------------------------------------------------------
         1        2.0000           -0.6818947             -18.5553
       ...           ...                  ...                  ...
       110        2.0000           -0.4076056             -11.0915
       111        2.0000           -0.4068246             -11.0703
       112        2.0000           -0.4061462             -11.0518
       113        2.0000           -0.4046858             -11.0121
       114        2.0000           -0.4041589             -10.9977
       115        2.0000           -0.4010933             -10.9143
       116        2.0000           -0.3964752             -10.7886
       117        2.0000           -0.3944419             -10.7333
       118        2.0000           -0.3919306             -10.6650
       119        2.0000           -0.3832683             -10.4293
       120        2.0000           -0.3701508             -10.0723
       121        2.0000           -0.3577255              -9.7342
       122        2.0000           -0.3454086              -9.3990 (HOMO)
       123                         -0.2592994              -7.0559 (LUMO)
       124                         -0.2447854              -6.6609
       125                         -0.2398163              -6.5257
       126                         -0.2378416              -6.4720
       127                         -0.2301836              -6.2636
       128                         -0.2266129              -6.1665
       129                         -0.2249033              -6.1199
       130                         -0.2215270              -6.0281
       131                         -0.2206374              -6.0039
       132                         -0.2194134              -5.9705
       133                         -0.2161681              -5.8822
       ...                                ...                  ...
       241                          0.7354950              20.0138
      -------------------------------------------------------------
                  HL-Gap            0.0861091 Eh            2.3431 eV

     #   Z          covCN         q      C6AA      α(0)
     1   6 C        3.758    -0.098    22.424     6.751
     2   6 C        3.936     0.019    20.195     6.386
     3   6 C        3.759    -0.097    22.397     6.747
     4   6 C        3.057    -0.003    28.049     8.685
     5   6 C        2.918    -0.040    28.984     8.828
     6   6 C        2.976    -0.003    28.094     8.694
     7   6 C        3.158     0.122    25.045     8.182
     8   7 N        1.912    -0.291    28.377     7.898
     9   6 C        3.167     0.052    26.501     8.412
    10   6 C        2.974     0.011    27.777     8.645
    11   6 C        2.923    -0.037    28.925     8.820
    12   6 C        2.919    -0.031    28.764     8.795
    13   6 C        2.920    -0.033    28.812     8.802
    14   6 C        2.918    -0.030    28.748     8.792
    15   6 C        2.927    -0.030    28.752     8.794
    16   6 C        3.067     0.013    27.662     8.624
    17   6 C        2.972     0.009    27.814     8.651
    18   6 C        2.925    -0.033    28.811     8.802
    19   6 C        2.919    -0.028    28.710     8.787
    20   6 C        2.920    -0.031    28.781     8.797
    21   6 C        2.919    -0.030    28.738     8.791
    22   6 C        2.924    -0.034    28.849     8.808
    23   7 N        2.851    -0.039    21.990     6.965
    24   6 C        2.914     0.069    26.457     8.434
    25   6 C        2.922    -0.037    28.927     8.820
    26   6 C        2.920    -0.026    28.655     8.778
    27   6 C        2.920    -0.032    28.787     8.798
    28   6 C        2.920    -0.027    28.687     8.783
    29   6 C        2.921    -0.038    28.951     8.824
    30   6 C        2.928    -0.033    28.821     8.804
    31   6 C        2.913    -0.035    28.861     8.809
    32   6 C        3.036     0.000    27.988     8.677
    33   6 C        3.037    -0.008    28.189     8.708
    34   6 C        2.913    -0.034    28.856     8.809
    35   6 C        2.923    -0.052    29.290     8.875
    36   6 C        2.926     0.061    26.623     8.462
    37   7 N        2.753    -0.074    22.677     7.073
    38   6 C        2.924     0.065    26.535     8.448
    39   6 C        2.922    -0.048    29.190     8.860
    40   6 C        2.919    -0.029    28.736     8.791
    41   6 C        2.919    -0.039    28.971     8.826
    42   6 C        2.919    -0.030    28.746     8.792
    43   6 C        2.922    -0.048    29.189     8.860
    44   6 C        2.924     0.065    26.543     8.449
    45   6 C        2.922    -0.048    29.181     8.859
    46   6 C        2.920    -0.029    28.733     8.790
    47   6 C        2.919    -0.038    28.953     8.824
    48   6 C        2.920    -0.029    28.730     8.790
    49   6 C        2.922    -0.047    29.174     8.858
    50   6 C        2.918    -0.052    29.303     8.877
    51   6 C        3.055    -0.001    28.004     8.679
    52   1 H        0.925     0.040     2.442     2.444
    53   1 H        0.925     0.039     2.457     2.451
    54   1 H        0.925     0.037     2.483     2.464
    55   1 H        0.925     0.037     2.484     2.465
    56   1 H        0.925     0.041     2.433     2.439
    57   1 H        0.925     0.034     2.528     2.486
    58   1 H        0.926     0.023     2.692     2.566
    59   1 H        0.926     0.025     2.663     2.552
    60   1 H        0.926     0.025     2.653     2.547
    61   1 H        0.926     0.026     2.642     2.542
    62   1 H        0.926     0.028     2.611     2.527
    63   1 H        0.926     0.049     2.330     2.387
    64   1 H        0.926     0.033     2.539     2.492
    65   1 H        0.926     0.032     2.563     2.504
    66   1 H        0.926     0.030     2.584     2.514
    67   1 H        0.926     0.029     2.603     2.523
    68   1 H        0.926     0.024     2.673     2.557
    69   1 H        0.926     0.040     2.449     2.447
    70   1 H        0.926     0.039     2.464     2.455
    71   1 H        0.926     0.038     2.482     2.464
    72   1 H        0.926     0.038     2.475     2.460
    73   1 H        0.926     0.039     2.459     2.452
    74   1 H        0.926     0.050     2.320     2.382
    75   1 H        0.926     0.034     2.527     2.486
    76   1 H        0.926     0.033     2.538     2.491
    77   1 H        0.926     0.032     2.561     2.502
    78   1 H        0.926     0.031     2.566     2.505
    79   1 H        0.926     0.031     2.573     2.509
    80   1 H        0.926     0.029     2.596     2.520
    81   1 H        0.926     0.030     2.584     2.514
    82   1 H        0.926     0.032     2.562     2.503
    83   1 H        0.926     0.031     2.568     2.506
    84   1 H        0.926     0.031     2.569     2.507
    85   1 H        0.926     0.030     2.585     2.514
    86   1 H        0.926     0.032     2.563     2.503
    87   1 H        0.926     0.032     2.554     2.499
    88   1 H        0.926     0.030     2.587     2.515

molecular dipole:
                 x           y           z       tot (Debye)
 q only:        0.696       1.091       0.138
   full:        0.612       1.545       0.122       4.237

 projected vibrational frequencies (cm⁻¹)
eigval :       -0.00    -0.00     0.00     0.00     0.00     0.00
eigval :        9.89    11.14    18.03    25.89    29.92    31.65
eigval :       32.76    39.64    45.29    55.47    55.77    60.22
eigval :       66.52    70.52    77.86    83.34    92.93   108.71
eigval :      122.31   127.44   131.22   134.38   154.60   163.43
eigval :      189.20   197.76   221.05   227.01   227.63   234.27
eigval :      236.56   245.10   257.35   259.93   269.08   277.61
eigval :      290.75   307.99   317.04   331.71   344.14   356.27
eigval :      367.17   371.23   376.51   378.20   379.99   384.34
eigval :      386.42   408.17   433.00   444.07   463.41   469.60
eigval :      475.06   483.77   491.50   493.85   515.52   528.10
eigval :      536.78   563.28   573.62   575.02   580.80   586.99
eigval :      588.27   588.85   590.21   595.51   622.59   625.19
eigval :      632.02   643.67   655.78   660.92   663.52   664.39
eigval :      672.80   677.25   684.15   689.13   693.38   705.44
eigval :      723.32   728.99   739.41   757.11   758.44   760.67
eigval :      764.02   772.60   802.07   825.38   836.36   854.67
eigval :      874.53   874.98   876.13   878.02   878.58   884.52
eigval :      890.44   891.96   893.75   899.99   901.71   902.62
eigval :      910.28   913.15   915.92   927.52   927.84   928.86
eigval :      929.09   929.60   929.77   930.00   931.39   931.67
eigval :      932.11   942.81   947.35   962.80   966.99   972.06
eigval :      977.60   985.93  1004.18  1010.21  1014.32  1015.61
eigval :     1032.00  1069.68  1079.93  1081.95  1083.21  1083.91
eigval :     1084.27  1107.37  1114.88  1117.76  1119.02  1121.76
eigval :     1122.02  1124.40  1148.60  1158.82  1165.52  1176.30
eigval :     1180.55  1180.74  1180.84  1181.88  1182.02  1184.40
eigval :     1191.28  1195.71  1195.76  1201.63  1203.19  1213.01
eigval :     1228.04  1234.00  1251.99  1253.29  1270.90  1275.84
eigval :     1278.34  1280.06  1282.96  1283.66  1293.00  1315.54
eigval :     1317.11  1317.61  1319.44  1321.88  1324.73  1327.56
eigval :     1330.70  1334.02  1361.18  1375.32  1396.14  1399.76
eigval :     1412.00  1425.37  1430.34  1432.90  1434.88  1437.18
eigval :     1438.35  1444.21  1447.87  1455.66  1467.27  1473.17
eigval :     1477.16  1481.43  1487.64  1489.62  1489.96  1498.02
eigval :     1502.49  1541.98  1558.67  1567.98  1576.11  1578.40
eigval :     1580.89  1581.90  1583.97  1584.39  1594.65  1595.02
eigval :     1595.75  1597.74  1600.12  1600.19  1610.57  3025.88
eigval :     3028.25  3031.21  3033.82  3036.34  3038.79  3067.72
eigval :     3071.98  3072.51  3074.73  3075.66  3075.68  3076.46
eigval :     3077.01  3080.21  3081.21  3081.93  3082.01  3083.54
eigval :     3083.87  3084.13  3084.98  3085.81  3086.66  3087.70
eigval :     3088.74  3089.53  3090.91  3091.34  3092.55  3094.38
eigval :     3096.10  3096.83  3097.53  3101.35  3103.24  3105.02

   temp. (K)  partition function   enthalpy   heat capacity  entropy
                                   cal/mol     cal/K/mol   cal/K/mol   J/K/mol
 298.15  VIB  0.832E+20            24999.797    155.273    156.923
         ROT  0.112E+09              888.752      2.981     39.810
         INT  0.931E+28            25888.549    158.254    196.733
         TR   0.162E+29             1481.254      4.968     45.303
         TOT                       27369.8031   163.2218   242.0365  1012.6806

       T/K    H(0)-H(T)+PV         H(T)/Eh          T*S/Eh         G(T)/Eh
   ------------------------------------------------------------------------
    298.15    0.436166E-01    0.738118E+00    0.114999E+00    0.623119E+00
   ------------------------------------------------------------------------

         :::::::::::::::::::::::::::::::::::::::::::::::::::::
         ::                  THERMODYNAMIC                  ::
         :::::::::::::::::::::::::::::::::::::::::::::::::::::
         :: total free energy        -129.852446334247 Eh   ::
         ::.................................................::
         :: total energy             -130.475565440449 Eh   ::
         :: zero point energy           0.694501890518 Eh   ::
         :: G(RRHO) w/o ZPVE           -0.071382784316 Eh   ::
         :: G(RRHO) contrib.            0.623119106202 Eh   ::
         :::::::::::::::::::::::::::::::::::::::::::::::::::::

           -------------------------------------------------
          | TOTAL ENERGY             -130.475565440449 Eh   |
          | TOTAL ENTHALPY           -129.737446992414 Eh   |
          | TOTAL FREE ENERGY        -129.852446334247 Eh   |
          | GRADIENT NORM               0.000039775587 Eh/α |
          | HOMO-LUMO GAP               2.343149206391 eV   |
           -------------------------------------------------

 * finished run on 2025/09/05 at 09:33:54.555
