   * xtb version 6.7.1 (edcfbbe) compiled by 'albert@albert-system' on 2024-07-22

   ID    Z sym.   atoms
    1    6 C      1-7, 9-22, 24-36, 38-51
    2    7 N      8, 23, 37
    3    1 H      52-88

          program call               : xtb data2507/gas/DFPBI/DFPBI_gas_T1_crest.xyz --gfn 2 --spinpol --tblite --uhf 2 --ohess vtight --parallel 40 --molden --ceasefiles --namespace data2507/gas/DFPBI/DFPBI_gas_T1_finalOpt
 * total energy  :  -130.3958755 Eh     change       -0.2984345E-07 Eh
 * total energy  :  -130.3958836 Eh     change       -0.8181404E-05 Eh
 * total energy  :  -130.3958872 Eh     change       -0.3569830E-05 Eh
 * total energy  :  -130.3958887 Eh     change       -0.1495542E-05 Eh
 * total energy  :  -130.3958910 Eh     change       -0.2242194E-05 Eh
 * total energy  :  -130.3958928 Eh     change       -0.1824713E-05 Eh
 * total energy  :  -130.3958948 Eh     change       -0.2011270E-05 Eh
 * total energy  :  -130.3958966 Eh     change       -0.1820731E-05 Eh
 * total energy  :  -130.3958981 Eh     change       -0.1492111E-05 Eh
 * total energy  :  -130.3958992 Eh     change       -0.1143324E-05 Eh
 * total energy  :  -130.3959030 Eh     change       -0.1072990E-05 Eh
 * total energy  :  -130.3959038 Eh     change       -0.7773854E-06 Eh
 * total energy  :  -130.3959042 Eh     change       -0.3846349E-06 Eh
 * total energy  :  -130.3959046 Eh     change       -0.4280551E-06 Eh
 * total energy  :  -130.3959049 Eh     change       -0.2673328E-06 Eh
 * total energy  :  -130.3959050 Eh     change       -0.1192973E-06 Eh
 * total energy  :  -130.3959052 Eh     change       -0.1575808E-06 Eh
 * total energy  :  -130.3959054 Eh     change       -0.2185386E-06 Eh
 * total energy  :  -130.3959054 Eh     change       -0.4426963E-07 Eh
   *** GEOMETRY OPTIMIZATION CONVERGED AFTER 22 ITERATIONS ***

 final structure:
================
88
 xtb: 6.7.1 (edcfbbe)
C            1.63832661450080        1.15169957653139        2.02417930670633
C            1.65615541192859        0.83882263193643        0.52491729042448
C            1.59326768824808        2.13543792047076       -0.28957090768435
C            0.52730393560397       -0.09391126995024        0.14269194205554
C           -0.80519190760343        0.12276279316384        0.23484726554253
C           -1.71751727406303       -0.88874554359517       -0.20560434939885
C           -3.11220239995499       -0.75395659863446       -0.20544442435601
N           -3.94025503533631       -1.80620795877809       -0.30492173076555
C           -5.18550584741505       -1.35925805489307       -0.15356714920411
C           -6.31866083340086       -2.26613494440029       -0.24802221101876
C           -7.54523593107161       -1.86571248050879       -0.77686593190303
C           -8.59063493174865       -2.76514852583264       -0.86394844392758
C           -8.42875255955060       -4.07176825335309       -0.43227296301729
C           -7.20613915505830       -4.48262384612658        0.07486222189372
C           -6.15667971924782       -3.58951068608664        0.16246206760474
C           -5.18428108757390        0.04168608681895        0.03355397148408
C           -6.28851928265770        0.94704289918438        0.23876731940199
C           -7.32351669222083        0.58864563423737        1.11327718647112
C           -8.38928838407914        1.43751654168968        1.32329375400560
C           -8.45262648062638        2.65913925742552        0.66812264292333
C           -7.43958905312987        3.02031304808903       -0.20700687052520
C           -6.36678654093210        2.17954587390124       -0.42153368197212
N           -3.86085521265421        0.41847410985485       -0.02976275710516
C           -3.39093221588220        1.73554402323586        0.00789061059558
C           -2.57183395391076        2.21118345552398       -1.01784209906295
C           -2.11331659047253        3.51289950756076       -0.98339220761311
C           -2.47096202141773        4.35412928156738        0.05976368264263
C           -3.29196801592703        3.88496975216094        1.07359235435133
C           -3.75368413479276        2.58322967906960        1.05356524631965
C           -1.17525740948198       -2.14267497736303       -0.64608998531234
C            0.16152359321477       -2.35556037678960       -0.74097766856710
C            1.05786080883508       -1.32225772595721       -0.37002316735004
C            2.46169208960591       -1.25243808452052       -0.36495007776661
C            3.44663917374202       -2.17820733596334       -0.76397785699262
C            4.76934813419973       -1.84167901068193       -0.65139229061581
C            5.16550434928520       -0.58783046640860       -0.14734083911467
N            6.51583151698145       -0.26240998992445       -0.05457714361238
C            6.93559034130348        1.04891380154434       -0.29326434548151
C            7.97774816640852        1.60656808952954        0.45005847806479
C            8.38390899118059        2.90433215528214        0.21157291011162
C            7.75887845136939        3.66891830529256       -0.76107859623006
C            6.72180191662445        3.12109958847289       -1.49986619681142
C            6.31158013435438        1.82252466913209       -1.27437432000913
C            7.45334829361689       -1.24503581961186        0.27587623871594
C            8.71572085613726       -1.24952531298485       -0.32042651232469
C            9.63567250867713       -2.22460343235385        0.00959554494807
C            9.31502018308460       -3.21046872221176        0.92959962903971
C            8.06191780569763       -3.21215473745949        1.52208636562180
C            7.13605849427613       -2.23907339358599        1.20348299049078
C            4.18469964461007        0.34406325733832        0.25688730503520
C            2.86769892487934        0.01550294406172        0.14952791473510
H            2.49344269406570        1.76790731633431        2.29325105963550
H            0.72734234166245        1.68556783744550        2.28511640379384
H            1.67777934927678        0.22972835851304        2.60038220853309
H            0.67802098887550        2.67803919571454       -0.06234667783155
H            2.44532055423857        2.77101636871545       -0.05799305267683
H            1.60654333592385        1.90947224484349       -1.35387757122497
H           -1.18081107560443        1.03185473347904        0.67553862174057
H           -7.67328828742167       -0.85544163172502       -1.13588726292319
H           -9.53706341222015       -2.44596139948752       -1.27615112409032
H           -9.25086530713739       -4.76940435177793       -0.49892279314433
H           -7.07323416509878       -5.50371682680457        0.40209968183114
H           -5.19689232666245       -3.89393945510702        0.55033263392283
H           -7.26920575772056       -0.35661111872898        1.63313328125512
H           -9.17525467028256        1.15000472688320        2.00639092096356
H           -9.28748240247396        3.32287121320444        0.83595859169679
H           -7.48903536320802        3.96434780322692       -0.73011692697694
H           -5.59817593752244        2.46106293126108       -1.12614445222156
H           -2.29964909138531        1.55014026732533       -1.82724848720783
H           -1.47841502924656        3.87588293111824       -1.77814569201811
H           -2.11110797547330        5.37162618789739        0.08184152323631
H           -3.57017475068869        4.53603046314359        1.88897526428893
H           -4.38522196385975        2.21153887705965        1.84662212475848
H           -1.88674232476715       -2.90319759244207       -0.92581829034182
H            0.54982148577529       -3.29839183649156       -1.09677562533378
H            3.15705176059185       -3.13580106685563       -1.16858947272512
H            5.53445059783507       -2.53394915193195       -0.97282508997438
H            8.45676217067664        1.01716265297257        1.21814677793546
H            9.18902240527143        3.32543182566899        0.79539402561648
H            8.07787586477312        4.68394839438156       -0.94205775850248
H            6.23386711438442        3.70780015770054       -2.26414873107023
H            5.51263520440168        1.39162880704832       -1.85949512117670
H            8.96223463176564       -0.48976571257646       -1.04764829117290
H           10.60762541295980       -2.22011570599618       -0.46119845892557
H           10.03656148329481       -3.97205062091148        1.18281623925303
H            7.80654837532877       -3.97322472603713        2.24442320681352
H            6.16399758200600       -2.23264382687843        1.67409860513704
H            4.49706011620985        1.29621959931629        0.66114469408656

 projected vibrational frequencies (cm⁻¹)
eigval :       -0.00    -0.00    -0.00    -0.00    -0.00     0.00
eigval :       10.16    11.36    18.93    26.28    29.76    31.41
eigval :       34.46    39.65    44.67    57.01    57.69    60.17
eigval :       64.73    72.32    80.50    86.36    96.17   110.37
eigval :      117.15   130.84   134.11   143.97   156.78   159.82
eigval :      186.41   197.55   220.88   225.06   228.08   233.16
eigval :      234.25   240.42   246.29   255.90   263.78   271.20
eigval :      289.87   306.60   316.60   326.80   336.63   342.38
eigval :      358.35   367.74   372.07   377.73   378.17   383.14
eigval :      384.27   399.50   417.45   436.16   444.59   460.04
eigval :      466.45   477.73   483.90   497.73   505.44   527.67
eigval :      535.23   548.36   559.00   566.75   571.86   584.89
eigval :      585.45   586.78   588.63   589.16   610.11   613.15
eigval :      621.39   627.84   639.63   655.35   658.91   659.16
eigval :      660.12   672.51   674.22   677.30   677.98   697.17
eigval :      698.88   722.05   729.47   752.19   755.75   756.33
eigval :      761.84   766.93   795.33   804.83   810.99   844.20
eigval :      854.73   869.54   870.31   872.58   873.20   875.01
eigval :      877.00   890.61   891.93   893.64   894.16   903.20
eigval :      904.70   907.96   909.00   924.81   926.65   926.73
eigval :      926.92   927.30   927.96   928.03   928.28   929.14
eigval :      930.74   931.50   936.54   940.95   960.79   965.29
eigval :      967.73   971.52   991.14   996.75  1002.87  1011.56
eigval :     1013.07  1052.58  1072.42  1078.65  1080.81  1081.28
eigval :     1082.21  1082.55  1090.28  1116.38  1118.51  1121.70
eigval :     1122.67  1123.91  1132.23  1140.92  1152.24  1173.23
eigval :     1173.88  1179.59  1179.81  1179.91  1180.60  1181.14
eigval :     1183.14  1192.42  1194.01  1199.01  1202.58  1205.06
eigval :     1211.49  1222.15  1236.11  1249.19  1255.07  1271.22
eigval :     1275.86  1277.27  1279.64  1281.91  1282.80  1295.14
eigval :     1305.12  1312.40  1318.81  1320.50  1321.01  1322.24
eigval :     1328.24  1335.74  1345.97  1357.41  1366.55  1389.35
eigval :     1394.91  1404.82  1411.06  1422.39  1429.29  1431.98
eigval :     1433.09  1437.36  1438.22  1442.71  1459.36  1463.36
eigval :     1465.31  1470.30  1472.25  1480.36  1487.46  1490.62
eigval :     1497.64  1499.50  1501.83  1516.10  1538.44  1550.33
eigval :     1558.07  1565.88  1571.05  1576.50  1577.40  1581.46
eigval :     1583.10  1590.22  1591.18  1594.85  1614.81  3023.93
eigval :     3025.35  3027.77  3031.80  3034.21  3036.64  3070.56
eigval :     3072.96  3074.93  3075.01  3075.61  3075.76  3077.80
eigval :     3077.85  3078.59  3078.70  3079.57  3080.25  3080.90
eigval :     3085.20  3086.11  3087.73  3088.89  3088.91  3090.25
eigval :     3091.59  3092.05  3093.08  3093.09  3093.81  3094.70
eigval :     3099.01  3099.31  3099.94  3103.22  3108.33  3110.17

   temp. (K)  partition function   enthalpy   heat capacity  entropy
                                   cal/mol     cal/K/mol   cal/K/mol   J/K/mol
 298.15  VIB  0.802E+20            25229.007    157.083    157.907
         ROT  0.114E+09              888.752      2.981     39.846
         INT  0.913E+28            26117.760    160.064    197.753
         TR   0.162E+29             1481.254      4.968     45.303
         TOT                       27599.0134   165.0318   243.0570  1016.9505

       T/K    H(0)-H(T)+PV         H(T)/Eh          T*S/Eh         G(T)/Eh
   ------------------------------------------------------------------------
    298.15    0.439818E-01    0.734745E+00    0.115484E+00    0.619261E+00
   ------------------------------------------------------------------------

         :::::::::::::::::::::::::::::::::::::::::::::::::::::
         ::                  THERMODYNAMIC                  ::
         :::::::::::::::::::::::::::::::::::::::::::::::::::::
         :: total free energy        -129.776644769254 Eh   ::
         ::.................................................::
         :: total energy             -130.395905413253 Eh   ::
         :: zero point energy           0.690763038655 Eh   ::
         :: G(RRHO) w/o ZPVE           -0.071502394656 Eh   ::
         :: G(RRHO) contrib.            0.619260643999 Eh   ::
         :::::::::::::::::::::::::::::::::::::::::::::::::::::

           -------------------------------------------------
          | TOTAL ENERGY             -130.395905413253 Eh   |
          | TOTAL ENTHALPY           -129.661160547137 Eh   |
          | TOTAL FREE ENERGY        -129.776644769254 Eh   |
          | GRADIENT NORM               0.000054417908 Eh/α |
           -------------------------------------------------

 * finished run on 2025/09/05 at 09:41:23.296
