   * xtb version 6.7.1 (edcfbbe) compiled by 'albert@albert-system' on 2024-07-22

   ID    Z sym.   atoms
    1    6 C      1-7, 9-22, 24-36, 38-51
    2    7 N      8, 23, 37
    3    1 H      52-88

          program call               : xtb data2507/gas/DFPBI/DFPBI.xyz --gfn 2 --ohess vtight --parallel 40 --molden --ceasefiles --namespace data2507/gas/DFPBI/DFPBI_gas_S0_preOpt
          :  Hamiltonian                  GFN2-xTB          :
 * total energy  :  -130.4518310 Eh     change       -0.3502976E-08 Eh
 * total energy  :  -130.4644544 Eh     change       -0.1262344E-01 Eh
 * total energy  :  -130.4689984 Eh     change       -0.4543984E-02 Eh
 * total energy  :  -130.4705641 Eh     change       -0.1565699E-02 Eh
 * total energy  :  -130.4714872 Eh     change       -0.9230457E-03 Eh
 * total energy  :  -130.4719807 Eh     change       -0.4935970E-03 Eh
 * total energy  :  -130.4723762 Eh     change       -0.3954215E-03 Eh
 * total energy  :  -130.4727720 Eh     change       -0.3958595E-03 Eh
 * total energy  :  -130.4731799 Eh     change       -0.4078471E-03 Eh
 * total energy  :  -130.4735408 Eh     change       -0.3609714E-03 Eh
 * total energy  :  -130.4755189 Eh     change       -0.6597999E-06 Eh
 * total energy  :  -130.4755196 Eh     change       -0.6941960E-06 Eh
 * total energy  :  -130.4755204 Eh     change       -0.7393765E-06 Eh
 * total energy  :  -130.4755211 Eh     change       -0.7274015E-06 Eh
 * total energy  :  -130.4755218 Eh     change       -0.6627892E-06 Eh
 * total energy  :  -130.4755223 Eh     change       -0.5904146E-06 Eh
 * total energy  :  -130.4755229 Eh     change       -0.5376950E-06 Eh
 * total energy  :  -130.4755234 Eh     change       -0.5215417E-06 Eh
 * total energy  :  -130.4755234 Eh     change       -0.5639492E-08 Eh
   *** GEOMETRY OPTIMIZATION CONVERGED AFTER 94 ITERATIONS ***

 final structure:
================
88
 xtb: 6.7.1 (edcfbbe)
C            1.44704877584506        0.54060288400941        2.19244169537803
C            1.46900689648664        0.51175526033244        0.66225648055205
C            1.35516720039425        1.93151686595999        0.09670288421580
C            0.37512511713116       -0.37414696776262        0.11081232324815
C           -0.98368993514422       -0.24068261260624        0.26039222012468
C           -1.82780326187795       -1.16540203818908       -0.36259901843740
C           -3.27272290487734       -1.05762261442455       -0.26502431892910
N           -4.08610419975911       -2.07868512199397       -0.17453595695406
C           -5.34742137258232       -1.57868068462866       -0.05778852670347
C           -6.49165705792493       -2.47309456979165        0.03016210281609
C           -7.76150881882318       -2.09627066688451       -0.40257414793813
C           -8.82094752967656       -2.97801957233669       -0.30101722054910
C           -8.62976745960853       -4.24594730897616        0.22316665923655
C           -7.36568230021003       -4.63488169223521        0.63606944600001
C           -6.30347890849272       -3.75767657547458        0.53867951859412
C           -5.29668129057242       -0.19415262809841       -0.07253536730530
C           -6.34324095617043        0.81248977271746        0.03894426323245
C           -7.28923773716308        0.72090495160136        1.05972471502929
C           -8.28065929534337        1.67501821483030        1.17997668456476
C           -8.34124764561101        2.73460095362696        0.28872253341795
C           -7.40774355294405        2.83101082761441       -0.72932439445092
C           -6.41433719789590        1.87816711258432       -0.85659730045838
N           -3.96416234663603        0.12775735161206       -0.21736690398426
C           -3.43150970464388        1.42353892712499       -0.32501711978765
C           -2.60677896622519        1.74178818385677       -1.39968862852609
C           -2.06558349175356        3.00964059352270       -1.49625130932670
C           -2.35178518665585        3.96575505582964       -0.53515910957994
C           -3.18242403850445        3.65094292471105        0.52726787451859
C           -3.72196612018481        2.38250532632322        0.63914396821589
C           -1.28356150120251       -2.23268344749403       -1.07941366388301
C            0.08370243333578       -2.37292031726249       -1.22224477484774
C            0.91697565293021       -1.43071881374282       -0.63785983625124
C            2.36188397574801       -1.30755864617538       -0.62415179009748
C            3.35306929960041       -2.08068664930395       -1.20845875925171
C            4.67559758568639       -1.72237252091500       -1.03233797323880
C            5.02450383677597       -0.60790548916347       -0.26522703962710
N            6.36823162977364       -0.26434620483616       -0.09182072254193
C            6.74445636927416        1.08128854719948       -0.01808574614195
C            7.76196675250312        1.48412804434858        0.84694883766021
C            8.13188292288433        2.81305097790807        0.91635989826370
C            7.49191782753284        3.76200371755181        0.13601889094165
C            6.47847639351153        3.36809728292890       -0.72250953242165
C            6.10762815731572        2.04034356587689       -0.80615167371886
C            7.34204644684282       -1.26491929823526        0.01314554536065
C            8.59725604472111       -1.09203165918652       -0.56957103080467
C            9.55679542256751       -2.07960126915490       -0.46116264377403
C            9.28127138697865       -3.25447280897682        0.21907883842011
C            8.03486511342578       -3.43252171258459        0.79691272978427
C            7.07159370570993       -2.44732758818672        0.70149394235245
C            4.02202797407948        0.16757487114299        0.32813200323049
C            2.70704243258650       -0.18000819152088        0.13786183364447
H            2.28166351180392        1.12583020410049        2.57147791800023
H            0.52017079780797        0.98504845004937        2.54761538120925
H            1.52197369074565       -0.47010385359567        2.58786643513737
H            0.42146014922359        2.39168293993865        0.41339918862323
H            2.18447413120697        2.54385780119444        0.44356194241916
H            1.37401750961448        1.90363537434346       -0.99086020234192
H           -1.39331561593715        0.55602863447626        0.86350636976550
H           -7.91621612914283       -1.11677145718669       -0.83033484086006
H           -9.80216084735134       -2.67545467343370       -0.63814393424539
H           -9.46191693428314       -4.93040668748320        0.30226403965427
H           -7.20989672433375       -5.62666495573047        1.03591439101580
H           -5.31200299567141       -4.04667334601309        0.85136471596133
H           -7.23691927813542       -0.10483201892067        1.75427795080619
H           -9.00770771035684        1.59465738022291        1.97476887667680
H           -9.11576208498823        3.48084428263103        0.38595684255616
H           -7.45431678433386        3.65106550180147       -1.43102647466392
H           -5.69843923788530        1.95157746593355       -1.66292159723343
H           -2.39160285519105        0.99144297877482       -2.14590240958449
H           -1.42121293982691        3.25304237963389       -2.32754993665879
H           -1.92791477710976        4.95538156911956       -0.61493992075946
H           -3.40846723547548        4.39386793754104        1.27742187701948
H           -4.36160082084932        2.12822640171984        1.47119028517585
H           -1.96135709218593       -2.94473777291490       -1.52409595593800
H            0.49333314734012       -3.19928137187404       -1.78363858998288
H            3.10066484653070       -2.94504863761861       -1.80405524251716
H            5.45837692388493       -2.30564232279797       -1.49470908397343
H            8.25576518617310        0.74818671680890        1.46457384261303
H            8.92014398448254        3.11088988882446        1.59215309315635
H            7.78104962166737        4.80026047268375        0.19609140889173
H            5.97778073582756        4.09986879865522       -1.33964494178170
H            5.32431345699920        1.73481427445415       -1.48438259156572
H            8.81107324914916       -0.18078808200672       -1.10897584726923
H           10.52407890368897       -1.93389905522144       -0.91928061523420
H           10.03238034369188       -4.02562478039206        0.29826199215077
H            7.81292414060905       -4.34294201532732        1.33411521415404
H            6.10355592975601       -2.58435436806339        1.16079681275830
H            4.29377622971140        1.02387840263666        0.92794222754522

          :  Hamiltonian                  GFN2-xTB          :
         :: gradient norm              0.000056426950 Eh/a0 ::
         :: HOMO-LUMO gap              2.352799224263 eV    ::
         :: SCC energy              -132.912349603463 Eh    ::
         :: -> dispersion             -0.125190642432 Eh    ::
         :: repulsion energy           2.436826190908 Eh    ::

    * Orbital Energies and Occupations

         #    Occupation            Energy/Eh            Energy/eV
      -------------------------------------------------------------
         1        2.0000           -0.6818402             -18.5538
       ...           ...                  ...                  ...
       110        2.0000           -0.4078203             -11.0974
       111        2.0000           -0.4068476             -11.0709
       112        2.0000           -0.4061218             -11.0511
       113        2.0000           -0.4047131             -11.0128
       114        2.0000           -0.4042480             -11.0001
       115        2.0000           -0.4010058             -10.9119
       116        2.0000           -0.3964101             -10.7869
       117        2.0000           -0.3942979             -10.7294
       118        2.0000           -0.3917959             -10.6613
       119        2.0000           -0.3832834             -10.4297
       120        2.0000           -0.3700951             -10.0708
       121        2.0000           -0.3577318              -9.7344
       122        2.0000           -0.3454202              -9.3994 (HOMO)
       123                         -0.2589564              -7.0466 (LUMO)
       124                         -0.2448198              -6.6619
       125                         -0.2395742              -6.5191
       126                         -0.2375388              -6.4638
       127                         -0.2304052              -6.2696
       128                         -0.2267579              -6.1704
       129                         -0.2248424              -6.1183
       130                         -0.2217147              -6.0332
       131                         -0.2205651              -6.0019
       132                         -0.2193587              -5.9691
       133                         -0.2160850              -5.8800
       ...                                ...                  ...
       241                          0.7357613              20.0211
      -------------------------------------------------------------
                  HL-Gap            0.0864638 Eh            2.3528 eV

     #   Z          covCN         q      C6AA      α(0)
     1   6 C        3.758    -0.098    22.425     6.751
     2   6 C        3.936     0.019    20.195     6.386
     3   6 C        3.759    -0.097    22.394     6.747
     4   6 C        3.057    -0.003    28.047     8.685
     5   6 C        2.918    -0.039    28.976     8.827
     6   6 C        2.976    -0.003    28.093     8.694
     7   6 C        3.159     0.122    25.038     8.181
     8   7 N        1.912    -0.291    28.377     7.898
     9   6 C        3.167     0.051    26.501     8.412
    10   6 C        2.974     0.011    27.777     8.645
    11   6 C        2.923    -0.037    28.927     8.820
    12   6 C        2.919    -0.031    28.764     8.795
    13   6 C        2.920    -0.033    28.813     8.802
    14   6 C        2.918    -0.030    28.748     8.792
    15   6 C        2.927    -0.030    28.753     8.794
    16   6 C        3.067     0.013    27.665     8.625
    17   6 C        2.972     0.009    27.812     8.651
    18   6 C        2.925    -0.033    28.811     8.802
    19   6 C        2.919    -0.028    28.711     8.787
    20   6 C        2.920    -0.031    28.781     8.798
    21   6 C        2.919    -0.030    28.738     8.791
    22   6 C        2.924    -0.034    28.847     8.808
    23   7 N        2.851    -0.039    21.988     6.964
    24   6 C        2.914     0.069    26.460     8.435
    25   6 C        2.922    -0.037    28.931     8.821
    26   6 C        2.920    -0.026    28.655     8.778
    27   6 C        2.919    -0.032    28.788     8.799
    28   6 C        2.920    -0.028    28.688     8.783
    29   6 C        2.921    -0.038    28.953     8.824
    30   6 C        2.928    -0.033    28.819     8.804
    31   6 C        2.913    -0.035    28.862     8.810
    32   6 C        3.036     0.000    27.986     8.677
    33   6 C        3.037    -0.009    28.195     8.709
    34   6 C        2.913    -0.034    28.856     8.809
    35   6 C        2.923    -0.052    29.298     8.876
    36   6 C        2.925     0.061    26.623     8.462
    37   7 N        2.753    -0.074    22.673     7.072
    38   6 C        2.924     0.065    26.535     8.448
    39   6 C        2.922    -0.048    29.187     8.860
    40   6 C        2.919    -0.029    28.735     8.790
    41   6 C        2.919    -0.039    28.969     8.826
    42   6 C        2.919    -0.030    28.747     8.792
    43   6 C        2.922    -0.048    29.186     8.859
    44   6 C        2.924     0.065    26.543     8.449
    45   6 C        2.922    -0.047    29.177     8.858
    46   6 C        2.920    -0.029    28.732     8.790
    47   6 C        2.919    -0.038    28.950     8.823
    48   6 C        2.920    -0.029    28.730     8.790
    49   6 C        2.922    -0.047    29.169     8.857
    50   6 C        2.918    -0.053    29.313     8.878
    51   6 C        3.055    -0.001    28.004     8.679
    52   1 H        0.925     0.040     2.443     2.444
    53   1 H        0.925     0.039     2.457     2.451
    54   1 H        0.925     0.037     2.483     2.464
    55   1 H        0.925     0.037     2.484     2.465
    56   1 H        0.925     0.041     2.433     2.439
    57   1 H        0.925     0.034     2.527     2.486
    58   1 H        0.926     0.023     2.695     2.567
    59   1 H        0.926     0.025     2.663     2.552
    60   1 H        0.926     0.025     2.654     2.547
    61   1 H        0.926     0.026     2.642     2.542
    62   1 H        0.926     0.028     2.611     2.527
    63   1 H        0.926     0.049     2.328     2.386
    64   1 H        0.926     0.033     2.539     2.492
    65   1 H        0.926     0.032     2.563     2.504
    66   1 H        0.926     0.030     2.584     2.514
    67   1 H        0.926     0.029     2.603     2.523
    68   1 H        0.926     0.024     2.673     2.557
    69   1 H        0.926     0.040     2.450     2.448
    70   1 H        0.926     0.039     2.465     2.455
    71   1 H        0.926     0.037     2.483     2.464
    72   1 H        0.926     0.038     2.476     2.461
    73   1 H        0.926     0.039     2.460     2.453
    74   1 H        0.926     0.049     2.329     2.387
    75   1 H        0.926     0.034     2.528     2.486
    76   1 H        0.926     0.033     2.540     2.492
    77   1 H        0.926     0.032     2.562     2.503
    78   1 H        0.926     0.031     2.567     2.505
    79   1 H        0.926     0.031     2.572     2.508
    80   1 H        0.926     0.029     2.595     2.519
    81   1 H        0.926     0.030     2.583     2.513
    82   1 H        0.926     0.032     2.558     2.501
    83   1 H        0.926     0.031     2.568     2.506
    84   1 H        0.926     0.031     2.568     2.506
    85   1 H        0.926     0.030     2.583     2.513
    86   1 H        0.926     0.032     2.561     2.502
    87   1 H        0.926     0.033     2.550     2.497
    88   1 H        0.926     0.030     2.588     2.516

molecular dipole:
                 x           y           z       tot (Debye)
 q only:        0.706       1.106       0.119
   full:        0.612       1.556       0.102       4.259

 projected vibrational frequencies (cm⁻¹)
eigval :       -0.00    -0.00     0.00     0.00     0.00     0.00
eigval :        9.94    11.08    17.99    25.98    29.93    31.47
eigval :       32.60    39.77    45.21    55.37    55.88    60.20
eigval :       66.62    70.54    77.99    83.45    92.62   108.51
eigval :      123.03   127.42   131.39   133.52   154.83   163.31
eigval :      189.81   197.60   220.89   227.34   227.85   234.42
eigval :      236.69   245.17   257.26   259.87   268.80   277.46
eigval :      290.79   308.18   316.83   331.58   344.57   355.78
eigval :      367.02   371.19   376.47   378.35   380.18   384.31
eigval :      386.24   408.12   432.80   444.15   463.47   469.53
eigval :      475.25   483.68   491.71   494.04   515.40   528.03
eigval :      536.92   563.61   573.52   575.04   580.85   586.99
eigval :      588.22   588.91   590.23   595.20   622.45   624.77
eigval :      632.56   643.70   655.77   661.12   663.62   664.45
eigval :      672.84   677.20   684.16   689.16   693.31   705.36
eigval :      723.27   729.14   739.48   757.27   758.47   760.71
eigval :      764.06   772.43   802.16   825.35   836.18   854.83
eigval :      874.74   874.99   876.10   878.10   878.59   884.63
eigval :      890.06   892.42   894.01   899.88   901.79   902.61
eigval :      910.20   913.23   915.58   927.66   927.79   929.10
eigval :      929.34   929.61   929.62   930.05   931.37   931.59
eigval :      932.16   942.81   947.34   962.84   966.95   972.08
eigval :      977.60   985.96  1004.21  1010.18  1014.30  1015.62
eigval :     1032.08  1069.75  1080.05  1081.98  1083.15  1083.89
eigval :     1084.23  1107.48  1114.98  1117.96  1119.02  1121.69
eigval :     1121.98  1124.27  1148.71  1159.20  1165.80  1176.26
eigval :     1180.56  1180.72  1180.83  1181.87  1182.01  1184.40
eigval :     1191.47  1195.67  1195.70  1201.58  1203.14  1212.74
eigval :     1228.22  1234.03  1252.11  1253.39  1270.72  1275.91
eigval :     1278.34  1280.08  1282.91  1283.60  1292.71  1315.60
eigval :     1317.20  1317.31  1318.99  1321.74  1324.86  1327.44
eigval :     1330.50  1334.37  1361.06  1375.53  1396.11  1399.71
eigval :     1411.94  1425.46  1430.33  1432.91  1434.86  1437.29
eigval :     1438.39  1444.20  1448.00  1455.76  1467.49  1473.16
eigval :     1477.00  1481.51  1487.65  1489.59  1489.94  1498.02
eigval :     1502.48  1543.52  1558.80  1568.07  1576.20  1578.39
eigval :     1580.91  1581.91  1584.13  1584.53  1594.78  1594.97
eigval :     1595.84  1597.73  1600.13  1600.19  1610.75  3025.70
eigval :     3028.17  3031.28  3033.90  3036.20  3038.96  3067.73
eigval :     3071.86  3072.53  3074.82  3075.59  3075.77  3076.54
eigval :     3077.12  3080.26  3081.59  3081.84  3081.93  3082.82
eigval :     3083.60  3083.92  3084.58  3085.86  3086.70  3087.67
eigval :     3088.81  3089.59  3091.11  3091.44  3092.60  3094.35
eigval :     3096.15  3096.89  3097.60  3101.35  3103.43  3104.40

   temp. (K)  partition function   enthalpy   heat capacity  entropy
                                   cal/mol     cal/K/mol   cal/K/mol   J/K/mol
 298.15  VIB  0.836E+20            24999.242    155.267    156.920
         ROT  0.112E+09              888.752      2.981     39.814
         INT  0.937E+28            25887.994    158.248    196.733
         TR   0.162E+29             1481.254      4.968     45.303
         TOT                       27369.2484   163.2159   242.0368  1012.6820

       T/K    H(0)-H(T)+PV         H(T)/Eh          T*S/Eh         G(T)/Eh
   ------------------------------------------------------------------------
    298.15    0.436157E-01    0.738126E+00    0.115000E+00    0.623127E+00
   ------------------------------------------------------------------------

         :::::::::::::::::::::::::::::::::::::::::::::::::::::
         ::                  THERMODYNAMIC                  ::
         :::::::::::::::::::::::::::::::::::::::::::::::::::::
         :: total free energy        -129.852396418551 Eh   ::
         ::.................................................::
         :: total energy             -130.475523412554 Eh   ::
         :: zero point energy           0.694510822047 Eh   ::
         :: G(RRHO) w/o ZPVE           -0.071383828044 Eh   ::
         :: G(RRHO) contrib.            0.623126994003 Eh   ::
         :::::::::::::::::::::::::::::::::::::::::::::::::::::

           -------------------------------------------------
          | TOTAL ENERGY             -130.475523412554 Eh   |
          | TOTAL ENTHALPY           -129.737396916991 Eh   |
          | TOTAL FREE ENERGY        -129.852396418551 Eh   |
          | GRADIENT NORM               0.000056426745 Eh/α |
          | HOMO-LUMO GAP               2.352799445640 eV   |
           -------------------------------------------------

 * finished run on 2025/09/05 at 09:27:39.948
