   * xtb version 6.7.1 (edcfbbe) compiled by 'albert@albert-system' on 2024-07-22

   ID    Z sym.   atoms
    1    6 C      1-7, 9-22, 24-36, 38-51
    2    7 N      8, 23, 37
    3    1 H      52-88

          program call               : xtb data2507/gas/DFPBI/DFPBI_gas_S0_finalOpt.xtbopt.xyz --gfn 2 --spinpol --tblite --uhf 2 --ohess vtight --parallel 40 --molden --ceasefiles --namespace data2507/gas/DFPBI/DFPBI_gas_T1_preOpt
 * total energy  :  -130.3848874 Eh     change       -0.4830326E-08 Eh
 * total energy  :  -130.3913310 Eh     change       -0.6443607E-02 Eh
 * total energy  :  -130.3936338 Eh     change       -0.2302773E-02 Eh
 * total energy  :  -130.3939279 Eh     change       -0.2941933E-03 Eh
 * total energy  :  -130.3943236 Eh     change       -0.3956108E-03 Eh
 * total energy  :  -130.3944977 Eh     change       -0.1741246E-03 Eh
 * total energy  :  -130.3946276 Eh     change       -0.1299030E-03 Eh
 * total energy  :  -130.3947094 Eh     change       -0.8181879E-04 Eh
 * total energy  :  -130.3947855 Eh     change       -0.7607863E-04 Eh
 * total energy  :  -130.3948686 Eh     change       -0.8308733E-04 Eh
 * total energy  :  -130.3959047 Eh     change       -0.3180480E-06 Eh
 * total energy  :  -130.3959050 Eh     change       -0.3039708E-06 Eh
 * total energy  :  -130.3959050 Eh     change        0.5000643E-07 Eh
 * total energy  :  -130.3959053 Eh     change       -0.3614226E-06 Eh
 * total energy  :  -130.3959055 Eh     change       -0.2347415E-06 Eh
 * total energy  :  -130.3959057 Eh     change       -0.1727553E-06 Eh
 * total energy  :  -130.3959058 Eh     change       -0.1236737E-06 Eh
 * total energy  :  -130.3959061 Eh     change       -0.2391670E-06 Eh
 * total energy  :  -130.3959062 Eh     change       -0.9239599E-07 Eh
   *** GEOMETRY OPTIMIZATION CONVERGED AFTER 81 ITERATIONS ***

 final structure:
================
88
 xtb: 6.7.1 (edcfbbe)
C            1.63211893353166        1.13734569883980        2.03017086883333
C            1.65966458871062        0.82535723511203        0.53081352743567
C            1.61488691640440        2.12284606131669       -0.28338190304840
C            0.52590827536221       -0.09770783988380        0.14001517520487
C           -0.80531964124176        0.12997529527558        0.22275752788751
C           -1.72278078035950       -0.87669104952955       -0.21789227243839
C           -3.11647715997481       -0.73066247922963       -0.22063847596191
N           -3.95427733481521       -1.77636860436273       -0.30237725776562
C           -5.19490832058220       -1.31523576869436       -0.15334408167172
C           -6.33674010544759       -2.21322376424989       -0.22490803877439
C           -7.56434375411770       -1.81064772394306       -0.74967289885536
C           -8.61878747553949       -2.70161394918183       -0.81123268477602
C           -8.46502188826607       -4.00190703761959       -0.35801886726842
C           -7.24144891061499       -4.41546437568782        0.14458538259784
C           -6.18305502807384       -3.53083713884970        0.20685966465240
C           -5.17986487361369        0.08826516874089        0.01163415876692
C           -6.27467271277656        1.00829374463944        0.20331032138738
C           -7.30853393417792        0.67906076847716        1.09028878332285
C           -8.36456063283208        1.54317817409800        1.28738810978850
C           -8.41886209677039        2.75108756606731        0.60654016061937
C           -7.40687100055256        3.08314249446270       -0.28120323005557
C           -6.34376433912753        2.22699414321561       -0.48292386431477
N           -3.85317819399809        0.45144200770672       -0.06086365961001
C           -3.36890072922256        1.76358322639303       -0.05127378462869
C           -2.54027253917692        2.20590060072179       -1.08431842151586
C           -2.06673932034055        3.50260168117293       -1.07814128280206
C           -2.41865021745850        4.37199175782279       -0.05634165879309
C           -3.24863954318747        3.93583182924574        0.96489200792907
C           -3.72520368818396        2.63933994348560        0.97337201520786
C           -1.18821794530169       -2.13624838943025       -0.65089282195631
C            0.14746046563655       -2.35892750563906       -0.73976199824416
C            1.04973160216223       -1.33136237072088       -0.36698947892008
C            2.45399816714477       -1.27305120422353       -0.35234399829967
C            3.43426952677757       -2.20689411685086       -0.74420079900681
C            4.75880747017542       -1.88207159187609       -0.61995492135307
C            5.16187250099242       -0.63265348231761       -0.11009227452619
N            6.51407965617677       -0.32090197816431       -0.00236073653071
C            6.95006325302685        0.98755559481635       -0.22736295837390
C            7.99036301802127        1.52827335313981        0.53096673515604
C            8.41335423688528        2.82310730785127        0.30631177521100
C            7.80713428356357        3.60153888252303       -0.66726946203875
C            6.77195648797091        3.07059050532450       -1.42089658185937
C            6.34503353528720        1.77504503953735       -1.20930362539450
C            7.43884934671527       -1.31482203599573        0.33095409450833
C            8.70524440771537       -1.32991629629432       -0.25651466185956
C            9.61246076277646       -2.31622385382448        0.07537266108963
C            9.27491377412819       -3.30265361459263        0.98871166905714
C            8.01789591880380       -3.29347484237844        1.57279142742900
C            7.10460540342526       -2.30924478567948        1.25211880729930
C            4.18572457727205        0.30783760963653        0.28558201349958
C            2.86692236323634       -0.00862621917901        0.16544441755746
H            2.48958167636278        1.74694976560814        2.30668391464376
H            0.72302906365537        1.67768165930809        2.28425106266449
H            1.66008798008518        0.21459441535043        2.60581785388983
H            0.70115924942117        2.67194467681376       -0.06584253063715
H            2.46892886171219        2.75211295658205       -0.04208473017895
H            1.63806842261588        1.89748654022617       -1.34763577266504
H           -1.17680865294135        1.04323284910735        0.65853757426188
H           -7.68642733522035       -0.80569721249864       -1.12528860919900
H           -9.56610095908629       -2.38078466149175       -1.22010956807105
H           -9.29430243250267       -4.69267261229581       -0.40434069740227
H           -7.11489189941418       -5.43189471283463        0.48844082654515
H           -5.22248664112705       -3.83731692901801        0.59116939927912
H           -7.26112651069949       -0.25550266059272        1.62980255024978
H           -9.14988168768455        1.27843973675917        1.98036115481385
H           -9.24605109347279        3.42678181178904        0.76433240640353
H           -7.44943412744927        4.01623900518479       -0.82415596706013
H           -5.57572468590906        2.48538221287557       -1.19698049861475
H           -2.27298226840784        1.52336885559575       -1.87732748269898
H           -1.42453313341878        3.83959332045463       -1.87843275117782
H           -2.04732205672820        5.38559584274018       -0.05654586673835
H           -3.52228877733156        4.60878471502867        1.76388724323195
H           -4.36334574542999        2.29344372088976        1.77277013546434
H           -1.90406132660334       -2.89272947932431       -0.93055967223240
H            0.53048794877446       -3.30561094816055       -1.09102384086032
H            3.13983243276228       -3.16144950587973       -1.15247991125942
H            5.52042813902552       -2.58065468733949       -0.93592316512246
H            8.45461169646139        0.92805372939212        1.29974863859443
H            9.21681479685791        3.23100781669672        0.90166235277928
H            8.13926500050176        4.61420830372909       -0.83751976853333
H            6.29867764756118        3.66819770560472       -2.18594435518074
H            5.54767838282333        1.35728313865727       -1.80599778170109
H            8.96475366530897       -0.56941457053352       -0.97842586220881
H           10.58760811079536       -2.32010201584928       -0.38876289366654
H            9.98646944061682       -4.07312051348059        1.24330097053872
H            7.74957326386969       -4.05485307279835        2.29008642157193
H            6.12942959113501       -2.29441457475207        1.71605895347087
H            4.50264392310033        1.25665103818524        0.69407946201765

 projected vibrational frequencies (cm⁻¹)
eigval :       -0.00    -0.00    -0.00    -0.00     0.00     0.00
eigval :        9.75    11.13    18.55    26.12    29.58    31.04
eigval :       33.92    39.48    44.47    56.78    57.28    60.08
eigval :       64.53    72.16    80.06    86.26    95.85   110.28
eigval :      117.45   130.64   134.17   143.75   156.74   159.42
eigval :      186.73   197.30   220.78   224.98   228.11   233.27
eigval :      234.04   240.39   246.24   256.02   263.37   271.26
eigval :      290.15   306.43   316.45   326.85   336.30   342.42
eigval :      358.32   367.52   371.85   377.52   378.00   383.01
eigval :      384.22   399.37   417.41   436.05   444.34   460.07
eigval :      466.45   477.51   483.83   497.68   505.38   527.38
eigval :      535.23   548.37   559.00   566.73   571.80   584.86
eigval :      585.39   586.71   588.58   589.09   609.92   613.24
eigval :      621.53   627.87   639.55   655.36   658.86   659.15
eigval :      659.98   672.38   674.14   677.33   678.17   697.08
eigval :      698.99   722.16   729.59   751.87   755.44   755.98
eigval :      761.52   766.61   795.24   804.38   810.53   844.34
eigval :      854.94   869.15   869.93   872.20   872.82   874.62
eigval :      876.60   890.12   891.64   893.28   893.86   902.82
eigval :      904.30   907.42   908.90   924.36   926.23   926.37
eigval :      926.38   926.92   927.61   927.64   927.86   928.80
eigval :      930.54   931.09   936.38   940.94   960.74   965.00
eigval :      967.65   971.63   991.13   996.61  1002.81  1011.65
eigval :     1012.67  1052.28  1072.50  1078.55  1080.64  1081.16
eigval :     1082.01  1082.35  1090.15  1116.09  1118.16  1121.28
eigval :     1122.26  1123.47  1131.99  1140.70  1151.98  1172.74
eigval :     1173.65  1178.81  1179.01  1179.13  1179.82  1180.63
eigval :     1182.71  1191.71  1193.38  1198.39  1202.05  1204.66
eigval :     1211.50  1221.72  1235.92  1248.97  1254.75  1270.85
eigval :     1275.45  1276.93  1279.28  1281.47  1282.43  1295.00
eigval :     1305.08  1312.48  1318.96  1320.46  1320.96  1322.26
eigval :     1328.24  1335.82  1346.09  1357.60  1366.36  1389.74
eigval :     1394.21  1404.67  1410.12  1422.32  1429.12  1431.78
eigval :     1432.92  1437.29  1437.96  1442.48  1459.11  1463.06
eigval :     1465.10  1470.35  1472.15  1480.34  1486.46  1489.58
eigval :     1496.53  1499.24  1500.84  1515.71  1538.31  1550.52
eigval :     1557.85  1565.70  1570.90  1576.58  1577.40  1581.56
eigval :     1582.91  1590.19  1591.16  1594.82  1614.94  3023.50
eigval :     3025.15  3027.46  3031.63  3033.64  3035.96  3070.31
eigval :     3072.52  3074.63  3074.80  3075.43  3075.63  3077.52
eigval :     3077.83  3078.31  3078.47  3079.24  3079.98  3080.57
eigval :     3084.72  3085.94  3087.43  3088.34  3088.66  3089.97
eigval :     3091.26  3091.72  3092.68  3092.89  3093.47  3094.21
eigval :     3098.76  3099.08  3099.68  3102.85  3106.56  3109.56

   temp. (K)  partition function   enthalpy   heat capacity  entropy
                                   cal/mol     cal/K/mol   cal/K/mol   J/K/mol
 298.15  VIB  0.936E+20            25240.265    157.075    158.057
         ROT  0.114E+09              888.752      2.981     39.845
         INT  0.107E+29            26129.018    160.056    197.902
         TR   0.162E+29             1481.254      4.968     45.303
         TOT                       27610.2717   165.0238   243.2056  1017.5721

       T/K    H(0)-H(T)+PV         H(T)/Eh          T*S/Eh         G(T)/Eh
   ------------------------------------------------------------------------
    298.15    0.439998E-01    0.734631E+00    0.115555E+00    0.619076E+00
   ------------------------------------------------------------------------

         :::::::::::::::::::::::::::::::::::::::::::::::::::::
         ::                  THERMODYNAMIC                  ::
         :::::::::::::::::::::::::::::::::::::::::::::::::::::
         :: total free energy        -129.776829792741 Eh   ::
         ::.................................................::
         :: total energy             -130.395906217075 Eh   ::
         :: zero point energy           0.690631472796 Eh   ::
         :: G(RRHO) w/o ZPVE           -0.071555048462 Eh   ::
         :: G(RRHO) contrib.            0.619076424333 Eh   ::
         :::::::::::::::::::::::::::::::::::::::::::::::::::::

           -------------------------------------------------
          | TOTAL ENERGY             -130.395906217075 Eh   |
          | TOTAL ENTHALPY           -129.661274975578 Eh   |
          | TOTAL FREE ENERGY        -129.776829792741 Eh   |
          | GRADIENT NORM               0.000078534732 Eh/α |
           -------------------------------------------------

 * finished run on 2025/09/05 at 09:34:10.467
