   * xtb version 6.7.1 (edcfbbe) compiled by 'albert@albert-system' on 2024-07-22

   ID    Z sym.   atoms
    1    6 C      1-20, 22-26, 28-31, 33-56
    2    7 N      21, 32
    3    8 O      27
    4    1 H      57-112

          program call               : xtb data2507/toluene/t–BuCz2BP/t–BuCz2BP_toluene_S0_crest.xyz --gfn 2 --gbsa toluene --ohess vtight --parallel 40 --molden --ceasefiles --namespace data2507/toluene/t–BuCz2BP/t–BuCz2BP_toluene_S0_finalOpt
      * Solvation model:               GBSA
        Solvent                        toluene
        Solvent mass                       9.2140E+01 g/mol
          :  Hamiltonian                  GFN2-xTB          :
 * total energy  :  -152.1560180 Eh     change       -0.8857512E-08 Eh
 * total energy  :  -152.1560922 Eh     change       -0.7425670E-04 Eh
 * total energy  :  -152.1561098 Eh     change       -0.1755510E-04 Eh
 * total energy  :  -152.1561134 Eh     change       -0.3669629E-05 Eh
 * total energy  :  -152.1561166 Eh     change       -0.3109437E-05 Eh
 * total energy  :  -152.1561202 Eh     change       -0.3636177E-05 Eh
 * total energy  :  -152.1561247 Eh     change       -0.4468123E-05 Eh
 * total energy  :  -152.1561307 Eh     change       -0.6051908E-05 Eh
 * total energy  :  -152.1561377 Eh     change       -0.7025124E-05 Eh
 * total energy  :  -152.1561439 Eh     change       -0.6159255E-05 Eh
 * total energy  :  -152.1562170 Eh     change       -0.9430441E-06 Eh
 * total energy  :  -152.1562178 Eh     change       -0.7657753E-06 Eh
 * total energy  :  -152.1562184 Eh     change       -0.6259610E-06 Eh
 * total energy  :  -152.1562190 Eh     change       -0.5758637E-06 Eh
 * total energy  :  -152.1562197 Eh     change       -0.6871871E-06 Eh
 * total energy  :  -152.1562207 Eh     change       -0.1055403E-05 Eh
 * total energy  :  -152.1562223 Eh     change       -0.1617032E-05 Eh
 * total energy  :  -152.1562244 Eh     change       -0.2077801E-05 Eh
 * total energy  :  -152.1562244 Eh     change       -0.4088491E-08 Eh
   *** GEOMETRY OPTIMIZATION CONVERGED AFTER 68 ITERATIONS ***

 final structure:
================
112
 xtb: 6.7.1 (edcfbbe)
C           -5.98943669479274       -5.10585301156986       -2.64763019165617
C           -6.34774789829703       -4.75103931937310       -1.19662186557687
C           -5.59264356699042       -5.67932309168372       -0.23330076702306
C           -7.84880167782758       -4.99018840737123       -1.00610434170367
C           -5.94540100385628       -3.30914858503969       -0.91747073554124
C           -4.59858369249596       -2.94435545135514       -1.04605666901637
C           -4.13959619541104       -1.66530394762021       -0.80187773919248
C           -5.05880254243046       -0.70787964272867       -0.40181395914184
C           -6.42462409981779       -1.04056863124464       -0.29509997699738
C           -6.85935029735382       -2.33519330170053       -0.54817657457641
C           -7.11272557124194        0.16787693188963        0.07236710409705
C           -8.44501007607545        0.44915945827795        0.34589933134593
C           -8.81723117803225        1.73307477730642        0.71089256414519
C          -10.25926637340727        2.11609407967397        1.01478502689485
C          -11.22354886278100        0.93379250683844        0.87685805345142
C          -10.70456246037812        3.21110664606228        0.03388751571964
C          -10.35276566056429        2.64017133769405        2.45573121851723
C           -7.82007039725001        2.71245096986571        0.81161960506920
C           -6.48837906452604        2.45973920737273        0.54855972595128
C           -6.13319516606620        1.17867795936098        0.15574984198914
N           -4.88879719933371        0.64031259128254       -0.13027980907795
C           -3.67720852327235        1.32731512839916       -0.13279717866782
C           -2.56213458301818        0.78735204279339        0.51135226399037
C           -1.35692963886491        1.45639373873854        0.50029929602475
C           -1.23821265899176        2.69012411107734       -0.14223921503947
C            0.02563133076256        3.45761526532790       -0.13371860566420
O            0.02961582113451        4.68236310463879       -0.15220987184478
C            1.28519630608860        2.68284990769098       -0.09180886837730
C            2.38694370632177        3.21408592648521        0.58002330996435
C            3.57556861688171        2.52023516014146        0.64546992503350
C            3.70299382793414        1.28702141213170        0.00292069078386
N            4.89988360420681        0.57751483495994        0.06686219775735
C            5.02818880511973       -0.77525845330990        0.33998121851828
C            4.06721040089138       -1.72295643094214        0.65660823661575
C            4.48736513919937       -3.01132510536461        0.92110358128251
C            5.83452017262596       -3.39558865298781        0.89272084600251
C            6.19318453909521       -4.84638228361053        1.18508186620980
C            5.71762529280904       -5.21023914356409        2.59973070103942
C            5.50210808083728       -5.75371549292596        0.15598380322554
C            7.70094834580073       -5.10628151549043        1.10905434323223
C            6.78841799025743       -2.43125725602927        0.60948294900422
C            6.39332813662405       -1.12749978558949        0.33895779712009
C            7.12622602629120        0.07404166983376        0.04274019508200
C            8.48098959305239        0.33960658711085       -0.10906850031488
C            8.90018842684360        1.62130088378916       -0.42767413221354
C           10.36800819751870        1.98813239279265       -0.59837051158338
C           10.60111064109643        2.47696270224702       -2.03575284638345
C           11.30475040794705        0.80366686423077       -0.34052951343246
C           10.72798800227489        3.10281203911063        0.39540682117030
C            7.92789248764544        2.61331244888474       -0.61256138149684
C            6.57525878916990        2.37706732574001       -0.46754634494095
C            6.17089446774795        1.09927892815911       -0.11305814789352
C            2.61589461178615        0.77195071129803       -0.70614232345109
C            1.41942374458434        1.45602959716732       -0.74377095330942
C           -2.36343406251404        3.24019694477918       -0.75878609997629
C           -3.56410850056680        2.56460532721956       -0.77035320062405
H           -4.91979198845652       -5.03080473943698       -2.82337748913290
H           -6.29945793784458       -6.12476056757301       -2.87103511772836
H           -6.49636879842128       -4.43205425066068       -3.33580845533216
H           -4.51720331387895       -5.60230610182122       -0.36774193049917
H           -5.88357153503044       -6.71372262934173       -0.40510975525175
H           -5.82660097651429       -5.42178157090776        0.79804370532060
H           -8.43274360312381       -4.38143098401574       -1.69283152640459
H           -8.15363795106402       -4.77072840888091        0.01476470519566
H           -8.07743521947878       -6.03511705168980       -1.20720516010636
H           -3.87703534835593       -3.68589552286538       -1.35349898990624
H           -3.09554429124859       -1.42515395326566       -0.93495950007417
H           -7.91007892741407       -2.55315870966618       -0.45580994488905
H           -9.16555838628256       -0.34806127314223        0.27252026165335
H          -11.21709682265902        0.53942689873384       -0.13683110990893
H          -10.96829318465119        0.13754413874265        1.57257009202329
H          -12.23586779405483        1.26427784362295        1.10159817975752
H          -10.62910492564237        2.85163230381833       -0.99072879502805
H          -10.08968679011567        4.10214106064644        0.12777462089623
H          -11.73877785055346        3.48913834318055        0.22689434646181
H          -11.38526969030976        2.88275293008287        2.69920443399625
H           -9.75335038195471        3.53586237575935        2.59346325693329
H          -10.00151170125959        1.88374986012797        3.15518237652034
H           -8.08991359141018        3.71347381593273        1.11207203957931
H           -5.75190122038935        3.24085580375578        0.66338976316593
H           -2.65715135083684       -0.14911197175031        1.03953330456095
H           -0.51025173052918        1.04016940694199        1.02512743341931
H            2.28055771909744        4.16982602236760        1.07239568053669
H            4.40660054977026        2.91688926220731        1.20823438463353
H            3.01938361368405       -1.46922680068983        0.71141733961642
H            3.73324388961953       -3.74480142778023        1.16272512207633
H            5.99989682184954       -6.23387933085690        2.83777715943489
H            6.17373845657369       -4.54703907393637        3.33240781218275
H            4.63807596411849       -5.12652726610639        2.69016790172539
H            4.42090857957116       -5.65701352978081        0.20306754812864
H            5.82401672095257       -5.49441966689899       -0.85089037681579
H            5.75886268461461       -6.79457855595586        0.34273126693913
H            8.23827918127422       -4.51412899509550        1.84645876965982
H            8.08765694736596       -4.88010705313599        0.11780547658558
H            7.89808408330529       -6.15674574775595        1.31458378369479
H            7.83998259822004       -2.66391187423017        0.59751597217034
H            9.18230096086711       -0.46746968701282        0.02111047810454
H           11.65023861057619        2.72662003017589       -2.18109320210969
H           10.00764176011745        3.36010619698528       -2.25641442564809
H           10.32936500339351        1.69820448695432       -2.74595623151374
H           12.33730488319209        1.12576724503717       -0.46149121930306
H           11.18718094857477        0.42592445366936        0.67272719069968
H           11.12089390180450       -0.00278727590896       -1.04687403993064
H           10.54088311020175        2.77202219755190        1.41539537477695
H           10.14278477030831        4.00055036097919        0.21608793160508
H           11.78127003693525        3.36041392118268        0.30373854386316
H            8.23536674381225        3.61149763943086       -0.88497588712800
H            5.86182629388279        3.16856799682424       -0.64154444118118
H            2.72541742460595       -0.15832149605121       -1.24233849004722
H            0.59235845284017        1.05673756297915       -1.31156495743519
H           -2.26726395639879        4.19935572383644       -1.24666765878047
H           -4.41701547334231        2.97940978037126       -1.28536839852425

          :  Hamiltonian                  GFN2-xTB          :
         :: gradient norm              0.000051305894 Eh/a0 ::
         :: HOMO-LUMO gap              1.840588936326 eV    ::
         :: SCC energy              -154.781824989343 Eh    ::
         :: -> dispersion             -0.138272466600 Eh    ::
         :: -> Gsolv                  -0.062266670630 Eh    ::
         :: repulsion energy           2.625600578029 Eh    ::

    * Orbital Energies and Occupations

         #    Occupation            Energy/Eh            Energy/eV
      -------------------------------------------------------------
         1        2.0000           -0.7075299             -19.2529
       ...           ...                  ...                  ...
       130        2.0000           -0.4133825             -11.2487
       131        2.0000           -0.4126757             -11.2295
       132        2.0000           -0.4090760             -11.1315
       133        2.0000           -0.4089790             -11.1289
       134        2.0000           -0.4067772             -11.0690
       135        2.0000           -0.4067078             -11.0671
       136        2.0000           -0.3972087             -10.8086
       137        2.0000           -0.3968296             -10.7983
       138        2.0000           -0.3943058             -10.7296
       139        2.0000           -0.3740127             -10.1774
       140        2.0000           -0.3739203             -10.1749
       141        2.0000           -0.3601680              -9.8007
       142        2.0000           -0.3591368              -9.7726 (HOMO)
       143                         -0.2914964              -7.9320 (LUMO)
       144                         -0.2476466              -6.7388
       145                         -0.2412510              -6.5648
       146                         -0.2400733              -6.5327
       147                         -0.2378183              -6.4714
       148                         -0.2368370              -6.4447
       149                         -0.2182051              -5.9377
       150                         -0.2181460              -5.9361
       151                         -0.2058616              -5.6018
       152                         -0.1896286              -5.1601
       153                         -0.1841849              -5.0119
       ...                                ...                  ...
       280                          0.7404625              20.1490
      -------------------------------------------------------------
                  HL-Gap            0.0676404 Eh            1.8406 eV

     #   Z          covCN         q      C6AA      α(0)
     1   6 C        3.761    -0.105    22.548     6.769
     2   6 C        3.902     0.025    20.099     6.373
     3   6 C        3.761    -0.105    22.550     6.769
     4   6 C        3.761    -0.107    22.586     6.775
     5   6 C        2.972    -0.001    28.053     8.688
     6   6 C        2.931    -0.040    28.997     8.831
     7   6 C        2.909    -0.054    29.350     8.883
     8   6 C        3.074     0.042    26.979     8.516
     9   6 C        3.065    -0.019    28.419     8.742
    10   6 C        2.918    -0.045    29.108     8.847
    11   6 C        3.066    -0.019    28.423     8.742
    12   6 C        2.918    -0.045    29.112     8.848
    13   6 C        2.972    -0.001    28.052     8.688
    14   6 C        3.902     0.025    20.099     6.373
    15   6 C        3.761    -0.107    22.587     6.775
    16   6 C        3.761    -0.105    22.546     6.769
    17   6 C        3.761    -0.105    22.546     6.769
    18   6 C        2.931    -0.040    28.992     8.830
    19   6 C        2.908    -0.054    29.343     8.882
    20   6 C        3.073     0.042    26.975     8.516
    21   7 N        2.800    -0.043    22.067     6.977
    22   6 C        2.912     0.073    26.361     8.419
    23   6 C        2.920    -0.043    29.062     8.840
    24   6 C        2.920    -0.026    28.649     8.777
    25   6 C        2.971    -0.020    28.493     8.756
    26   6 C        2.829     0.225    23.278     7.906
    27   8 O        0.858    -0.431    22.308     6.332
    28   6 C        2.971    -0.019    28.485     8.754
    29   6 C        2.923    -0.017    28.441     8.746
    30   6 C        2.920    -0.043    29.057     8.840
    31   6 C        2.912     0.073    26.371     8.421
    32   7 N        2.800    -0.043    22.067     6.977
    33   6 C        3.074     0.042    26.979     8.516
    34   6 C        2.909    -0.054    29.353     8.884
    35   6 C        2.931    -0.040    28.998     8.831
    36   6 C        2.972    -0.001    28.054     8.688
    37   6 C        3.902     0.025    20.099     6.373
    38   6 C        3.761    -0.105    22.547     6.769
    39   6 C        3.761    -0.105    22.550     6.769
    40   6 C        3.761    -0.107    22.585     6.775
    41   6 C        2.918    -0.045    29.109     8.847
    42   6 C        3.065    -0.019    28.420     8.742
    43   6 C        3.066    -0.019    28.424     8.742
    44   6 C        2.918    -0.045    29.112     8.848
    45   6 C        2.972    -0.001    28.053     8.688
    46   6 C        3.902     0.025    20.100     6.373
    47   6 C        3.761    -0.105    22.545     6.769
    48   6 C        3.761    -0.107    22.587     6.775
    49   6 C        3.761    -0.105    22.547     6.769
    50   6 C        2.931    -0.040    28.993     8.831
    51   6 C        2.908    -0.054    29.343     8.882
    52   6 C        3.073     0.042    26.976     8.516
    53   6 C        2.920    -0.043    29.068     8.841
    54   6 C        2.920    -0.026    28.650     8.778
    55   6 C        2.923    -0.017    28.431     8.744
    56   6 C        2.919    -0.042    29.051     8.839
    57   1 H        0.925     0.036     2.506     2.475
    58   1 H        0.925     0.038     2.478     2.462
    59   1 H        0.925     0.032     2.557     2.500
    60   1 H        0.925     0.036     2.502     2.474
    61   1 H        0.925     0.038     2.479     2.462
    62   1 H        0.925     0.032     2.553     2.499
    63   1 H        0.925     0.036     2.508     2.477
    64   1 H        0.925     0.036     2.506     2.475
    65   1 H        0.925     0.036     2.496     2.471
    66   1 H        0.926     0.032     2.560     2.502
    67   1 H        0.926     0.028     2.614     2.528
    68   1 H        0.926     0.040     2.453     2.449
    69   1 H        0.926     0.040     2.449     2.447
    70   1 H        0.925     0.036     2.503     2.474
    71   1 H        0.925     0.036     2.504     2.474
    72   1 H        0.925     0.037     2.494     2.470
    73   1 H        0.925     0.032     2.552     2.498
    74   1 H        0.925     0.035     2.511     2.478
    75   1 H        0.925     0.038     2.478     2.462
    76   1 H        0.925     0.038     2.478     2.462
    77   1 H        0.925     0.035     2.511     2.478
    78   1 H        0.925     0.032     2.555     2.500
    79   1 H        0.926     0.031     2.574     2.509
    80   1 H        0.926     0.027     2.632     2.537
    81   1 H        0.926     0.053     2.280     2.361
    82   1 H        0.926     0.048     2.342     2.393
    83   1 H        0.926     0.048     2.345     2.395
    84   1 H        0.926     0.051     2.305     2.374
    85   1 H        0.926     0.028     2.612     2.527
    86   1 H        0.926     0.032     2.561     2.502
    87   1 H        0.925     0.038     2.478     2.462
    88   1 H        0.925     0.032     2.557     2.501
    89   1 H        0.925     0.036     2.505     2.475
    90   1 H        0.925     0.036     2.502     2.474
    91   1 H        0.925     0.032     2.553     2.499
    92   1 H        0.925     0.038     2.479     2.462
    93   1 H        0.925     0.036     2.508     2.477
    94   1 H        0.925     0.036     2.507     2.476
    95   1 H        0.925     0.036     2.496     2.471
    96   1 H        0.926     0.040     2.454     2.450
    97   1 H        0.926     0.040     2.450     2.448
    98   1 H        0.925     0.038     2.477     2.461
    99   1 H        0.925     0.035     2.512     2.479
   100   1 H        0.925     0.032     2.554     2.499
   101   1 H        0.925     0.037     2.494     2.470
   102   1 H        0.925     0.036     2.503     2.474
   103   1 H        0.925     0.036     2.504     2.475
   104   1 H        0.925     0.032     2.553     2.499
   105   1 H        0.925     0.036     2.509     2.477
   106   1 H        0.925     0.038     2.480     2.463
   107   1 H        0.926     0.031     2.576     2.510
   108   1 H        0.926     0.027     2.631     2.537
   109   1 H        0.926     0.053     2.280     2.361
   110   1 H        0.926     0.048     2.349     2.397
   111   1 H        0.926     0.049     2.331     2.387
   112   1 H        0.926     0.051     2.302     2.373

molecular dipole:
                 x           y           z       tot (Debye)
 q only:       -0.038      -2.019       0.056
   full:       -0.034      -1.890       0.051       4.806

 projected vibrational frequencies (cm⁻¹)
eigval :       -0.00    -0.00    -0.00    -0.00     0.00     0.00
eigval :        2.79     7.56    10.20    20.35    24.33    27.63
eigval :       32.92    35.99    37.81    39.84    43.17    57.39
eigval :       63.58    73.18    75.66    82.44    82.99    93.28
eigval :      105.95   108.52   119.92   122.41   146.32   159.51
eigval :      165.41   166.22   167.62   183.18   185.19   191.21
eigval :      193.07   195.13   203.42   205.23   224.65   225.95
eigval :      227.32   230.06   230.85   233.41   245.90   251.53
eigval :      259.39   260.55   266.53   271.67   288.24   289.83
eigval :      305.99   311.86   318.09   320.14   322.55   325.85
eigval :      330.55   339.09   342.05   343.30   356.21   358.65
eigval :      359.84   360.67   380.15   386.05   387.53   392.53
eigval :      397.69   400.78   410.69   411.02   421.25   430.25
eigval :      440.79   441.97   443.10   443.86   457.82   459.57
eigval :      465.79   466.47   468.84   471.66   496.09   500.46
eigval :      519.31   520.16   554.48   570.24   575.46   581.27
eigval :      584.49   585.19   593.53   600.76   610.79   622.73
eigval :      628.55   641.08   641.54   647.54   665.16   686.08
eigval :      688.28   689.27   703.57   707.50   709.59   717.01
eigval :      721.91   730.81   734.58   764.44   817.20   819.15
eigval :      822.24   825.06   830.05   830.94   831.93   832.38
eigval :      867.02   868.83   872.64   872.96   873.89   876.13
eigval :      877.36   880.98   898.61   910.41   912.07   914.09
eigval :      919.70   922.66   923.92   924.72   926.03   929.06
eigval :      931.49   937.71   938.30   943.90   958.66   959.81
eigval :      959.88   960.34   960.68   961.77   962.53   962.79
eigval :      963.23   963.59   964.20   964.96   965.78  1012.75
eigval :     1027.05  1030.72  1030.77  1034.93  1035.38  1035.44
eigval :     1036.02  1036.03  1036.47  1040.78  1040.97  1113.64
eigval :     1113.95  1128.29  1128.34  1134.30  1135.30  1141.36
eigval :     1141.70  1174.96  1175.43  1176.02  1180.16  1189.18
eigval :     1208.65  1217.05  1224.89  1225.77  1226.03  1226.06
eigval :     1229.31  1229.40  1230.23  1230.30  1234.83  1234.89
eigval :     1242.19  1243.46  1254.78  1257.57  1260.30  1262.72
eigval :     1266.30  1283.04  1283.27  1303.21  1303.70  1304.62
eigval :     1304.72  1320.11  1323.45  1344.57  1344.70  1355.27
eigval :     1355.33  1368.88  1371.56  1399.01  1399.18  1402.42
eigval :     1402.46  1402.97  1403.18  1403.43  1403.84  1404.99
eigval :     1405.82  1413.71  1414.33  1426.68  1427.26  1427.52
eigval :     1427.94  1434.71  1436.55  1479.60  1479.61  1482.23
eigval :     1482.26  1484.26  1486.71  1488.91  1489.79  1489.90
eigval :     1490.39  1492.71  1492.79  1493.07  1493.21  1499.24
eigval :     1499.69  1499.81  1500.10  1502.28  1503.59  1503.71
eigval :     1503.72  1511.14  1511.22  1511.74  1512.15  1516.69
eigval :     1518.12  1518.77  1518.99  1549.67  1550.87  1569.78
eigval :     1570.00  1574.84  1576.44  1581.55  1582.09  1602.34
eigval :     1602.52  1613.93  1614.14  1640.27  3017.93  3018.60
eigval :     3018.73  3018.93  3019.86  3019.88  3019.93  3020.08
eigval :     3022.87  3023.12  3023.21  3023.39  3024.61  3024.79
eigval :     3024.92  3024.99  3026.73  3026.94  3026.97  3027.23
eigval :     3030.29  3030.32  3030.41  3030.51  3034.67  3035.03
eigval :     3035.13  3035.26  3043.44  3043.73  3043.87  3044.21
eigval :     3046.87  3046.92  3047.00  3047.53  3077.84  3077.98
eigval :     3078.89  3079.29  3083.68  3084.29  3084.99  3086.55
eigval :     3090.88  3091.34  3091.82  3092.40  3098.02  3098.47
eigval :     3099.87  3100.59  3115.14  3115.58  3118.59  3118.67

   temp. (K)  partition function   enthalpy   heat capacity  entropy
                                   cal/mol     cal/K/mol   cal/K/mol   J/K/mol
 298.15  VIB  0.142E+26            32041.709    197.649    199.622
         ROT  0.230E+09              888.752      2.981     41.246
         INT  0.328E+34            32930.461    200.630    240.868
         TR   0.194E+29             1481.254      4.968     45.651
         TOT                       34411.7154   205.5980   286.5193  1198.7968

       T/K    H(0)-H(T)+PV         H(T)/Eh          T*S/Eh         G(T)/Eh
   ------------------------------------------------------------------------
    298.15    0.548386E-01    0.988033E+00    0.136135E+00    0.851899E+00
   ------------------------------------------------------------------------

         :::::::::::::::::::::::::::::::::::::::::::::::::::::
         ::                  THERMODYNAMIC                  ::
         :::::::::::::::::::::::::::::::::::::::::::::::::::::
         :: total free energy        -151.304325540833 Eh   ::
         ::.................................................::
         :: total energy             -152.156224413206 Eh   ::
         :: zero point energy           0.933194889334 Eh   ::
         :: G(RRHO) w/o ZPVE           -0.081296016961 Eh   ::
         :: G(RRHO) contrib.            0.851898872372 Eh   ::
         :::::::::::::::::::::::::::::::::::::::::::::::::::::

           -------------------------------------------------
          | TOTAL ENERGY             -152.156224413206 Eh   |
          | TOTAL ENTHALPY           -151.168190964728 Eh   |
          | TOTAL FREE ENERGY        -151.304325540833 Eh   |
          | GRADIENT NORM               0.000051308859 Eh/α |
          | HOMO-LUMO GAP               1.840588592242 eV   |
           -------------------------------------------------

 * finished run on 2025/08/26 at 05:25:30.910
