   * xtb version 6.7.1 (edcfbbe) compiled by 'albert@albert-system' on 2024-07-22

   ID    Z sym.   atoms
    1    6 C      1-20, 22-26, 28-31, 33-56
    2    7 N      21, 32
    3    8 O      27
    4    1 H      57-112

          program call               : xtb data2507/toluene/t–BuCz2BP/t–BuCz2BP.xyz --gfn 2 --gbsa toluene --ohess vtight --parallel 40 --molden --ceasefiles --namespace data2507/toluene/t–BuCz2BP/t–BuCz2BP_toluene_S0_preOpt
      * Solvation model:               GBSA
        Solvent                        toluene
        Solvent mass                       9.2140E+01 g/mol
          :  Hamiltonian                  GFN2-xTB          :
 * total energy  :  -152.1285253 Eh     change       -0.1019225E-07 Eh
 * total energy  :  -152.1456213 Eh     change       -0.1709600E-01 Eh
 * total energy  :  -152.1504865 Eh     change       -0.4865197E-02 Eh
 * total energy  :  -152.1517621 Eh     change       -0.1275568E-02 Eh
 * total energy  :  -152.1524682 Eh     change       -0.7061047E-03 Eh
 * total energy  :  -152.1527167 Eh     change       -0.2484737E-03 Eh
 * total energy  :  -152.1528591 Eh     change       -0.1424500E-03 Eh
 * total energy  :  -152.1529673 Eh     change       -0.1081912E-03 Eh
 * total energy  :  -152.1530681 Eh     change       -0.1007758E-03 Eh
 * total energy  :  -152.1531687 Eh     change       -0.1005743E-03 Eh
 * total energy  :  -152.1549764 Eh     change       -0.1064607E-05 Eh
 * total energy  :  -152.1549775 Eh     change       -0.1115674E-05 Eh
 * total energy  :  -152.1549787 Eh     change       -0.1190510E-05 Eh
 * total energy  :  -152.1549800 Eh     change       -0.1302596E-05 Eh
 * total energy  :  -152.1549815 Eh     change       -0.1442086E-05 Eh
 * total energy  :  -152.1549831 Eh     change       -0.1615216E-05 Eh
 * total energy  :  -152.1549849 Eh     change       -0.1824569E-05 Eh
 * total energy  :  -152.1549870 Eh     change       -0.2068121E-05 Eh
 * total energy  :  -152.1549870 Eh     change       -0.6992593E-08 Eh
   *** GEOMETRY OPTIMIZATION CONVERGED AFTER 185 ITERATIONS ***

 final structure:
================
112
 xtb: 6.7.1 (edcfbbe)
C           -9.27971757694792       -3.55116724496873       -2.66006107711237
C           -8.70681574044324       -3.51825043645584       -1.23519078999589
C           -8.02632152791401       -4.85814787856118       -0.91723543958033
C           -9.87227538516482       -3.33594385275123       -0.25772884135827
C           -7.67963420454303       -2.39844872027325       -1.13647021515600
C           -6.54542432311329       -2.44438235036458       -1.95827176426691
C           -5.55943285288686       -1.47805312238645       -1.93346708630471
C           -5.70427791607227       -0.42210037422866       -1.04722727871154
C           -6.85075005951457       -0.33541115485294       -0.23075751973837
C           -7.82620074046461       -1.32288443171967       -0.27503307971109
C           -6.72958563571623        0.88757218746497        0.51686153539619
C           -7.51862390709405        1.49091478191628        1.48344308648679
C           -7.11711646467617        2.68733601408817        2.06432458913509
C           -8.00404955252223        3.33302806284867        3.12110598503895
C           -8.18411524919361        2.35544736925733        4.29240667614337
C           -9.37065270731733        3.65396746496355        2.49728636075388
C           -7.41847888348553        4.63473349169791        3.67724458878163
C           -5.90261365825518        3.24816821494163        1.65955052314160
C           -5.09632629193003        2.66867580433111        0.69599579094419
C           -5.52077173123627        1.48990837786357        0.10694883596053
N           -4.90355728693287        0.68792632791880       -0.83874312469475
C           -3.68673703279637        0.96046692450211       -1.46417461374906
C           -2.69299239604403       -0.01623696147341       -1.53795779141695
C           -1.47659401531325        0.27078713578231       -2.12316295009156
C           -1.23118857761782        1.53554714684176       -2.65722476648342
C            0.05803646169221        1.88485307315445       -3.29911458986878
O            0.09522148765892        2.58121506285249       -4.30594049216559
C            1.29455824256955        1.38997912414004       -2.65977192381209
C            1.35773340203388        1.07304682387613       -1.30101981386883
C            2.54827406583423        0.67556534515580       -0.73109309963399
C            3.70773129130945        0.58468441870969       -1.50381229849519
N            4.91102424699749        0.19497034820989       -0.92126640784672
C            5.09590659383344       -0.88639504141228       -0.07492545433201
C            4.20983513767819       -1.87069331820267        0.32808887491856
C            4.67704040512370       -2.87405131308503        1.15891261999704
C            6.00330698862078       -2.93642596761023        1.59503191812797
C            6.51226584256514       -4.03877021232969        2.51491258459283
C            5.42520381865892       -5.04910672845871        2.89440134986850
C            7.64326498623687       -4.80106256671529        1.80794679578358
C            7.04424357405171       -3.40343515207069        3.80851227669088
C            6.88824035376545       -1.95720518853409        1.16079113960694
C            6.44733969552710       -0.94116310951543        0.32815139096886
C            7.10699335081632        0.17402354274971       -0.29757697665965
C            8.41080252605272        0.64930742683044       -0.24744014556508
C            8.75356822287936        1.79651299832135       -0.94547685029060
C           10.16216982831140        2.37463042287024       -0.93634378651646
C           10.69800381656327        2.41958625948287       -2.37517289011044
C           11.13423339125631        1.54293703089082       -0.09364261910179
C           10.12102256111019        3.79470795602189       -0.35189502083920
C            7.75563485838039        2.45471819305225       -1.67640945856232
C            6.45214843762745        2.00413706302844       -1.74388973383615
C            6.12860167526371        0.84154212465888       -1.06212760736996
C            3.65046541151189        0.90456949186474       -2.86219667108040
C            2.46076673951091        1.30939861570312       -3.42505152929184
C           -2.24322066499231        2.49447824677193       -2.62072471998973
C           -3.45290009965411        2.21862094764563       -2.02065480833214
H           -8.50355207741463       -3.74468461889057       -3.39548222116213
H          -10.03124356236327       -4.33368965421924       -2.74409617333590
H           -9.74577441003663       -2.59729858766932       -2.90034516193621
H           -7.23042471454296       -5.07799079685628       -1.62341796249416
H           -8.75282273023378       -5.66706615265427       -0.96215981158658
H           -7.59765821563685       -4.83395219474103        0.08295980500167
H          -10.41730521991636       -2.41756770470036       -0.46430532886303
H           -9.52043140765596       -3.31958223354151        0.77149556960506
H          -10.56631850730198       -4.16776224600308       -0.36249230131270
H           -6.42636755409049       -3.26421842882308       -2.65031058549257
H           -4.71165432492015       -1.54355676701728       -2.59901082962176
H           -8.68759175694880       -1.22531191822769        0.36432030849517
H           -8.43988175493394        1.01230665041959        1.77763656128817
H           -8.66982739572018        1.43763987445873        3.97287996201121
H           -7.21646913816901        2.09816394386799        4.71923078432961
H           -8.79470590566599        2.81025195148957        5.06988233342702
H           -9.86125321344014        2.75499638470534        2.13427205751336
H           -9.25008526607336        4.33801271823372        1.65925645228131
H          -10.01934519714349        4.12264547054701        3.23467423811186
H           -8.09673209436241        5.04647551403510        4.42231698420738
H           -7.29412122042772        5.37672572001241        2.89162726230572
H           -6.45898096844030        4.45900175269171        4.15874981672806
H           -5.55868307808330        4.16648134238622        2.10596632119688
H           -4.15670471594409        3.12743604569748        0.42645538790713
H           -2.87372801566577       -0.99144246711333       -1.11187542165124
H           -0.71537545677392       -0.49303992706244       -2.18053096612724
H            0.47950253113715        1.17506961644214       -0.68183650253869
H            2.59869703911394        0.46082981444659        0.32561729831036
H            3.18131967639908       -1.87225707559285       -0.00028541680686
H            3.97389991449907       -3.63030467507817        1.46623185177127
H            5.84945099973522       -5.80605964183056        3.55143996339583
H            4.60779407258386       -4.56577742982782        3.42484991723996
H            5.03275222965867       -5.55258589200978        2.01362717514450
H            8.00522145703077       -5.60796991847449        2.44203480761938
H            7.28196527190103       -5.23020259831487        0.87521501799390
H            8.48042310300727       -4.14738598109990        1.57939962230828
H            6.25268276017394       -2.84813151325022        4.30831101650570
H            7.86363462456977       -2.71916636374716        3.60603168875884
H            7.40453009133032       -4.17566029771476        4.48527132252365
H            7.92562458554727       -1.97530821967726        1.45684825806763
H            9.13220849386471        0.11371083951505        0.34660595178502
H           11.71211300354912        2.81407685266736       -2.38502737424799
H           10.08193761633144        3.05116175600235       -3.00936645319574
H           10.71271766455939        1.41863482261513       -2.80252497192222
H           12.12267366262004        1.99716571481253       -0.12764843902054
H           10.81803849042911        1.50629310157324        0.94649822981349
H           11.21751355628079        0.52905262818921       -0.47877460324241
H            9.71738115759740        3.77383701343429        0.65873562169605
H            9.50036342946362        4.45438955503562       -0.95212419550781
H           11.12471968975133        4.21343574961865       -0.31420756418670
H            8.00113180333994        3.35935537616942       -2.21166288470884
H            5.71142191795381        2.55679775482297       -2.30215199147270
H            4.53949897518461        0.81812297325259       -3.46806525728535
H            2.40442559460910        1.56000177933569       -4.47455600140087
H           -2.05777374322581        3.46211144536969       -3.06398347556285
H           -4.23208869908608        2.96516344827447       -1.99585937899203

          :  Hamiltonian                  GFN2-xTB          :
         :: gradient norm              0.000067750183 Eh/a0 ::
         :: HOMO-LUMO gap              1.797382937354 eV    ::
         :: SCC energy              -154.780488463596 Eh    ::
         :: -> dispersion             -0.137973675982 Eh    ::
         :: -> Gsolv                  -0.062179856373 Eh    ::
         :: repulsion energy           2.625501486945 Eh    ::

    * Orbital Energies and Occupations

         #    Occupation            Energy/Eh            Energy/eV
      -------------------------------------------------------------
         1        2.0000           -0.7081104             -19.2687
       ...           ...                  ...                  ...
       130        2.0000           -0.4140844             -11.2678
       131        2.0000           -0.4125076             -11.2249
       132        2.0000           -0.4087580             -11.1229
       133        2.0000           -0.4082984             -11.1104
       134        2.0000           -0.4072307             -11.0813
       135        2.0000           -0.4067104             -11.0672
       136        2.0000           -0.3967254             -10.7954
       137        2.0000           -0.3959227             -10.7736
       138        2.0000           -0.3944808             -10.7344
       139        2.0000           -0.3749364             -10.2025
       140        2.0000           -0.3741371             -10.1808
       141        2.0000           -0.3598621              -9.7923
       142        2.0000           -0.3582064              -9.7473 (HOMO)
       143                         -0.2921538              -7.9499 (LUMO)
       144                         -0.2472204              -6.7272
       145                         -0.2413691              -6.5680
       146                         -0.2401618              -6.5351
       147                         -0.2381053              -6.4792
       148                         -0.2372802              -6.4567
       149                         -0.2189047              -5.9567
       150                         -0.2181403              -5.9359
       151                         -0.2058963              -5.6027
       152                         -0.1897706              -5.1639
       153                         -0.1838348              -5.0024
       ...                                ...                  ...
       280                          0.7435303              20.2325
      -------------------------------------------------------------
                  HL-Gap            0.0660526 Eh            1.7974 eV

     #   Z          covCN         q      C6AA      α(0)
     1   6 C        3.761    -0.105    22.543     6.768
     2   6 C        3.902     0.025    20.100     6.373
     3   6 C        3.761    -0.105    22.549     6.769
     4   6 C        3.761    -0.106    22.581     6.774
     5   6 C        2.972    -0.002    28.066     8.690
     6   6 C        2.931    -0.040    28.994     8.831
     7   6 C        2.908    -0.054    29.353     8.884
     8   6 C        3.074     0.043    26.961     8.513
     9   6 C        3.065    -0.020    28.432     8.744
    10   6 C        2.918    -0.045    29.107     8.847
    11   6 C        3.064    -0.019    28.421     8.742
    12   6 C        2.920    -0.041    29.008     8.832
    13   6 C        2.972    -0.002    28.065     8.690
    14   6 C        3.902     0.025    20.100     6.373
    15   6 C        3.761    -0.105    22.546     6.769
    16   6 C        3.761    -0.105    22.543     6.768
    17   6 C        3.761    -0.107    22.583     6.774
    18   6 C        2.928    -0.045    29.109     8.848
    19   6 C        2.909    -0.055    29.368     8.886
    20   6 C        3.074     0.043    26.968     8.514
    21   7 N        2.800    -0.045    22.110     6.984
    22   6 C        2.912     0.072    26.385     8.423
    23   6 C        2.920    -0.043    29.058     8.840
    24   6 C        2.920    -0.026    28.654     8.778
    25   6 C        2.971    -0.018    28.452     8.749
    26   6 C        2.829     0.225    23.272     7.905
    27   8 O        0.858    -0.429    22.277     6.328
    28   6 C        2.971    -0.020    28.506     8.758
    29   6 C        2.920    -0.026    28.648     8.777
    30   6 C        2.920    -0.042    29.052     8.839
    31   6 C        2.912     0.074    26.344     8.416
    32   7 N        2.800    -0.043    22.068     6.977
    33   6 C        3.072     0.042    26.977     8.516
    34   6 C        2.909    -0.055    29.359     8.885
    35   6 C        2.928    -0.044    29.103     8.847
    36   6 C        2.972    -0.001    28.050     8.687
    37   6 C        3.902     0.025    20.099     6.373
    38   6 C        3.761    -0.107    22.589     6.775
    39   6 C        3.761    -0.105    22.547     6.769
    40   6 C        3.761    -0.105    22.547     6.769
    41   6 C        2.920    -0.040    29.000     8.831
    42   6 C        3.064    -0.019    28.406     8.740
    43   6 C        3.064    -0.019    28.419     8.742
    44   6 C        2.918    -0.044    29.103     8.847
    45   6 C        2.972    -0.001    28.050     8.687
    46   6 C        3.902     0.025    20.099     6.373
    47   6 C        3.761    -0.105    22.548     6.769
    48   6 C        3.761    -0.107    22.585     6.775
    49   6 C        3.761    -0.105    22.547     6.769
    50   6 C        2.931    -0.040    28.986     8.829
    51   6 C        2.908    -0.054    29.341     8.882
    52   6 C        3.073     0.043    26.967     8.514
    53   6 C        2.919    -0.042    29.042     8.837
    54   6 C        2.924    -0.016    28.416     8.742
    55   6 C        2.924    -0.018    28.455     8.748
    56   6 C        2.920    -0.042    29.033     8.836
    57   1 H        0.925     0.035     2.511     2.478
    58   1 H        0.925     0.038     2.478     2.462
    59   1 H        0.925     0.032     2.559     2.502
    60   1 H        0.925     0.036     2.506     2.475
    61   1 H        0.925     0.038     2.481     2.463
    62   1 H        0.925     0.033     2.551     2.497
    63   1 H        0.925     0.035     2.512     2.479
    64   1 H        0.925     0.036     2.507     2.476
    65   1 H        0.925     0.037     2.496     2.471
    66   1 H        0.926     0.031     2.575     2.510
    67   1 H        0.926     0.027     2.636     2.539
    68   1 H        0.926     0.038     2.470     2.458
    69   1 H        0.926     0.032     2.559     2.502
    70   1 H        0.925     0.036     2.497     2.471
    71   1 H        0.925     0.032     2.558     2.501
    72   1 H        0.925     0.038     2.482     2.463
    73   1 H        0.925     0.036     2.500     2.472
    74   1 H        0.925     0.032     2.561     2.503
    75   1 H        0.925     0.038     2.482     2.464
    76   1 H        0.925     0.037     2.493     2.469
    77   1 H        0.925     0.035     2.516     2.481
    78   1 H        0.925     0.035     2.515     2.480
    79   1 H        0.926     0.038     2.477     2.461
    80   1 H        0.926     0.026     2.641     2.541
    81   1 H        0.926     0.053     2.285     2.364
    82   1 H        0.926     0.048     2.344     2.394
    83   1 H        0.926     0.050     2.316     2.380
    84   1 H        0.926     0.053     2.277     2.360
    85   1 H        0.926     0.028     2.614     2.528
    86   1 H        0.926     0.039     2.460     2.453
    87   1 H        0.925     0.037     2.492     2.469
    88   1 H        0.925     0.036     2.509     2.477
    89   1 H        0.925     0.035     2.512     2.479
    90   1 H        0.925     0.038     2.480     2.463
    91   1 H        0.925     0.032     2.559     2.502
    92   1 H        0.925     0.036     2.498     2.472
    93   1 H        0.925     0.032     2.556     2.500
    94   1 H        0.925     0.036     2.499     2.472
    95   1 H        0.925     0.038     2.480     2.463
    96   1 H        0.926     0.033     2.550     2.497
    97   1 H        0.926     0.039     2.458     2.452
    98   1 H        0.925     0.038     2.478     2.462
    99   1 H        0.925     0.036     2.508     2.476
   100   1 H        0.925     0.032     2.551     2.498
   101   1 H        0.925     0.037     2.493     2.469
   102   1 H        0.925     0.036     2.507     2.476
   103   1 H        0.925     0.036     2.505     2.475
   104   1 H        0.925     0.032     2.554     2.499
   105   1 H        0.925     0.035     2.510     2.477
   106   1 H        0.925     0.038     2.476     2.461
   107   1 H        0.926     0.031     2.569     2.507
   108   1 H        0.926     0.027     2.630     2.536
   109   1 H        0.926     0.052     2.298     2.370
   110   1 H        0.926     0.052     2.301     2.372
   111   1 H        0.926     0.047     2.359     2.402
   112   1 H        0.926     0.051     2.310     2.377

molecular dipole:
                 x           y           z       tot (Debye)
 q only:        0.165      -1.062       1.633
   full:        0.166      -1.008       1.535       4.686

 projected vibrational frequencies (cm⁻¹)
eigval :       -0.00    -0.00    -0.00    -0.00     0.00     0.00
eigval :        5.36     6.84     8.06    20.19    21.84    25.10
eigval :       31.83    32.87    33.84    34.32    39.62    53.83
eigval :       62.78    69.54    74.49    78.19    82.57    90.28
eigval :      103.18   105.23   120.53   123.87   141.26   154.06
eigval :      158.07   161.51   164.50   174.12   180.97   185.94
eigval :      186.98   191.62   194.33   196.50   211.12   220.20
eigval :      223.26   230.89   236.58   241.62   244.95   252.08
eigval :      262.79   266.01   271.45   278.69   281.88   298.79
eigval :      306.57   314.19   316.08   318.02   324.43   326.29
eigval :      328.08   336.11   338.29   345.94   356.11   356.62
eigval :      358.12   359.32   376.56   384.14   387.67   390.51
eigval :      397.30   401.19   410.60   411.37   422.55   432.07
eigval :      441.63   442.70   443.34   444.38   458.15   460.17
eigval :      464.09   466.01   470.26   476.07   495.37   496.14
eigval :      518.96   519.53   553.46   569.83   575.95   582.13
eigval :      582.65   583.02   593.74   599.87   608.26   624.98
eigval :      628.85   639.97   640.95   646.83   663.83   686.04
eigval :      688.00   688.62   703.20   706.63   708.21   713.99
eigval :      720.89   731.60   734.82   764.31   815.60   816.81
eigval :      822.15   822.76   829.44   830.94   831.74   832.94
eigval :      868.93   870.36   872.64   872.82   876.34   878.76
eigval :      880.78   882.58   898.32   906.23   907.42   914.57
eigval :      915.56   921.73   923.72   924.73   926.38   928.44
eigval :      930.96   933.93   939.24   943.83   959.19   959.22
eigval :      959.96   960.04   960.42   960.99   961.59   961.73
eigval :      962.03   962.18   962.67   963.35   966.10  1012.97
eigval :     1026.71  1031.51  1032.00  1033.85  1035.03  1035.33
eigval :     1035.36  1036.27  1036.53  1039.20  1039.30  1114.24
eigval :     1114.91  1128.21  1129.45  1132.38  1134.21  1140.67
eigval :     1142.26  1174.54  1177.05  1177.75  1179.41  1189.69
eigval :     1209.77  1217.12  1225.38  1225.46  1225.49  1225.61
eigval :     1226.69  1227.51  1230.27  1230.78  1233.73  1233.91
eigval :     1246.32  1247.50  1254.66  1258.21  1259.36  1262.18
eigval :     1266.80  1283.50  1283.79  1298.74  1299.39  1304.59
eigval :     1305.15  1319.18  1324.60  1344.98  1345.16  1358.14
eigval :     1358.59  1369.17  1371.83  1398.47  1399.12  1401.59
eigval :     1402.00  1402.01  1402.93  1403.11  1403.50  1403.99
eigval :     1406.16  1413.52  1414.93  1426.07  1426.95  1427.62
eigval :     1427.69  1434.52  1436.37  1472.46  1472.68  1480.55
eigval :     1481.08  1483.78  1486.30  1488.31  1488.44  1489.35
eigval :     1489.87  1490.57  1491.90  1492.63  1492.98  1498.86
eigval :     1499.24  1499.84  1501.46  1501.49  1502.04  1502.42
eigval :     1504.02  1511.07  1511.14  1512.28  1512.70  1517.36
eigval :     1518.06  1518.18  1518.73  1549.60  1552.82  1570.63
eigval :     1570.78  1574.15  1579.45  1583.78  1584.67  1602.76
eigval :     1602.96  1615.45  1615.96  1639.98  3017.49  3018.35
eigval :     3018.51  3018.77  3019.02  3019.57  3019.62  3020.48
eigval :     3022.64  3022.70  3022.75  3023.78  3024.09  3024.42
eigval :     3024.48  3024.61  3026.40  3026.50  3026.72  3027.14
eigval :     3029.94  3030.02  3030.03  3030.70  3034.88  3034.90
eigval :     3035.11  3035.44  3042.83  3043.46  3044.57  3044.59
eigval :     3046.42  3046.89  3048.05  3048.10  3076.74  3078.62
eigval :     3078.96  3081.07  3081.23  3083.09  3083.46  3087.76
eigval :     3087.80  3089.55  3090.37  3091.59  3096.16  3097.56
eigval :     3097.65  3099.52  3115.94  3116.76  3116.97  3118.76

   temp. (K)  partition function   enthalpy   heat capacity  entropy
                                   cal/mol     cal/K/mol   cal/K/mol   J/K/mol
 298.15  VIB  0.317E+26            32178.115    197.285    200.619
         ROT  0.243E+09              888.752      2.981     41.349
         INT  0.769E+34            33066.868    200.266    241.968
         TR   0.194E+29             1481.254      4.968     45.651
         TOT                       34548.1217   205.2344   287.6190  1203.3978

       T/K    H(0)-H(T)+PV         H(T)/Eh          T*S/Eh         G(T)/Eh
   ------------------------------------------------------------------------
    298.15    0.550559E-01    0.987828E+00    0.136657E+00    0.851171E+00
   ------------------------------------------------------------------------

         :::::::::::::::::::::::::::::::::::::::::::::::::::::
         ::                  THERMODYNAMIC                  ::
         :::::::::::::::::::::::::::::::::::::::::::::::::::::
         :: total free energy        -151.303816435110 Eh   ::
         ::.................................................::
         :: total energy             -152.154986972469 Eh   ::
         :: zero point energy           0.932771657777 Eh   ::
         :: G(RRHO) w/o ZPVE           -0.081601120418 Eh   ::
         :: G(RRHO) contrib.            0.851170537359 Eh   ::
         :::::::::::::::::::::::::::::::::::::::::::::::::::::

           -------------------------------------------------
          | TOTAL ENERGY             -152.154986972469 Eh   |
          | TOTAL ENTHALPY           -151.167159378379 Eh   |
          | TOTAL FREE ENERGY        -151.303816435110 Eh   |
          | GRADIENT NORM               0.000067748489 Eh/α |
          | HOMO-LUMO GAP               1.797382938438 eV   |
           -------------------------------------------------

 * finished run on 2025/08/26 at 05:01:14.728
