   * xtb version 6.7.1 (edcfbbe) compiled by 'albert@albert-system' on 2024-07-22

   ID    Z sym.   atoms
    1    6 C      1-20, 22-26, 28-31, 33-56
    2    7 N      21, 32
    3    8 O      27
    4    1 H      57-112

          program call               : xtb data2507/toluene/t–BuCz2BP/t–BuCz2BP_toluene_S0_finalOpt.xtbopt.xyz --gfn 2 --uhf 2 --gbsa toluene --ohess vtight --parallel 40 --molden --ceasefiles --namespace data2507/toluene/t–BuCz2BP/t–BuCz2BP_toluene_T1_preOpt
      * Solvation model:               GBSA
        Solvent                        toluene
        Solvent mass                       9.2140E+01 g/mol
          :  Hamiltonian                  GFN2-xTB          :
 * total energy  :  -152.0700345 Eh     change       -0.2641940E-08 Eh
 * total energy  :  -152.0733776 Eh     change       -0.3343097E-02 Eh
 * total energy  :  -152.0742138 Eh     change       -0.8362053E-03 Eh
 * total energy  :  -152.0743168 Eh     change       -0.1029787E-03 Eh
 * total energy  :  -152.0743891 Eh     change       -0.7229117E-04 Eh
 * total energy  :  -152.0744505 Eh     change       -0.6134898E-04 Eh
 * total energy  :  -152.0745207 Eh     change       -0.7021837E-04 Eh
 * total energy  :  -152.0745661 Eh     change       -0.4540679E-04 Eh
 * total energy  :  -152.0745998 Eh     change       -0.3370784E-04 Eh
 * total energy  :  -152.0746301 Eh     change       -0.3033573E-04 Eh
 * total energy  :  -152.0756729 Eh     change       -0.3396417E-06 Eh
 * total energy  :  -152.0756732 Eh     change       -0.2986786E-06 Eh
 * total energy  :  -152.0756735 Eh     change       -0.2513446E-06 Eh
 * total energy  :  -152.0756737 Eh     change       -0.2260319E-06 Eh
 * total energy  :  -152.0756741 Eh     change       -0.3985271E-06 Eh
 * total energy  :  -152.0756744 Eh     change       -0.3060485E-06 Eh
 * total energy  :  -152.0756746 Eh     change       -0.2346049E-06 Eh
 * total energy  :  -152.0756748 Eh     change       -0.1829899E-06 Eh
 * total energy  :  -152.0756749 Eh     change       -0.8534053E-07 Eh
   *** GEOMETRY OPTIMIZATION CONVERGED AFTER 136 ITERATIONS ***

 final structure:
================
112
 xtb: 6.7.1 (edcfbbe)
C           -6.44861384809040       -4.70507317938030       -3.43084936276886
C           -6.77877149342241       -4.54790269788054       -1.93838614839417
C           -6.06953672858667       -5.64580042104366       -1.13062251402293
C           -8.28971743457753       -4.72921523583533       -1.76364041267163
C           -6.29248641262774       -3.18817759784322       -1.46176083375296
C           -4.92844454740628       -2.88005897670405       -1.56548593294644
C           -4.39874867119038       -1.67365794116031       -1.15456975172189
C           -5.26266313624787       -0.73509258186839       -0.60493387069102
C           -6.64635056540607       -1.01077783825161       -0.51302832087850
C           -7.15171823529895       -2.22957991989801       -0.93484713959349
C           -7.25702702392207        0.16825163627825        0.04677942421308
C           -8.56229940467707        0.49300687291611        0.37718001642382
C           -8.84365959794804        1.73375239594680        0.93980807043093
C          -10.25357304958473        2.15764209202482        1.32022611990002
C          -11.30154038349176        1.09180835631400        0.98504282151642
C          -10.61601163285986        3.44003258438565        0.55520262029325
C          -10.30729637223526        2.42244775091413        2.83286760607665
C           -7.78158080314296        2.61863512871971        1.17569105059570
C           -6.47245034003415        2.32139183228003        0.85571214643396
C           -6.20886992113978        1.09226238392253        0.26419733605199
N           -5.01303910100612        0.53687367190353       -0.13588580994527
C           -3.76255037250925        1.16041961601257       -0.08140276937653
C           -2.66417514383327        0.49488045135504        0.47804414541729
C           -1.43288613043069        1.09947007161970        0.52824441956136
C           -1.23750368268973        2.39451003231774        0.00706535583722
C            0.02749835444754        3.09972450134318        0.07741145119812
O            0.03881612381914        4.37432110378196        0.09032988829109
C            1.28052254659080        2.37154562468780        0.13401153459327
C            2.41956776614027        3.01635441691033        0.66258085150209
C            3.63685462397778        2.38892645194744        0.71153217791426
C            3.78373170148669        1.09255533899822        0.20020126101129
N            5.02322848078577        0.44662524828042        0.24265867442800
C            5.24922562325433       -0.84167455518444        0.67799730748004
C            4.36769652480524       -1.77848344403575        1.20200234760409
C            4.87515772547753       -3.00451676939692        1.58168015545087
C            6.23355362880752       -3.33435777192023        1.47091297878980
C            6.69398258709858       -4.71613500788442        1.90804523070576
C            6.36245138452099       -4.90993363929242        3.39582645419982
C            5.96271343525963       -5.77613393300222        1.06982056968230
C            8.20090011163295       -4.92153448725761        1.72544457513782
C            7.11098741789244       -2.37734314011050        0.97193212977663
C            6.62818222373518       -1.13891669529414        0.58204551490534
C            7.26095013037977        0.04387533393986        0.05559976073955
C            8.57251414337182        0.35429407676005       -0.26356148922978
C            8.87680773346409        1.60422923136625       -0.79286228297769
C           10.29481739332810        2.01341054596020       -1.15894623449580
C           10.35774650585264        2.31072468246748       -2.66517358062913
C           11.32425597238418        0.92366833130790       -0.84378764429745
C           10.67540561626172        3.27237389278621       -0.36436542150867
C            7.83083921317709        2.51311108688623       -1.00848187226176
C            6.51598565323907        2.23065665960249       -0.69882167041139
C            6.22971591109305        0.99158960818411       -0.13954135123433
C            2.67626072114687        0.45997312403358       -0.37911414371205
C            1.45560208201643        1.08663919678171       -0.41822209968844
C           -2.36722601091266        3.07155294769720       -0.50127511486995
C           -3.59525797975879        2.46650138566720       -0.56090513794102
H           -5.37765461686931       -4.66512461427207       -3.60864774151479
H           -6.81815953047112       -5.66124364274999       -3.79524005597571
H           -6.91972171383659       -3.91054548217679       -4.00638578622645
H           -4.99211469588825       -5.60552478201052       -1.26387489221699
H           -6.41555778568967       -6.62617986420051       -1.45112403620796
H           -6.28690939986004       -5.53257368331372       -0.07027586546459
H           -8.84231658661182       -3.99435844477586       -2.34463537650349
H           -8.57598312015158       -4.64931879487596       -0.71741862990944
H           -8.57752479896509       -5.71815601766540       -2.11475476568635
H           -4.25296037702845       -3.60702397788353       -1.98886017853179
H           -3.34586368607009       -1.46558853930008       -1.26795974449026
H           -8.20981786084672       -2.40989297502022       -0.84991006328319
H           -9.33936203144268       -0.22965126810651        0.19487190989376
H          -11.31659871064513        0.87913712740887       -0.08150384436284
H          -11.11369127315685        0.17117084849702        1.53268479831201
H          -12.28763345928747        1.45414362205773        1.26854037216522
H          -10.55675397843841        3.26803453403712       -0.51782802767190
H           -9.94585845402288        4.25734442625181        0.80646630085622
H          -11.63102951756071        3.74568656129673        0.80016217199024
H          -11.31462237124914        2.71193732955812        3.12470878954886
H           -9.62775467553915        3.21939592269965        3.12180252314476
H          -10.03282142104373        1.52436878351795        3.38297072011317
H           -7.98138756930490        3.57539180894312        1.63252472363955
H           -5.67893489696381        3.02060276921987        1.07152207525562
H           -2.80496049145852       -0.48564241252182        0.90962906577805
H           -0.61278938912011        0.59325007376547        1.01485611218312
H            2.29359200091818        4.01571288599771        1.05395715092448
H            4.48321205573318        2.87708012469352        1.17246100329878
H            3.31854884337515       -1.55452067289860        1.31963788941712
H            4.18624223315324       -3.73026310922622        1.98502107864364
H            6.71101528433983       -5.88450695982974        3.73100182855341
H            6.85209151123217       -4.14348016441171        3.99351494545443
H            5.29289098051209       -4.85114814103052        3.57695108300439
H            4.88668381385762       -5.72160851829458        1.20908445874885
H            6.17782008862610       -5.63367013443844        0.01251855737474
H            6.29297354825549       -6.77183392317692        1.35811968277313
H            8.76846573096541       -4.21483227043284        2.32659974689900
H            8.48728803098849       -4.81669871799797        0.68144769485029
H            8.46982346423379       -5.92569207203468        2.04709405298920
H            8.16596587712499       -2.57397503948526        0.88448020632910
H            9.33646019277165       -0.38634764688689       -0.09878510127437
H           11.37043164422116        2.59054867496062       -2.94769280118846
H            9.69163989685602        3.12443139605517       -2.93826105591653
H           10.07077411649963        1.42948342526018       -3.23581465085619
H           12.31734731630033        1.27694881639518       -1.11398667810758
H           11.33038121650626        0.68625415598336        0.21762547550314
H           11.12512793075347        0.01889476110366       -1.41341046822503
H           10.60957856660887        3.07732188069370        0.70432664294066
H           10.01959332799897        4.10594708460997       -0.59933812060468
H           11.69611191007082        3.56670059796264       -0.59927404079713
H            8.04829104599779        3.47745206358152       -1.44063092120633
H            5.73523105237307        2.94879587473691       -0.89840277497977
H            2.80183205284159       -0.51197539448598       -0.83417927158001
H            0.62861952699446        0.60641707903978       -0.91936569113980
H           -2.22522257572145        4.07785843180060       -0.86862040146973
H           -4.43478517472351        2.98021055159057       -1.00626847876823

          :  Hamiltonian                  GFN2-xTB          :
         :: gradient norm              0.000039285635 Eh/a0 ::
         :: HOMO-LUMO gap              0.713298904033 eV    ::
         :: SCC energy              -154.685273776515 Eh    ::
         :: -> dispersion             -0.137817129976 Eh    ::
         :: -> Gsolv                  -0.072550534807 Eh    ::
         :: repulsion energy           2.609598790915 Eh    ::

    * Orbital Energies and Occupations

         #    Occupation            Energy/Eh            Energy/eV
      -------------------------------------------------------------
         1        2.0000           -0.6842491             -18.6194
       ...           ...                  ...                  ...
       131        2.0000           -0.4128198             -11.2334
       132        2.0000           -0.4071717             -11.0797
       133        2.0000           -0.4054657             -11.0333
       134        2.0000           -0.4048611             -11.0168
       135        2.0000           -0.4040526             -10.9948
       136        2.0000           -0.3999178             -10.8823
       137        2.0000           -0.3989144             -10.8550
       138        2.0000           -0.3825553             -10.4099
       139        2.0000           -0.3825509             -10.4097
       140        1.9751           -0.3671788              -9.9914
       141        1.5715           -0.3639673              -9.9041
       142        1.4533           -0.3635157              -9.8918
       143        1.0000           -0.2763579              -7.5201 (HOMO)
       144        0.0000           -0.2501449              -6.8068 (LUMO)
       145        0.0000           -0.2487964              -6.7701
       146                         -0.2328683              -6.3367
       147                         -0.2279804              -6.2037
       148                         -0.2279795              -6.2036
       149                         -0.2219439              -6.0394
       150                         -0.2201710              -5.9912
       151                         -0.2044506              -5.5634
       152                         -0.1958931              -5.3305
       153                         -0.1924760              -5.2375
       154                         -0.1924717              -5.2374
       ...                                ...                  ...
       280                          0.7325633              19.9341
      -------------------------------------------------------------
                  HL-Gap            0.0262130 Eh            0.7133 eV

     #   Z          covCN         q      C6AA      α(0)
     1   6 C        3.761    -0.106    22.579     6.774
     2   6 C        3.902     0.027    20.070     6.368
     3   6 C        3.761    -0.106    22.581     6.774
     4   6 C        3.761    -0.109    22.639     6.783
     5   6 C        2.972     0.009    27.807     8.650
     6   6 C        2.929    -0.038    28.940     8.822
     7   6 C        2.908    -0.044    29.099     8.845
     8   6 C        3.080     0.043    26.940     8.509
     9   6 C        3.063    -0.015    28.315     8.726
    10   6 C        2.916    -0.039    28.980     8.828
    11   6 C        3.063    -0.015    28.315     8.726
    12   6 C        2.916    -0.039    28.982     8.828
    13   6 C        2.972     0.010    27.800     8.649
    14   6 C        3.902     0.027    20.070     6.368
    15   6 C        3.761    -0.110    22.642     6.783
    16   6 C        3.761    -0.106    22.577     6.773
    17   6 C        3.761    -0.106    22.576     6.773
    18   6 C        2.929    -0.038    28.934     8.821
    19   6 C        2.907    -0.044    29.087     8.843
    20   6 C        3.080     0.044    26.932     8.508
    21   7 N        2.800    -0.012    21.480     6.883
    22   6 C        2.912     0.043    27.041     8.527
    23   6 C        2.916    -0.044    29.081     8.843
    24   6 C        2.918    -0.043    29.065     8.841
    25   6 C        2.967    -0.018    28.455     8.750
    26   6 C        2.833     0.162    24.505     8.112
    27   8 O        0.858    -0.529    24.435     6.627
    28   6 C        2.967    -0.018    28.451     8.749
    29   6 C        2.923    -0.031    28.767     8.796
    30   6 C        2.915    -0.044    29.082     8.843
    31   6 C        2.912     0.043    27.038     8.527
    32   7 N        2.800    -0.012    21.480     6.884
    33   6 C        3.080     0.043    26.940     8.509
    34   6 C        2.908    -0.044    29.099     8.845
    35   6 C        2.929    -0.038    28.940     8.822
    36   6 C        2.972     0.009    27.807     8.650
    37   6 C        3.902     0.027    20.070     6.368
    38   6 C        3.761    -0.106    22.579     6.774
    39   6 C        3.761    -0.106    22.581     6.774
    40   6 C        3.761    -0.109    22.639     6.783
    41   6 C        2.916    -0.039    28.981     8.828
    42   6 C        3.063    -0.015    28.315     8.726
    43   6 C        3.063    -0.015    28.315     8.726
    44   6 C        2.916    -0.039    28.981     8.828
    45   6 C        2.972     0.010    27.800     8.649
    46   6 C        3.902     0.027    20.070     6.368
    47   6 C        3.761    -0.106    22.576     6.773
    48   6 C        3.761    -0.110    22.641     6.783
    49   6 C        3.761    -0.106    22.578     6.774
    50   6 C        2.929    -0.038    28.934     8.821
    51   6 C        2.907    -0.044    29.088     8.844
    52   6 C        3.080     0.044    26.932     8.508
    53   6 C        2.916    -0.044    29.081     8.843
    54   6 C        2.918    -0.043    29.063     8.840
    55   6 C        2.923    -0.031    28.768     8.796
    56   6 C        2.915    -0.044    29.082     8.843
    57   1 H        0.925     0.038     2.476     2.461
    58   1 H        0.925     0.042     2.428     2.437
    59   1 H        0.925     0.034     2.525     2.485
    60   1 H        0.925     0.038     2.473     2.459
    61   1 H        0.925     0.042     2.428     2.437
    62   1 H        0.925     0.035     2.518     2.482
    63   1 H        0.925     0.038     2.472     2.459
    64   1 H        0.925     0.038     2.469     2.457
    65   1 H        0.925     0.040     2.452     2.449
    66   1 H        0.926     0.041     2.441     2.443
    67   1 H        0.926     0.037     2.492     2.468
    68   1 H        0.926     0.051     2.306     2.375
    69   1 H        0.926     0.052     2.298     2.371
    70   1 H        0.925     0.039     2.466     2.456
    71   1 H        0.925     0.039     2.464     2.455
    72   1 H        0.925     0.040     2.449     2.447
    73   1 H        0.925     0.035     2.521     2.483
    74   1 H        0.925     0.038     2.482     2.464
    75   1 H        0.925     0.042     2.428     2.437
    76   1 H        0.925     0.042     2.425     2.435
    77   1 H        0.925     0.037     2.484     2.464
    78   1 H        0.925     0.035     2.518     2.482
    79   1 H        0.926     0.039     2.456     2.451
    80   1 H        0.926     0.035     2.511     2.478
    81   1 H        0.926     0.039     2.457     2.451
    82   1 H        0.926     0.034     2.524     2.485
    83   1 H        0.926     0.031     2.566     2.505
    84   1 H        0.926     0.037     2.486     2.466
    85   1 H        0.926     0.037     2.492     2.468
    86   1 H        0.926     0.041     2.441     2.443
    87   1 H        0.925     0.042     2.428     2.436
    88   1 H        0.925     0.034     2.524     2.485
    89   1 H        0.925     0.038     2.476     2.461
    90   1 H        0.925     0.038     2.473     2.459
    91   1 H        0.925     0.035     2.519     2.482
    92   1 H        0.925     0.042     2.428     2.437
    93   1 H        0.925     0.038     2.472     2.459
    94   1 H        0.925     0.038     2.469     2.457
    95   1 H        0.925     0.040     2.452     2.449
    96   1 H        0.926     0.051     2.306     2.374
    97   1 H        0.926     0.052     2.298     2.371
    98   1 H        0.925     0.042     2.425     2.435
    99   1 H        0.925     0.037     2.484     2.465
   100   1 H        0.925     0.035     2.518     2.482
   101   1 H        0.925     0.040     2.449     2.447
   102   1 H        0.925     0.039     2.466     2.456
   103   1 H        0.925     0.039     2.464     2.455
   104   1 H        0.925     0.035     2.521     2.483
   105   1 H        0.925     0.038     2.482     2.464
   106   1 H        0.925     0.042     2.429     2.437
   107   1 H        0.926     0.039     2.456     2.451
   108   1 H        0.926     0.035     2.511     2.478
   109   1 H        0.926     0.039     2.456     2.451
   110   1 H        0.926     0.034     2.524     2.484
   111   1 H        0.926     0.031     2.566     2.505
   112   1 H        0.926     0.037     2.487     2.466

molecular dipole:
                 x           y           z       tot (Debye)
 q only:       -0.036      -4.277      -0.043
   full:       -0.034      -4.065      -0.041      10.334

 projected vibrational frequencies (cm⁻¹)
eigval :       -0.00    -0.00    -0.00     0.00     0.00     0.00
eigval :        7.58     8.33     9.14    22.60    24.64    31.73
eigval :       32.71    33.33    35.02    35.69    42.03    50.16
eigval :       57.44    71.14    76.30    80.49    81.84    88.83
eigval :      106.25   112.74   117.62   120.17   143.34   152.55
eigval :      161.82   165.98   168.31   179.63   183.35   189.50
eigval :      191.51   195.52   200.07   203.21   213.06   223.64
eigval :      223.97   226.85   228.74   230.49   247.30   247.86
eigval :      256.19   256.66   264.88   272.53   284.27   293.37
eigval :      303.89   316.91   318.55   320.34   322.87   324.28
eigval :      329.86   338.70   339.47   343.60   355.37   355.71
eigval :      356.25   356.46   377.22   384.67   385.94   390.87
eigval :      392.81   401.84   402.71   403.39   403.83   419.68
eigval :      439.88   440.17   441.40   441.72   448.23   453.08
eigval :      464.50   464.99   467.21   468.56   492.97   493.45
eigval :      515.37   516.74   542.79   550.60   572.06   576.67
eigval :      583.06   584.50   585.38   592.23   598.44   608.72
eigval :      624.79   627.60   642.06   642.68   643.02   660.17
eigval :      674.38   692.17   692.47   701.10   707.30   708.49
eigval :      714.97   715.44   725.88   757.23   801.64   812.07
eigval :      823.62   824.77   825.33   827.21   829.29   830.09
eigval :      844.75   860.61   865.32   867.51   868.00   870.45
eigval :      871.41   871.70   889.40   903.35   908.51   911.01
eigval :      915.56   918.28   919.36   920.41   921.90   923.83
eigval :      924.20   929.50   935.47   940.45   947.87   958.80
eigval :      958.94   959.23   959.30   960.28   962.16   962.29
eigval :      963.51   963.63   963.68   964.24   964.68  1000.31
eigval :     1006.33  1028.89  1029.02  1031.79  1033.09  1033.42
eigval :     1035.17  1035.30  1035.83  1039.56  1039.58  1105.33
eigval :     1110.24  1125.29  1125.44  1130.47  1134.67  1135.69
eigval :     1137.62  1155.25  1155.49  1159.60  1167.76  1189.41
eigval :     1203.01  1216.57  1222.09  1222.37  1222.46  1222.54
eigval :     1226.00  1226.13  1226.43  1227.37  1227.53  1227.57
eigval :     1232.91  1237.25  1252.51  1254.29  1255.06  1257.88
eigval :     1261.71  1276.04  1277.55  1284.68  1285.03  1294.97
eigval :     1296.54  1321.64  1325.63  1331.68  1334.66  1346.04
eigval :     1349.09  1361.44  1363.39  1398.66  1398.82  1401.02
eigval :     1401.22  1401.44  1401.77  1402.54  1403.97  1405.18
eigval :     1406.23  1407.80  1415.09  1426.02  1426.30  1426.79
eigval :     1427.58  1428.91  1430.46  1432.12  1451.14  1455.09
eigval :     1455.27  1456.62  1473.40  1473.60  1474.75  1478.66
eigval :     1486.56  1487.66  1487.81  1487.83  1490.37  1490.51
eigval :     1490.82  1491.81  1496.75  1497.12  1497.29  1497.78
eigval :     1499.72  1500.84  1500.88  1501.34  1510.19  1510.32
eigval :     1510.46  1511.34  1515.80  1515.94  1516.52  1516.91
eigval :     1526.45  1553.33  1553.43  1565.03  1566.17  1568.05
eigval :     1568.09  1582.70  1587.89  1597.01  3021.69  3021.87
eigval :     3022.01  3022.16  3022.26  3022.61  3022.62  3022.69
eigval :     3025.33  3025.79  3025.81  3025.84  3026.71  3026.76
eigval :     3026.83  3027.06  3028.82  3029.43  3029.48  3029.61
eigval :     3032.28  3032.46  3032.52  3032.64  3037.04  3037.33
eigval :     3037.38  3037.48  3045.77  3046.25  3046.36  3046.58
eigval :     3048.88  3049.25  3049.38  3049.70  3072.13  3073.08
eigval :     3073.79  3074.63  3084.02  3084.50  3085.17  3085.29
eigval :     3086.23  3086.61  3087.11  3088.93  3097.66  3097.78
eigval :     3097.93  3098.49  3121.80  3122.62  3124.11  3124.93

   temp. (K)  partition function   enthalpy   heat capacity  entropy
                                   cal/mol     cal/K/mol   cal/K/mol   J/K/mol
 298.15  VIB  0.104E+26            32316.292    198.765    200.323
         ROT  0.120E+09              888.752      2.981     39.954
         INT  0.125E+34            33205.044    201.746    240.277
         TR   0.194E+29             1481.254      4.968     45.651
         TOT                       34686.2983   206.7140   285.9282  1196.3234

       T/K    H(0)-H(T)+PV         H(T)/Eh          T*S/Eh         G(T)/Eh
   ------------------------------------------------------------------------
    298.15    0.552761E-01    0.984625E+00    0.135854E+00    0.848771E+00
   ------------------------------------------------------------------------

         :::::::::::::::::::::::::::::::::::::::::::::::::::::
         ::                  THERMODYNAMIC                  ::
         :::::::::::::::::::::::::::::::::::::::::::::::::::::
         :: total free energy        -151.226903755999 Eh   ::
         ::.................................................::
         :: total energy             -152.075674988121 Eh   ::
         :: zero point energy           0.929348789479 Eh   ::
         :: G(RRHO) w/o ZPVE           -0.080577557356 Eh   ::
         :: G(RRHO) contrib.            0.848771232123 Eh   ::
         :::::::::::::::::::::::::::::::::::::::::::::::::::::

           -------------------------------------------------
          | TOTAL ENERGY             -152.075674988121 Eh   |
          | TOTAL ENTHALPY           -151.091050063889 Eh   |
          | TOTAL FREE ENERGY        -151.226903755999 Eh   |
          | GRADIENT NORM               0.000036884286 Eh/α |
          | HOMO-LUMO GAP               0.713292257018 eV   |
           -------------------------------------------------

 * finished run on 2025/08/26 at 05:25:55.584
