   * xtb version 6.7.1 (edcfbbe) compiled by 'albert@albert-system' on 2024-07-22

   ID    Z sym.   atoms
    1    6 C      1-20, 22-26, 28-31, 33-56
    2    7 N      21, 32
    3    8 O      27
    4    1 H      57-112

          program call               : xtb data2507/toluene/t–BuCz2BP/t–BuCz2BP_toluene_T1_crest.xyz --gfn 2 --uhf 2 --gbsa toluene --ohess vtight --parallel 40 --molden --ceasefiles --namespace data2507/toluene/t–BuCz2BP/t–BuCz2BP_toluene_T1_finalOpt
      * Solvation model:               GBSA
        Solvent                        toluene
        Solvent mass                       9.2140E+01 g/mol
          :  Hamiltonian                  GFN2-xTB          :
 * total energy  :  -152.0754520 Eh     change       -0.1269055E-07 Eh
 * total energy  :  -152.0755804 Eh     change       -0.1283274E-03 Eh
 * total energy  :  -152.0756135 Eh     change       -0.3316973E-04 Eh
 * total energy  :  -152.0756210 Eh     change       -0.7413610E-05 Eh
 * total energy  :  -152.0756251 Eh     change       -0.4159214E-05 Eh
 * total energy  :  -152.0756284 Eh     change       -0.3336931E-05 Eh
 * total energy  :  -152.0756305 Eh     change       -0.2096553E-05 Eh
 * total energy  :  -152.0756324 Eh     change       -0.1815685E-05 Eh
 * total energy  :  -152.0756341 Eh     change       -0.1787473E-05 Eh
 * total energy  :  -152.0756362 Eh     change       -0.2089070E-05 Eh
 * total energy  :  -152.0756811 Eh     change       -0.9142734E-06 Eh
 * total energy  :  -152.0756819 Eh     change       -0.8240202E-06 Eh
 * total energy  :  -152.0756828 Eh     change       -0.9017675E-06 Eh
 * total energy  :  -152.0756838 Eh     change       -0.1056144E-05 Eh
 * total energy  :  -152.0756849 Eh     change       -0.1085236E-05 Eh
 * total energy  :  -152.0756859 Eh     change       -0.1023567E-05 Eh
 * total energy  :  -152.0756870 Eh     change       -0.1057386E-05 Eh
 * total energy  :  -152.0756883 Eh     change       -0.1259567E-05 Eh
 * total energy  :  -152.0756883 Eh     change       -0.9139313E-08 Eh
   *** GEOMETRY OPTIMIZATION CONVERGED AFTER 44 ITERATIONS ***

 final structure:
================
112
 xtb: 6.7.1 (edcfbbe)
C           -6.32893331473225       -4.72486530101579       -3.46887494553517
C           -6.65761414238630       -4.58926146141250       -1.97394755088944
C           -5.91661613895921       -5.67497460509975       -1.17830917403102
C           -8.16250537140470       -4.81195973393659       -1.79512401398913
C           -6.20559116306730       -3.22117884030975       -1.48763169549368
C           -4.84957087140925       -2.87889730186455       -1.58913161655073
C           -4.34968843442620       -1.66303816032573       -1.16914222065956
C           -5.23677609983092       -0.74999567397472       -0.61363636560183
C           -6.61339970914442       -1.05938471121138       -0.52474380173701
C           -7.08846209276378       -2.28754690013250       -0.95484146481926
C           -7.25244027879161        0.10184482189164        0.04085962458149
C           -8.56543100374965        0.39406447105486        0.37100950915872
C           -8.87691577337135        1.62529669024962        0.93873694041984
C          -10.29719127602042        2.01393988994502        1.31854037491191
C          -11.31835466287786        0.92278419269368        0.98204197520678
C          -10.69046595411666        3.28736088779397        0.55371713093517
C          -10.35921053084019        2.27669764514568        2.83122154899322
C           -7.83661571971354        2.53461103903397        1.17891034678978
C           -6.52038871224828        2.27015209860532        0.85909530654288
C           -6.22683303712810        1.04971640566102        0.26379892134826
N           -5.01785625781024        0.52475377176301       -0.13702920700759
C           -3.78025397963371        1.17391630403912       -0.08085515313846
C           -2.67084531003350        0.52949310950436        0.48116408052574
C           -1.44831151490645        1.15238038309005        0.52254039635216
C           -1.27285669185137        2.44400502844488       -0.01349969914533
C           -0.01360711739527        3.16273791244587        0.03142707184017
O           -0.01638087890107        4.43752207169725        0.03277336991354
C            1.24741877316505        2.44824533624185        0.07062901942654
C            2.39332357227328        3.11653165133556        0.55442755210046
C            3.61791376721049        2.50245239719954        0.58753462855305
C            3.76434882585220        1.19427715730351        0.10715984161781
N            5.00907763185651        0.55715828001904        0.14054019989788
C            5.25216219646274       -0.71283178052416        0.61795262970388
C            4.38780969792731       -1.63251395900747        1.19785904895819
C            4.91027137769086       -2.84064180689620        1.61275974833512
C            6.26741571137574       -3.16876508074379        1.48284583692345
C            6.74568926170397       -4.52879111902395        1.96669557953655
C            6.45142939612317       -4.65958823017989        3.46917290019056
C            5.99988028553950       -5.62743574398021        1.19358597871209
C            8.24879619264593       -4.73547381735893        1.75618375984653
C            7.12766336833148       -2.22885195333729        0.92471657124690
C            6.62967364253859       -1.00828963534812        0.49910831050599
C            7.24318706716511        0.15613533701867       -0.08763896766684
C            8.54487692664967        0.45954619960006       -0.45076277164360
C            8.83025016010706        1.69043502362397       -1.03279641078850
C           10.23685159496651        2.09022846323683       -1.45010342117599
C           10.25736917021360        2.35372673893444       -2.96378403827248
C           11.27511493408536        1.00692995429968       -1.14163420117479
C           10.63999064609746        3.36666726963251       -0.69558627143970
C            7.77559599624177        2.58861575677246       -1.25133185373357
C            6.47015920824215        2.31282392914312       -0.89861700800680
C            6.20293684968392        1.09231528095631       -0.29113930600259
C            2.64959369190611        0.53780067278751       -0.42994524121209
C            1.42271988293916        1.15271063552677       -0.45674652558146
C           -2.41517901807647        3.10279041234504       -0.51722591555497
C           -3.63517402509639        2.48026749898535       -0.56615780441225
H           -5.26005261513755       -4.65473219855574       -3.64995294346552
H           -6.67420439169802       -5.68742124895761       -3.84020465449136
H           -6.82314814042325       -3.93833377487222       -4.03593499054080
H           -4.84117165590430       -5.60592664932058       -1.31564325736458
H           -6.23850347908997       -6.66133295898454       -1.50554121370649
H           -6.13222726036043       -5.57615793301852       -0.11617529661763
H           -8.73677384930567       -4.08873123408235       -2.36965304574138
H           -8.44683732681630       -4.74598434362206       -0.74739870108376
H           -8.42496549900079       -5.80613024248628       -2.15126605050879
H           -4.15646179861385       -3.58584845705415       -2.01783676756069
H           -3.30221441031911       -1.42806617579731       -1.28026387658543
H           -8.14185061472031       -2.49452324885650       -0.87193106589402
H           -9.32489502292337       -0.34600411675565        0.18434413765261
H          -11.32830841581149        0.71105378071645       -0.08473964046049
H          -11.10769144805423        0.00644443832703        1.52860770053378
H          -12.31314965285478        1.26020857529362        1.26589569053480
H          -10.62873889469365        3.11643249117585       -0.51934241428229
H          -10.03899404438317        4.11994021368203        0.80388561598441
H          -11.71196349334609        3.56932068920127        0.80003965593100
H          -10.06281617360195        1.38560416033180        3.38131641093951
H          -11.37390994018467        2.54035363284107        3.12197291164610
H           -9.70054327213648        3.09049720805293        3.12143168868544
H           -8.05999243824872        3.48465471375915        1.63888076935660
H           -5.74392518915141        2.98762652254963        1.07708785263372
H           -2.79589870229175       -0.45009272756899        0.91976543540651
H           -0.61973079194604        0.66249149266439        1.01146615305395
H            2.26668609355279        4.12374609171924        0.92490113210822
H            4.47104525871355        3.01039363426594        1.01330549970406
H            3.34051113753667       -1.40840178441456        1.33092932703991
H            4.23471145213435       -3.55292794392106        2.06027949976207
H            6.81195898791741       -5.61782303433137        3.83714722323621
H            6.95229113282725       -3.86681042416720        4.02152856324661
H            5.38637335630345       -4.59630242174793        3.67370142725096
H            4.92733476895821       -5.57199041428856        1.35723771883618
H            6.18790900802770       -5.53023732829640        0.12606157089927
H            6.34280439630332       -6.60809172055888        1.51655716033175
H            8.82724692736450       -4.00142199925617        2.31252727686907
H            8.50909382585080       -4.67414108125715        0.70195154827151
H            8.53070735325185       -5.72383955914828        2.11364719932620
H            8.18103523974718       -2.42503075633998        0.81868066293653
H            9.31595904423336       -0.27196574385798       -0.27863242038290
H           11.26285914304571        2.62209232952105       -3.28101815267846
H            9.58769959008892        3.16459757913971       -3.23642932120668
H            9.95062125921269        1.46137077411636       -3.50603213107935
H           12.25892831596249        1.35152012939286       -1.45375883931087
H           11.31693816344972        0.79608870429157       -0.07548182793258
H           11.05575535813213        0.08864320645369       -1.68153945514127
H           10.61009575268107        3.19459561694429        0.37863003294292
H            9.97397022428229        4.19328748786507       -0.92664874924787
H           11.65151200370247        3.65812285881119       -0.97039761333827
H            7.97844566910722        3.53871087831395       -1.72061404838280
H            5.68182299591949        3.02192509201915       -1.10079266202831
H            2.77366223649025       -0.44446700425002       -0.86278318412638
H            0.59000365867555        0.65361634395741       -0.92897101108426
H           -2.28942191181367        4.10856479925510       -0.89186647495167
H           -4.48463966874024        2.97985915708406       -1.00876709968974

          :  Hamiltonian                  GFN2-xTB          :
         :: gradient norm              0.000069501421 Eh/a0 ::
         :: HOMO-LUMO gap              0.717778520013 eV    ::
         :: SCC energy              -154.685138329484 Eh    ::
         :: -> dispersion             -0.137803359382 Eh    ::
         :: -> Gsolv                  -0.072545558426 Eh    ::
         :: repulsion energy           2.609450058452 Eh    ::

    * Orbital Energies and Occupations

         #    Occupation            Energy/Eh            Energy/eV
      -------------------------------------------------------------
         1        2.0000           -0.6842602             -18.6197
       ...           ...                  ...                  ...
       131        2.0000           -0.4128238             -11.2335
       132        2.0000           -0.4071828             -11.0800
       133        2.0000           -0.4054491             -11.0328
       134        2.0000           -0.4048777             -11.0173
       135        2.0000           -0.4040142             -10.9938
       136        2.0000           -0.3998661             -10.8809
       137        2.0000           -0.3988908             -10.8544
       138        2.0000           -0.3825690             -10.4102
       139        2.0000           -0.3825644             -10.4101
       140        1.9756           -0.3672400              -9.9931
       141        1.5749           -0.3640216              -9.9055
       142        1.4495           -0.3635422              -9.8925
       143        1.0000           -0.2765105              -7.5242 (HOMO)
       144        0.0000           -0.2501328              -6.8065 (LUMO)
       145        0.0000           -0.2488179              -6.7707
       146                         -0.2328618              -6.3365
       147                         -0.2279869              -6.2038
       148                         -0.2279827              -6.2037
       149                         -0.2219631              -6.0399
       150                         -0.2201580              -5.9908
       151                         -0.2043837              -5.5616
       152                         -0.1960182              -5.3339
       153                         -0.1924910              -5.2379
       154                         -0.1924882              -5.2379
       ...                                ...                  ...
       280                          0.7325330              19.9332
      -------------------------------------------------------------
                  HL-Gap            0.0263778 Eh            0.7178 eV

     #   Z          covCN         q      C6AA      α(0)
     1   6 C        3.761    -0.106    22.579     6.774
     2   6 C        3.902     0.027    20.070     6.368
     3   6 C        3.761    -0.107    22.582     6.774
     4   6 C        3.761    -0.109    22.639     6.783
     5   6 C        2.972     0.009    27.808     8.650
     6   6 C        2.929    -0.038    28.939     8.822
     7   6 C        2.908    -0.044    29.099     8.845
     8   6 C        3.081     0.044    26.938     8.509
     9   6 C        3.063    -0.015    28.315     8.726
    10   6 C        2.916    -0.039    28.980     8.828
    11   6 C        3.064    -0.015    28.314     8.726
    12   6 C        2.916    -0.039    28.981     8.828
    13   6 C        2.972     0.010    27.800     8.649
    14   6 C        3.902     0.027    20.070     6.368
    15   6 C        3.761    -0.110    22.641     6.783
    16   6 C        3.761    -0.106    22.577     6.773
    17   6 C        3.761    -0.106    22.577     6.773
    18   6 C        2.929    -0.038    28.933     8.821
    19   6 C        2.907    -0.044    29.088     8.844
    20   6 C        3.080     0.044    26.931     8.508
    21   7 N        2.800    -0.012    21.484     6.884
    22   6 C        2.912     0.043    27.038     8.527
    23   6 C        2.916    -0.043    29.080     8.843
    24   6 C        2.918    -0.043    29.064     8.841
    25   6 C        2.967    -0.018    28.447     8.749
    26   6 C        2.833     0.161    24.506     8.112
    27   8 O        0.858    -0.529    24.431     6.627
    28   6 C        2.967    -0.018    28.457     8.750
    29   6 C        2.923    -0.031    28.770     8.796
    30   6 C        2.915    -0.044    29.081     8.843
    31   6 C        2.912     0.043    27.044     8.527
    32   7 N        2.800    -0.012    21.482     6.884
    33   6 C        3.080     0.044    26.938     8.509
    34   6 C        2.907    -0.044    29.098     8.845
    35   6 C        2.929    -0.038    28.939     8.822
    36   6 C        2.972     0.009    27.807     8.650
    37   6 C        3.902     0.027    20.070     6.368
    38   6 C        3.761    -0.106    22.579     6.774
    39   6 C        3.761    -0.107    22.582     6.774
    40   6 C        3.761    -0.109    22.639     6.783
    41   6 C        2.916    -0.039    28.980     8.828
    42   6 C        3.063    -0.015    28.315     8.726
    43   6 C        3.064    -0.015    28.314     8.726
    44   6 C        2.916    -0.039    28.981     8.828
    45   6 C        2.972     0.010    27.800     8.649
    46   6 C        3.902     0.027    20.070     6.368
    47   6 C        3.761    -0.106    22.577     6.773
    48   6 C        3.761    -0.110    22.642     6.783
    49   6 C        3.761    -0.106    22.577     6.773
    50   6 C        2.929    -0.038    28.933     8.821
    51   6 C        2.907    -0.044    29.087     8.843
    52   6 C        3.080     0.044    26.930     8.508
    53   6 C        2.916    -0.043    29.080     8.843
    54   6 C        2.918    -0.043    29.070     8.841
    55   6 C        2.923    -0.031    28.766     8.795
    56   6 C        2.915    -0.044    29.081     8.843
    57   1 H        0.925     0.038     2.476     2.461
    58   1 H        0.925     0.042     2.427     2.436
    59   1 H        0.925     0.034     2.525     2.485
    60   1 H        0.925     0.038     2.473     2.459
    61   1 H        0.925     0.042     2.428     2.437
    62   1 H        0.925     0.035     2.518     2.482
    63   1 H        0.925     0.038     2.472     2.459
    64   1 H        0.925     0.038     2.469     2.457
    65   1 H        0.925     0.040     2.452     2.449
    66   1 H        0.926     0.041     2.441     2.443
    67   1 H        0.926     0.037     2.494     2.470
    68   1 H        0.926     0.051     2.306     2.375
    69   1 H        0.926     0.052     2.298     2.371
    70   1 H        0.925     0.039     2.466     2.456
    71   1 H        0.925     0.039     2.465     2.455
    72   1 H        0.925     0.040     2.449     2.447
    73   1 H        0.925     0.035     2.521     2.483
    74   1 H        0.925     0.038     2.482     2.464
    75   1 H        0.925     0.042     2.428     2.437
    76   1 H        0.925     0.035     2.518     2.482
    77   1 H        0.925     0.042     2.425     2.435
    78   1 H        0.925     0.037     2.483     2.464
    79   1 H        0.926     0.039     2.455     2.450
    80   1 H        0.926     0.035     2.512     2.478
    81   1 H        0.926     0.039     2.457     2.451
    82   1 H        0.926     0.035     2.520     2.483
    83   1 H        0.926     0.032     2.564     2.504
    84   1 H        0.926     0.037     2.490     2.467
    85   1 H        0.926     0.037     2.493     2.469
    86   1 H        0.926     0.041     2.441     2.443
    87   1 H        0.925     0.042     2.427     2.436
    88   1 H        0.925     0.034     2.525     2.485
    89   1 H        0.925     0.038     2.476     2.461
    90   1 H        0.925     0.038     2.473     2.459
    91   1 H        0.925     0.035     2.518     2.482
    92   1 H        0.925     0.042     2.428     2.437
    93   1 H        0.925     0.038     2.472     2.459
    94   1 H        0.925     0.038     2.469     2.457
    95   1 H        0.925     0.040     2.452     2.449
    96   1 H        0.926     0.051     2.305     2.374
    97   1 H        0.926     0.052     2.298     2.370
    98   1 H        0.925     0.042     2.425     2.435
    99   1 H        0.925     0.037     2.483     2.464
   100   1 H        0.925     0.035     2.518     2.482
   101   1 H        0.925     0.040     2.449     2.447
   102   1 H        0.925     0.039     2.466     2.456
   103   1 H        0.925     0.039     2.464     2.455
   104   1 H        0.925     0.035     2.521     2.483
   105   1 H        0.925     0.037     2.483     2.464
   106   1 H        0.925     0.042     2.428     2.437
   107   1 H        0.926     0.039     2.455     2.450
   108   1 H        0.926     0.035     2.512     2.479
   109   1 H        0.926     0.039     2.459     2.452
   110   1 H        0.926     0.035     2.522     2.483
   111   1 H        0.926     0.032     2.563     2.504
   112   1 H        0.926     0.037     2.487     2.466

molecular dipole:
                 x           y           z       tot (Debye)
 q only:        0.015      -4.303      -0.045
   full:        0.014      -4.088      -0.042      10.391

 projected vibrational frequencies (cm⁻¹)
eigval :       -0.00    -0.00     0.00     0.00     0.00     0.00
eigval :        4.91     8.54     8.71    22.87    24.41    28.33
eigval :       30.56    32.50    34.97    35.40    42.18    48.93
eigval :       57.13    70.28    75.91    80.75    81.75    87.48
eigval :      104.75   111.75   115.95   118.44   143.47   153.26
eigval :      154.56   164.42   166.02   178.23   179.64   188.41
eigval :      190.21   195.60   199.89   200.02   213.38   215.20
eigval :      220.78   221.43   228.64   229.75   246.84   247.80
eigval :      255.37   256.15   264.69   272.02   284.33   293.49
eigval :      304.08   318.60   319.08   320.19   324.19   325.05
eigval :      329.90   338.43   339.15   343.37   355.07   355.37
eigval :      355.89   356.19   376.70   384.47   385.92   391.56
eigval :      392.65   401.68   402.38   403.13   403.60   420.17
eigval :      439.49   440.17   441.27   441.58   448.17   453.87
eigval :      464.38   464.76   466.83   468.38   492.48   493.30
eigval :      515.33   516.63   542.92   550.63   572.13   576.95
eigval :      582.99   583.68   584.85   592.21   598.22   608.96
eigval :      624.70   627.51   641.41   642.21   642.78   660.45
eigval :      674.71   691.47   692.19   700.91   707.08   708.24
eigval :      714.89   715.36   726.00   757.24   801.90   812.09
eigval :      823.15   824.00   824.73   826.59   829.24   830.06
eigval :      844.97   860.53   866.53   867.19   867.43   869.64
eigval :      871.35   871.58   889.42   903.28   908.23   910.46
eigval :      914.99   918.12   918.61   920.04   921.29   923.79
eigval :      923.89   928.93   936.19   941.64   947.84   958.76
eigval :      959.06   959.09   959.96   960.40   961.59   961.99
eigval :      962.56   962.96   963.10   964.22   964.31  1000.38
eigval :     1006.43  1028.86  1028.96  1032.11  1032.88  1033.19
eigval :     1034.15  1035.03  1035.67  1039.54  1039.74  1104.97
eigval :     1109.85  1125.16  1125.34  1130.40  1134.58  1135.34
eigval :     1137.28  1155.00  1155.21  1159.82  1168.13  1189.29
eigval :     1202.72  1216.12  1222.27  1222.31  1222.32  1222.37
eigval :     1225.89  1226.08  1226.25  1227.15  1227.41  1227.49
eigval :     1232.75  1237.04  1251.72  1253.77  1255.10  1257.43
eigval :     1262.02  1275.91  1277.48  1284.63  1284.81  1294.84
eigval :     1296.38  1321.57  1325.54  1331.46  1334.50  1345.87
eigval :     1348.81  1361.57  1363.73  1398.20  1399.06  1400.76
eigval :     1401.08  1401.41  1401.77  1402.18  1403.99  1405.93
eigval :     1406.20  1407.58  1414.75  1425.80  1426.16  1426.49
eigval :     1427.88  1428.81  1430.15  1432.53  1451.31  1454.90
eigval :     1455.10  1456.65  1473.20  1473.46  1474.97  1478.88
eigval :     1486.88  1487.48  1487.56  1487.77  1489.93  1490.05
eigval :     1490.41  1490.70  1496.56  1496.62  1497.00  1497.07
eigval :     1499.90  1500.64  1500.65  1500.83  1510.89  1510.91
eigval :     1511.07  1511.22  1515.60  1515.77  1516.44  1516.69
eigval :     1526.71  1553.22  1553.40  1565.24  1566.32  1567.97
eigval :     1568.09  1582.70  1587.91  1597.20  3021.89  3022.05
eigval :     3022.13  3022.15  3022.20  3022.31  3022.69  3022.78
eigval :     3025.25  3025.45  3025.83  3025.92  3026.79  3026.92
eigval :     3027.00  3027.09  3028.64  3028.89  3029.44  3029.71
eigval :     3032.31  3032.57  3032.60  3032.71  3037.40  3037.44
eigval :     3037.58  3037.98  3045.92  3046.15  3046.28  3046.28
eigval :     3049.06  3049.16  3049.43  3049.57  3072.15  3072.72
eigval :     3073.78  3074.22  3084.02  3084.39  3084.96  3085.23
eigval :     3085.99  3086.22  3087.49  3089.44  3097.51  3097.66
eigval :     3098.00  3098.42  3122.14  3122.41  3124.68  3124.86

   temp. (K)  partition function   enthalpy   heat capacity  entropy
                                   cal/mol     cal/K/mol   cal/K/mol   J/K/mol
 298.15  VIB  0.246E+26            32383.465    198.705    201.382
         ROT  0.240E+09              888.752      2.981     41.325
         INT  0.591E+34            33272.218    201.686    242.707
         TR   0.194E+29             1481.254      4.968     45.651
         TOT                       34753.4717   206.6544   288.3586  1206.4923

       T/K    H(0)-H(T)+PV         H(T)/Eh          T*S/Eh         G(T)/Eh
   ------------------------------------------------------------------------
    298.15    0.553832E-01    0.984541E+00    0.137008E+00    0.847532E+00
   ------------------------------------------------------------------------

         :::::::::::::::::::::::::::::::::::::::::::::::::::::
         ::                  THERMODYNAMIC                  ::
         :::::::::::::::::::::::::::::::::::::::::::::::::::::
         :: total free energy        -151.228155990329 Eh   ::
         ::.................................................::
         :: total energy             -152.075688272044 Eh   ::
         :: zero point energy           0.929157560127 Eh   ::
         :: G(RRHO) w/o ZPVE           -0.081625278412 Eh   ::
         :: G(RRHO) contrib.            0.847532281715 Eh   ::
         :::::::::::::::::::::::::::::::::::::::::::::::::::::

           -------------------------------------------------
          | TOTAL ENERGY             -152.075688272044 Eh   |
          | TOTAL ENTHALPY           -151.091147529400 Eh   |
          | TOTAL FREE ENERGY        -151.228155990329 Eh   |
          | GRADIENT NORM               0.000069204551 Eh/α |
          | HOMO-LUMO GAP               0.717775288038 eV   |
           -------------------------------------------------

 * finished run on 2025/08/26 at 05:54:00.752
