   * xtb version 6.7.1 (edcfbbe) compiled by 'albert@albert-system' on 2024-07-22

   ID    Z sym.   atoms
    1    6 C      1-8, 10-19, 21-30, 32-44, 46-62
    2    7 N      9, 31, 45
    3    5 B      20
    4    1 H      63-124

          program call               : xtb data2507/gas/2tPAB/2tPAB_gas_S0_crest.xyz --gfn 2 --ohess vtight --parallel 40 --molden --ceasefiles --namespace data2507/gas/2tPAB/2tPAB_gas_S0_finalOpt
          :  Hamiltonian                  GFN2-xTB          :
 * total energy  :  -165.9586910 Eh     change       -0.4832884E-08 Eh
 * total energy  :  -165.9586924 Eh     change       -0.1345065E-05 Eh
 * total energy  :  -165.9586937 Eh     change       -0.1319889E-05 Eh
 * total energy  :  -165.9586953 Eh     change       -0.1592729E-05 Eh
 * total energy  :  -165.9586966 Eh     change       -0.1278732E-05 Eh
 * total energy  :  -165.9586983 Eh     change       -0.1707410E-05 Eh
 * total energy  :  -165.9586999 Eh     change       -0.1612551E-05 Eh
 * total energy  :  -165.9587010 Eh     change       -0.1106700E-05 Eh
 * total energy  :  -165.9587022 Eh     change       -0.1170584E-05 Eh
 * total energy  :  -165.9587037 Eh     change       -0.1522157E-05 Eh
 * total energy  :  -165.9587069 Eh     change       -0.6164515E-06 Eh
 * total energy  :  -165.9587076 Eh     change       -0.6786535E-06 Eh
 * total energy  :  -165.9587083 Eh     change       -0.7367628E-06 Eh
 * total energy  :  -165.9587090 Eh     change       -0.6814998E-06 Eh
 * total energy  :  -165.9587096 Eh     change       -0.5982444E-06 Eh
 * total energy  :  -165.9587102 Eh     change       -0.6052203E-06 Eh
 * total energy  :  -165.9587109 Eh     change       -0.6650709E-06 Eh
 * total energy  :  -165.9587116 Eh     change       -0.6773994E-06 Eh
 * total energy  :  -165.9587116 Eh     change       -0.8505964E-08 Eh
   *** GEOMETRY OPTIMIZATION CONVERGED AFTER 22 ITERATIONS ***

 final structure:
================
124
 xtb: 6.7.1 (edcfbbe)
C            7.83819434759987        3.13445191387191        0.20985862519281
C            6.47728941881172        3.60624683080855       -0.32020302945937
C            6.66850769804804        4.11293045718853       -1.75202338210189
C            5.95700014531263        4.77385163925969        0.53113531428504
C            5.47873336656018        2.46387712144618       -0.23236735404131
C            5.17532062323837        1.91323668945842        1.01124857874369
C            4.22437180627933        0.92200338974160        1.15199155836600
C            3.54919370094557        0.44656139027776        0.03588482636945
N            2.47320225587533       -0.47880235377950        0.15913410451163
C            2.72883315718596       -1.82746315658373        0.31500839985537
C            4.05406446070154       -2.25050353395932        0.47399357395961
C            4.34909031012232       -3.57001945762712        0.71365825948494
C            3.34069253830257       -4.53103220933629        0.82487956622062
C            3.71252816443626       -5.96905587515572        1.15247697309978
C            2.49528083109449       -6.89563482913609        1.21269311564722
C            4.41043305894932       -6.00436748534877        2.51936722317759
C            4.66190115011316       -6.50437987881091        0.07110971650863
C            2.04226357487003       -4.10717056641024        0.62068984915658
C            1.69024956456161       -2.78382193993537        0.32242403228588
B            0.25710628531477       -2.29868170577267        0.00272509534867
C           -1.03542997061300       -3.08396916447860       -0.32000386606441
C           -1.09038392863826       -4.45195500499931       -0.61961387306490
C           -2.26485039554695       -5.14731896414291       -0.83031117085585
C           -2.31426980957482       -6.63155699648920       -1.15890513892388
C           -3.13451474569355       -7.35986905089929       -0.08463456113869
C           -2.97664301080084       -6.81610758818776       -2.53145727970000
C           -0.92505213389534       -7.27299330461726       -1.20769343088968
C           -3.45839629206903       -4.42808029446078       -0.72596605092191
C           -3.45801588207833       -3.07634075544007       -0.48469485302784
C           -2.25705856847231       -2.37629317669546       -0.31704974610063
N           -2.30212408804088       -1.00501028050292       -0.15683477289896
C           -3.55561815628036       -0.33619725631680       -0.05195648518139
C           -4.00463965526989        0.07849999958157        1.19221241414399
C           -5.15157598329944        0.84386334813099        1.30231893809223
C           -5.87957050064071        1.21592444213231        0.17900206282110
C           -7.10052782868083        2.11833097249666        0.24754884456929
C           -7.43236304265150        2.55284721446875        1.67737456085143
C           -6.81748929694973        3.38126629216958       -0.57932995906713
C           -8.31609572255575        1.37653658266336       -0.32492428697043
C           -5.43862408064383        0.75303494190002       -1.05921845983286
C           -4.29385006599821       -0.00919740146592       -1.18146479096300
C           -1.18522748243958       -0.20061597116544       -0.09356988509960
C           -1.32848362655251        1.18375408514665       -0.14083659166145
C           -0.21797609071517        2.00208322135300        0.02038320346245
N           -0.37395441922529        3.39384230401876        0.03211275802629
C            0.64863520440046        4.21607143731296       -0.45089578630542
C            0.94524737475426        5.42131411319011        0.18589314375499
C            1.97117620148863        6.22151321542062       -0.27770211294086
C            2.72177764651516        5.83601902668490       -1.37643728654674
C            2.42779180012855        4.64315784686445       -2.01693516034027
C            1.39920378889279        3.84087908925895       -1.56598010712837
C           -1.55354805814570        3.95914983554801        0.52682275633566
C           -2.19835726520562        3.40846977570866        1.63524383211704
C           -3.38042419286928        3.95177261487799        2.09630824838899
C           -3.93635168335923        5.05723651608832        1.47303158668966
C           -3.29338406354025        5.61827440088848        0.38170304633096
C           -2.11456985809579        5.07630401305094       -0.09215850763257
C            1.04525390227244        1.44472614867769        0.17032854127780
C            1.20715477561509        0.06289698485816        0.10756756377764
C            0.09079262877926       -0.79218818499985        0.00529664672546
C            3.87040480740973        0.95246216749345       -1.21421010985032
C            4.82271205149289        1.94732579879075       -1.34279871963668
H            7.77150203817122        2.81446426188307        1.24596481374504
H            8.20298288700904        2.29782967708361       -0.38262384928424
H            8.56405643621605        3.94253726845655        0.14941471706466
H            5.73128380743576        4.48396511766403       -2.15960062418205
H            7.05693632046030        3.32912765368385       -2.39833048448219
H            7.38422822653516        4.93261689209191       -1.75310764927655
H            6.62601698953552        5.62743392772532        0.44473183064276
H            4.96645953633143        5.07182642915144        0.19213938455313
H            5.88931612581541        4.50112851571342        1.58056159329824
H            5.67367677762176        2.27379307349101        1.89826361890226
H            3.98480171903868        0.52512970880337        2.12774480479280
H            4.85822385889470       -1.53124506691518        0.41749696549827
H            5.38548528022652       -3.84898985267832        0.83451742989420
H            2.81873199247125       -7.90518426912790        1.46005526853189
H            1.98847921237166       -6.93216271441396        0.25122636428924
H            1.79232242455366       -6.57150157659662        1.97676034135358
H            3.74570398735117       -5.61812999631542        3.28954708940065
H            5.31433066247372       -5.40115033277228        2.51672694057819
H            4.68263889091040       -7.02591976446794        2.77799423992785
H            4.92088328657482       -7.54106580674555        0.27774202221487
H            5.58144846659913       -5.92725937958219        0.02854333788039
H            4.18373610557537       -6.45574094437493       -0.90520272693875
H            1.23545605577465       -4.81259951885884        0.71296404098227
H           -0.14930411716623       -4.96545726733834       -0.70754932075221
H           -4.15841534506215       -6.99784854042101       -0.05308426431005
H           -2.68851002294755       -7.20628007928263        0.89602253700174
H           -3.15844538251670       -8.42842719842029       -0.28981808714675
H           -2.40307865666802       -6.29736555850264       -3.29707862617914
H           -3.02231331649624       -7.87240283871601       -2.78973662061050
H           -3.98840224803541       -6.41959250632512       -2.53778772743763
H           -0.42934927084501       -7.19687354408923       -0.24276626133973
H           -0.30337068201746       -6.80609465903560       -1.96830867014864
H           -1.02066462095367       -8.32913053518014       -1.45349284318367
H           -4.40882685112193       -4.92507328589037       -0.85321779632992
H           -4.39923104722039       -2.54839310941174       -0.43348013230185
H           -3.43599610658502       -0.18255381676907        2.07273926415387
H           -5.46034022576332        1.15677627635188        2.28566667177659
H           -8.30757422682792        3.19937245848920        1.66508459897291
H           -7.65893488477274        1.69510014673459        2.30656856297726
H           -6.60754803526009        3.11115468554671        2.11345711343136
H           -7.65616709285384        4.07068936366493       -0.50896221266919
H           -6.66146177727427        3.14271954651023       -1.62769579987966
H           -5.92438575434859        3.87992352748389       -0.20701202485850
H           -9.19852983751082        2.01095595108378       -0.27641169081430
H           -8.50924864725684        0.47224998887741        0.24864111866395
H           -8.15737448748035        1.09459084333124       -1.36204544933158
H           -5.98381172444536        1.00497451550883       -1.95612815611616
H           -3.95364614009153       -0.33784530403052       -2.15266921803038
H           -2.29415391691014        1.63686043657682       -0.29512719492099
H            0.36916238501593        5.71989853833402        1.04967763094786
H            2.19326349056585        7.14914010754434        0.22960089013424
H            3.52437206915481        6.46414373536674       -1.73364136090451
H            2.99688516063869        4.33891019747770       -2.88327666190498
H            1.16813681897071        2.91619041678063       -2.07307993929630
H           -1.76430876121149        2.55196999020659        2.12882880533516
H           -3.86523104865030        3.51433975606369        2.95689422559790
H           -4.85934837609395        5.48301566749216        1.83786404358056
H           -3.71928880347909        6.47968366790643       -0.11203165654363
H           -1.62201010922980        5.50964741707745       -0.95049018468959
H            1.88949134290428        2.09551372428895        0.33001370655823
H            3.35203816287540        0.57732251704190       -2.08453374571034
H            5.03496468160391        2.32207081626130       -2.33011303761587

          :  Hamiltonian                  GFN2-xTB          :
         :: gradient norm              0.000063488048 Eh/a0 ::
         :: HOMO-LUMO gap              2.367653109302 eV    ::
         :: SCC energy              -168.878699438713 Eh    ::
         :: -> dispersion             -0.174177135656 Eh    ::
         :: repulsion energy           2.919987876966 Eh    ::

    * Orbital Energies and Occupations

         #    Occupation            Energy/Eh            Energy/eV
      -------------------------------------------------------------
         1        2.0000           -0.6573781             -17.8882
       ...           ...                  ...                  ...
       144        2.0000           -0.4006454             -10.9021
       145        2.0000           -0.3998267             -10.8798
       146        2.0000           -0.3949245             -10.7464
       147        2.0000           -0.3938791             -10.7180
       148        2.0000           -0.3905408             -10.6272
       149        2.0000           -0.3834261             -10.4336
       150        2.0000           -0.3827723             -10.4158
       151        2.0000           -0.3798830             -10.3371
       152        2.0000           -0.3671819              -9.9915
       153        2.0000           -0.3662799              -9.9670
       154        2.0000           -0.3503895              -9.5346
       155        2.0000           -0.3411888              -9.2842
       156        2.0000           -0.3310132              -9.0073 (HOMO)
       157                         -0.2440036              -6.6397 (LUMO)
       158                         -0.2269397              -6.1753
       159                         -0.2258565              -6.1459
       160                         -0.2249648              -6.1216
       161                         -0.2240209              -6.0959
       162                         -0.2237827              -6.0894
       163                         -0.2214155              -6.0250
       164                         -0.2178073              -5.9268
       165                         -0.2139119              -5.8208
       166                         -0.2090711              -5.6891
       167                         -0.1986487              -5.4055
       ...                                ...                  ...
       310                          0.7295906              19.8532
      -------------------------------------------------------------
                  HL-Gap            0.0870096 Eh            2.3677 eV

     #   Z          covCN         q      C6AA      α(0)
     1   6 C        3.761    -0.106    22.569     6.772
     2   6 C        3.903     0.026    20.083     6.370
     3   6 C        3.761    -0.108    22.611     6.779
     4   6 C        3.762    -0.106    22.577     6.773
     5   6 C        2.974     0.008    27.829     8.653
     6   6 C        2.928    -0.035    28.875     8.812
     7   6 C        2.920    -0.041    29.011     8.833
     8   6 C        2.936     0.065    26.547     8.450
     9   7 N        2.756    -0.053    22.265     7.008
    10   6 C        2.925     0.055    26.766     8.484
    11   6 C        2.918    -0.059    29.468     8.902
    12   6 C        2.927    -0.035    28.871     8.812
    13   6 C        2.969    -0.007    28.189     8.709
    14   6 C        3.903     0.025    20.101     6.373
    15   6 C        3.761    -0.105    22.560     6.771
    16   6 C        3.762    -0.104    22.526     6.766
    17   6 C        3.762    -0.104    22.528     6.766
    18   6 C        2.930    -0.046    29.138     8.852
    19   6 C        2.886    -0.087    30.169     9.005
    20   5 B        2.724     0.187    18.579     7.223
    21   6 C        2.886    -0.087    30.169     9.005
    22   6 C        2.930    -0.046    29.138     8.852
    23   6 C        2.969    -0.007    28.189     8.709
    24   6 C        3.903     0.025    20.101     6.373
    25   6 C        3.762    -0.104    22.528     6.766
    26   6 C        3.762    -0.104    22.526     6.766
    27   6 C        3.761    -0.105    22.559     6.771
    28   6 C        2.927    -0.035    28.871     8.812
    29   6 C        2.918    -0.059    29.468     8.902
    30   6 C        2.925     0.055    26.766     8.484
    31   7 N        2.756    -0.053    22.262     7.008
    32   6 C        2.936     0.065    26.546     8.450
    33   6 C        2.922    -0.040    28.994     8.830
    34   6 C        2.925    -0.038    28.939     8.822
    35   6 C        2.974     0.008    27.829     8.653
    36   6 C        3.903     0.026    20.083     6.370
    37   6 C        3.761    -0.108    22.612     6.779
    38   6 C        3.762    -0.106    22.576     6.773
    39   6 C        3.761    -0.106    22.570     6.772
    40   6 C        2.928    -0.035    28.874     8.812
    41   6 C        2.920    -0.041    29.010     8.832
    42   6 C        2.934     0.060    26.657     8.467
    43   6 C        2.923    -0.093    30.344     9.033
    44   6 C        2.924     0.063    26.580     8.455
    45   7 N        2.754    -0.076    22.722     7.080
    46   6 C        2.924     0.067    26.498     8.442
    47   6 C        2.923    -0.048    29.200     8.862
    48   6 C        2.919    -0.031    28.768     8.796
    49   6 C        2.919    -0.041    29.008     8.832
    50   6 C        2.919    -0.030    28.740     8.791
    51   6 C        2.923    -0.047    29.157     8.855
    52   6 C        2.924     0.067    26.497     8.442
    53   6 C        2.923    -0.046    29.154     8.855
    54   6 C        2.919    -0.030    28.741     8.791
    55   6 C        2.919    -0.040    29.006     8.832
    56   6 C        2.919    -0.031    28.769     8.796
    57   6 C        2.923    -0.048    29.199     8.861
    58   6 C        2.923    -0.093    30.340     9.033
    59   6 C        2.935     0.060    26.657     8.467
    60   6 C        2.897    -0.114    30.889     9.113
    61   6 C        2.922    -0.040    28.995     8.830
    62   6 C        2.925    -0.038    28.937     8.822
    63   1 H        0.925     0.037     2.493     2.469
    64   1 H        0.925     0.034     2.524     2.485
    65   1 H        0.925     0.038     2.470     2.458
    66   1 H        0.925     0.038     2.473     2.459
    67   1 H        0.925     0.036     2.507     2.476
    68   1 H        0.925     0.037     2.490     2.468
    69   1 H        0.925     0.038     2.475     2.460
    70   1 H        0.925     0.037     2.495     2.470
    71   1 H        0.925     0.036     2.502     2.474
    72   1 H        0.926     0.035     2.516     2.481
    73   1 H        0.926     0.039     2.468     2.457
    74   1 H        0.926     0.017     2.778     2.606
    75   1 H        0.926     0.021     2.723     2.581
    76   1 H        0.925     0.032     2.558     2.501
    77   1 H        0.925     0.036     2.507     2.476
    78   1 H        0.925     0.034     2.532     2.489
    79   1 H        0.925     0.032     2.564     2.504
    80   1 H        0.925     0.034     2.534     2.490
    81   1 H        0.925     0.033     2.548     2.496
    82   1 H        0.925     0.033     2.546     2.495
    83   1 H        0.925     0.034     2.534     2.489
    84   1 H        0.925     0.032     2.559     2.502
    85   1 H        0.926     0.039     2.457     2.451
    86   1 H        0.926     0.039     2.457     2.451
    87   1 H        0.925     0.034     2.534     2.489
    88   1 H        0.925     0.032     2.559     2.502
    89   1 H        0.925     0.033     2.546     2.495
    90   1 H        0.925     0.032     2.564     2.504
    91   1 H        0.925     0.033     2.548     2.496
    92   1 H        0.925     0.034     2.534     2.490
    93   1 H        0.925     0.036     2.507     2.476
    94   1 H        0.925     0.034     2.533     2.489
    95   1 H        0.925     0.032     2.558     2.501
    96   1 H        0.926     0.021     2.723     2.580
    97   1 H        0.926     0.017     2.779     2.607
    98   1 H        0.926     0.037     2.493     2.469
    99   1 H        0.926     0.042     2.421     2.433
   100   1 H        0.925     0.037     2.490     2.467
   101   1 H        0.925     0.036     2.506     2.476
   102   1 H        0.925     0.038     2.473     2.459
   103   1 H        0.925     0.038     2.473     2.459
   104   1 H        0.925     0.036     2.502     2.474
   105   1 H        0.925     0.036     2.497     2.471
   106   1 H        0.925     0.038     2.470     2.458
   107   1 H        0.925     0.034     2.524     2.484
   108   1 H        0.925     0.037     2.493     2.469
   109   1 H        0.926     0.035     2.516     2.480
   110   1 H        0.926     0.039     2.469     2.457
   111   1 H        0.926     0.020     2.734     2.586
   112   1 H        0.926     0.030     2.587     2.515
   113   1 H        0.926     0.029     2.595     2.519
   114   1 H        0.926     0.027     2.625     2.534
   115   1 H        0.926     0.028     2.620     2.531
   116   1 H        0.926     0.033     2.539     2.492
   117   1 H        0.926     0.033     2.538     2.491
   118   1 H        0.926     0.028     2.617     2.530
   119   1 H        0.926     0.027     2.626     2.534
   120   1 H        0.926     0.029     2.595     2.519
   121   1 H        0.926     0.030     2.586     2.515
   122   1 H        0.926     0.020     2.734     2.586
   123   1 H        0.926     0.037     2.496     2.470
   124   1 H        0.926     0.042     2.422     2.434

molecular dipole:
                 x           y           z       tot (Debye)
 q only:       -0.084       0.713      -0.009
   full:       -0.100       0.866      -0.010       2.216

 projected vibrational frequencies (cm⁻¹)
eigval :       -0.00    -0.00    -0.00     0.00     0.00     0.00
eigval :       11.95    12.61    18.06    19.78    26.64    28.20
eigval :       29.28    30.67    31.55    35.87    40.15    40.45
eigval :       51.99    58.78    60.69    69.36    71.33    72.94
eigval :       78.21    81.00    92.60    94.82    99.38   100.67
eigval :      105.11   139.25   145.87   154.30   165.33   175.40
eigval :      176.12   179.38   179.59   183.52   185.74   198.38
eigval :      211.52   213.54   219.25   221.28   223.58   226.08
eigval :      226.75   231.78   243.35   244.65   249.01   251.73
eigval :      259.98   273.55   284.86   297.67   310.80   311.94
eigval :      314.89   318.28   318.50   318.94   320.87   325.32
eigval :      334.75   343.77   357.57   358.86   363.07   369.37
eigval :      369.64   374.17   380.13   380.83   381.98   386.21
eigval :      392.07   400.38   402.41   406.61   414.92   419.90
eigval :      426.71   429.87   446.29   448.95   448.99   455.50
eigval :      464.13   467.10   472.99   474.98   487.24   493.93
eigval :      501.34   514.01   527.92   529.13   552.99   555.08
eigval :      567.62   575.59   582.06   584.95   589.30   589.97
eigval :      596.74   608.34   609.10   615.36   617.29   623.88
eigval :      629.52   661.58   661.87   664.76   666.70   684.01
eigval :      688.79   697.71   709.41   712.74   715.95   725.70
eigval :      733.12   758.59   759.93   777.24   795.26   813.44
eigval :      820.01   821.25   822.56   822.73   843.01   865.88
eigval :      870.23   870.57   871.48   873.31   874.12   874.80
eigval :      876.11   882.02   891.89   892.70   894.43   906.01
eigval :      910.87   913.56   914.06   918.21   919.47   926.66
eigval :      927.39   927.94   928.76   930.44   930.50   933.97
eigval :      935.84   948.90   958.87   960.53   961.32   961.36
eigval :      961.48   962.21   963.05   963.07   963.70   964.84
eigval :      964.93   965.18   971.09   978.96  1004.97  1014.26
eigval :     1016.93  1034.66  1035.44  1035.52  1035.76  1035.86
eigval :     1036.67  1036.73  1037.54  1069.41  1083.44  1083.97
eigval :     1098.99  1110.71  1121.87  1124.77  1140.94  1141.11
eigval :     1144.28  1144.39  1144.68  1160.16  1169.85  1181.20
eigval :     1181.43  1181.88  1195.28  1195.99  1198.27  1202.67
eigval :     1203.81  1224.79  1227.33  1228.34  1228.42  1229.04
eigval :     1232.18  1232.74  1234.14  1234.60  1235.17  1246.08
eigval :     1254.37  1265.03  1272.35  1274.85  1275.37  1278.45
eigval :     1279.71  1285.03  1286.08  1294.59  1296.56  1297.30
eigval :     1306.78  1312.18  1313.10  1319.55  1319.89  1321.67
eigval :     1324.30  1328.71  1352.52  1354.06  1360.32  1378.67
eigval :     1397.56  1397.61  1399.88  1404.71  1405.65  1405.83
eigval :     1406.84  1406.87  1408.99  1409.04  1410.81  1427.56
eigval :     1428.92  1429.14  1429.54  1429.61  1432.33  1439.03
eigval :     1441.14  1451.41  1457.78  1472.28  1477.46  1481.39
eigval :     1488.55  1490.02  1492.35  1492.37  1492.88  1493.28
eigval :     1495.16  1495.19  1496.13  1496.18  1500.46  1503.01
eigval :     1503.05  1504.37  1505.98  1506.39  1506.91  1507.17
eigval :     1513.62  1514.99  1515.05  1515.23  1519.80  1519.86
eigval :     1519.94  1523.13  1537.27  1542.52  1547.19  1568.95
eigval :     1570.87  1571.57  1575.80  1579.95  1595.42  1599.11
eigval :     1601.50  1601.89  1603.96  1604.19  3017.04  3017.36
eigval :     3018.61  3018.64  3022.76  3022.82  3024.74  3024.76
eigval :     3025.18  3025.55  3025.78  3026.45  3027.41  3027.54
eigval :     3029.10  3029.37  3030.04  3030.08  3031.84  3031.95
eigval :     3034.37  3034.40  3035.76  3037.20  3037.29  3038.77
eigval :     3040.79  3040.89  3044.27  3044.44  3046.96  3046.99
eigval :     3047.80  3048.22  3050.48  3050.48  3071.11  3071.16
eigval :     3072.14  3072.43  3074.95  3075.32  3080.42  3080.46
eigval :     3083.54  3083.76  3083.95  3084.55  3084.98  3085.21
eigval :     3090.30  3090.85  3092.62  3092.64  3095.45  3095.97
eigval :     3111.71  3112.93  3119.16  3119.49  3134.86  3142.41

   temp. (K)  partition function   enthalpy   heat capacity  entropy
                                   cal/mol     cal/K/mol   cal/K/mol   J/K/mol
 298.15  VIB  0.175E+28            35538.083    217.960    220.478
         ROT  0.167E+09              888.752      2.981     40.606
         INT  0.292E+36            36426.835    220.941    261.084
         TR   0.224E+29             1481.254      4.968     45.940
         TOT                       37908.0891   225.9092   307.0236  1284.5869

       T/K    H(0)-H(T)+PV         H(T)/Eh          T*S/Eh         G(T)/Eh
   ------------------------------------------------------------------------
    298.15    0.604104E-01    0.109427E+01    0.145877E+00    0.948394E+00
   ------------------------------------------------------------------------

         :::::::::::::::::::::::::::::::::::::::::::::::::::::
         ::                  THERMODYNAMIC                  ::
         :::::::::::::::::::::::::::::::::::::::::::::::::::::
         :: total free energy        -165.010317063926 Eh   ::
         ::.................................................::
         :: total energy             -165.958711561747 Eh   ::
         :: zero point energy           1.033860946853 Eh   ::
         :: G(RRHO) w/o ZPVE           -0.085466449032 Eh   ::
         :: G(RRHO) contrib.            0.948394497822 Eh   ::
         :::::::::::::::::::::::::::::::::::::::::::::::::::::

           -------------------------------------------------
          | TOTAL ENERGY             -165.958711561747 Eh   |
          | TOTAL ENTHALPY           -164.864440229618 Eh   |
          | TOTAL FREE ENERGY        -165.010317063926 Eh   |
          | GRADIENT NORM               0.000063481878 Eh/α |
          | HOMO-LUMO GAP               2.367652460699 eV   |
           -------------------------------------------------

 * finished run on 2025/09/11 at 05:46:45.728
