   * xtb version 6.7.1 (edcfbbe) compiled by 'albert@albert-system' on 2024-07-22

   ID    Z sym.   atoms
    1    6 C      1-8, 10-19, 21-30, 32-44, 46-62
    2    7 N      9, 31, 45
    3    5 B      20
    4    1 H      63-124

          program call               : xtb data2507/gas/2tPAB/2tPAB_gas_T1_crest.xyz --gfn 2 --spinpol --tblite --uhf 2 --ohess vtight --parallel 40 --molden --ceasefiles --namespace data2507/gas/2tPAB/2tPAB_gas_T1_finalOpt
 * total energy  :  -165.8692901 Eh     change       -0.1635004E-07 Eh
 * total energy  :  -165.8692959 Eh     change       -0.5811147E-05 Eh
 * total energy  :  -165.8692996 Eh     change       -0.3729185E-05 Eh
 * total energy  :  -165.8693014 Eh     change       -0.1781503E-05 Eh
 * total energy  :  -165.8693060 Eh     change       -0.4542366E-05 Eh
 * total energy  :  -165.8693104 Eh     change       -0.4449411E-05 Eh
 * total energy  :  -165.8693147 Eh     change       -0.4250401E-05 Eh
 * total energy  :  -165.8693179 Eh     change       -0.3255606E-05 Eh
 * total energy  :  -165.8693184 Eh     change       -0.5101770E-06 Eh
 * total energy  :  -165.8693196 Eh     change       -0.1130474E-05 Eh
 * total energy  :  -165.8693235 Eh     change       -0.9633976E-06 Eh
 * total energy  :  -165.8693248 Eh     change       -0.1281285E-05 Eh
 * total energy  :  -165.8693256 Eh     change       -0.8825104E-06 Eh
 * total energy  :  -165.8693262 Eh     change       -0.5538413E-06 Eh
 * total energy  :  -165.8693266 Eh     change       -0.4056393E-06 Eh
 * total energy  :  -165.8693270 Eh     change       -0.3811282E-06 Eh
 * total energy  :  -165.8693273 Eh     change       -0.3264998E-06 Eh
 * total energy  :  -165.8693276 Eh     change       -0.2811908E-06 Eh
 * total energy  :  -165.8693277 Eh     change       -0.9277042E-07 Eh
   *** GEOMETRY OPTIMIZATION CONVERGED AFTER 22 ITERATIONS ***

 final structure:
================
124
 xtb: 6.7.1 (edcfbbe)
C            8.13521665842943        2.23658222598888        0.29724158028964
C            6.83534992105930        2.85762650015308       -0.23214102277492
C            7.09161476912514        3.36777334403795       -1.65248233972760
C            6.43143813437024        4.05644217013354        0.63898411742528
C            5.71865089040244        1.82906993878803       -0.17309480386258
C            5.37231326692001        1.26048800423278        1.05183808425826
C            4.31798871677277        0.37751165697364        1.16950534108504
C            3.57085634197782        0.03754453269578        0.04829095530723
N            2.40136697713995       -0.76338811698923        0.15181825615652
C            2.50873719448341       -2.13328084491760        0.29363091092162
C            3.77829588505335       -2.69917349459293        0.42392153041352
C            3.93178662549152       -4.05436336860867        0.64847940539121
C            2.81711716116384       -4.88879433809760        0.77469642861180
C            3.02658042458625       -6.36224228988747        1.08051505180570
C            1.71445488365864       -7.14600576101758        1.16746649653073
C            3.75187912242357       -6.49026892246317        2.42805960690852
C            3.88130849339460       -6.99080439712199       -0.02976710212145
C            1.56494577198484       -4.32187870568188        0.59811535409001
C            1.35261153290993       -2.96616736702382        0.29950423246550
B           -0.01331993181307       -2.32342327495571       -0.00073209809843
C           -1.38616841380294       -2.95125630459114       -0.30155193205500
C           -1.61230711233849       -4.30367811036881       -0.60444158393487
C           -2.87053651920001       -4.85842152087369       -0.77688741832170
C           -3.09512549455130       -6.32870354070836       -1.08701239486826
C           -3.94492680934627       -6.95447517354808        0.02862086885875
C           -3.83374936603498       -6.44531777608878       -2.42834229742386
C           -1.79046312738012       -7.12300095689713       -1.18935361367524
C           -3.97671373076127       -4.01439636387026       -0.64023872437193
C           -3.80960155817507       -2.66139020575787       -0.41238779861090
C           -2.53415098987861       -2.10709040970039       -0.28904632804032
N           -2.41244896082696       -0.73841182853205       -0.14651565075985
C           -3.57217831087204        0.07438217396900       -0.03187489862205
C           -3.90232284345862        0.61596181534509        1.20304395054489
C           -4.95480457715444        1.50408771701136        1.31860551987834
C           -5.70289651082152        1.88429497844708        0.21029444544221
C           -6.81249524102343        2.91984122801174        0.27956550911621
C           -7.03726923724342        3.44825485795370        1.69857789174329
C           -6.42054942947976        4.10618925066660       -0.61379288614275
C           -8.12597989028129        2.29934629717447       -0.21581901624030
C           -5.38260558871810        1.30111263692446       -1.01494350463479
C           -4.33709594296829        0.40921045889602       -1.14283348145751
C           -1.19951783947306       -0.06650012298059       -0.09715886066441
C           -1.18720642248746        1.32468281645610       -0.17374054412302
C            0.00960594361616        2.02940737943965       -0.01037790279645
N            0.01909503630897        3.42758820042418       -0.01926680996339
C            1.12821210119280        4.10992510178069       -0.52594393961050
C            1.57700857712972        5.28268566598277        0.08539757531902
C            2.69518011839771        5.93485750326199       -0.39338787406126
C            3.38992654235336        5.43389905043351       -1.48366826174695
C            2.94529239461972        4.27414295865988       -2.09921093169651
C            1.82628037506898        3.61710445798673       -1.63110448142489
C           -1.07927785992755        4.13319447472239        0.47833407443261
C           -1.78660782239188        3.66433292270714        1.58794948601972
C           -2.89455072068705        4.34553616882050        2.04779903255040
C           -3.31896533448797        5.50587380224106        1.41925545546858
C           -2.61486943335911        5.98302566001401        0.32433301255966
C           -1.50752211402328        5.30678573342998       -0.14610018923484
C            1.19851986003131        1.31270038903219        0.16101457517473
C            1.19618091327268       -0.07890317180454        0.09508849856359
C           -0.00551734794710       -0.81021669267811       -0.00027481345720
C            3.92741888024162        0.56328238973607       -1.18583882442685
C            4.98849148545433        1.44267032212913       -1.29105595062300
H            8.03237418038175        1.91642507605072        1.33021637115860
H            8.41006776969613        1.37135894822768       -0.30259895782040
H            8.94387588459181        2.96248449814912        0.24634352212540
H            6.20691985774390        3.85512244433508       -2.05470612336160
H            7.38801787293842        2.55656578693165       -2.31363625890471
H            7.89867160216005        4.09744398628179       -1.63448038776218
H            7.19394430137745        4.83070540950753        0.58772736984105
H            5.48861210117492        4.47265798975709        0.28842763369614
H            6.30975710758265        3.76703654479674        1.67917193339977
H            5.92094930860944        1.52240317358871        1.94366538725891
H            4.05123070831582       -0.03544489974325        2.13134649083324
H            4.65834777336088       -2.07677590088127        0.35609614008969
H            4.93179575629234       -4.44873242067505        0.74173099695871
H            1.92816194680191       -8.18767767876668        1.40062363845421
H            1.18257493644037       -7.11669813442939        0.21949846794409
H            1.07225815046287       -6.75074956304726        1.95115268760438
H            3.15571138872480       -6.03869619150482        3.21851048246020
H            4.71837861251072       -5.99429245353055        2.40518961772129
H            3.91151145655852       -7.53906390967876        2.67110953230077
H            4.02509255546777       -8.05224233514345        0.16300944516323
H            4.85902702704247       -6.52139402483683       -0.09252660920903
H            3.38666845317318       -6.87801890227250       -0.99241996502479
H            0.68738760567813       -4.93425988831630        0.70251050087901
H           -0.74092431866284       -4.92374374838712       -0.71519023240840
H           -4.91786397646133       -6.47677055676588        0.10235021025686
H           -3.44041038779192       -6.84990190267691        0.98706899765513
H           -4.09970580002317       -8.01383035273715       -0.16706953344877
H           -3.24116290345293       -5.99545024096677       -3.22245144344788
H           -4.00411773628070       -7.49180551179152       -2.67405097912378
H           -4.79596481187778       -5.94171214521052       -2.39472746013576
H           -1.25049212434621       -7.10382370143609       -0.24572959837073
H           -1.15143390169461       -6.72854226172650       -1.97603623182109
H           -2.01493888853717       -8.16144781593619       -1.42673729221548
H           -4.98084428922189       -4.39947606755508       -0.72796671617139
H           -4.68373489157923       -2.03169648815106       -0.33657468583359
H           -3.31620612820499        0.34752895607864        2.06968951668672
H           -5.17487211929891        1.90529846808407        2.29344220201940
H           -7.84069637396181        4.18206948157409        1.68808959388096
H           -7.32450728739149        2.64670239074333        2.37536874131447
H           -6.14207423991353        3.93556361220117        2.07691143761082
H           -7.17783939255799        4.88509689228600       -0.55588856582904
H           -6.32198549902512        3.80412500484900       -1.65281902018486
H           -5.46852990870920        4.52137728848987       -0.28771186625316
H           -8.92962989618138        3.03031054261683       -0.15834996082226
H           -8.39339896184944        1.44346643720787        0.40056815932127
H           -8.04527336531403        1.96525074464688       -1.24635170825217
H           -5.94550568299092        1.55808184630766       -1.89930852549025
H           -4.09093541409802       -0.01500742355983       -2.10527820121649
H           -2.09599397073305        1.88086749100941       -0.34093674782730
H            1.04408970925597        5.67010798678513        0.94154213336003
H            3.03434144566797        6.83750430424235        0.09394046617768
H            4.26498059599842        5.94760029817179       -1.85304937138113
H            3.46823065446572        3.88405056313610       -2.96028619149486
H            1.47797232982384        2.71894249346073       -2.11912086623980
H           -1.45405840721906        2.76584049343596        2.08620193058423
H           -3.42452012074486        3.97394992927298        2.91273375268220
H           -4.18550850189788        6.03829060153615        1.78211843367549
H           -2.93806660299609        6.88602916374529       -0.17305739257961
H           -0.96722178482420        5.67589333962017       -1.00570215495186
H            2.11294757255870        1.86080822763536        0.32376533666730
H            3.35492363247202        0.29057118452133       -2.06018769926031
H            5.22901875761747        1.83265237382053       -2.26560452714697

 projected vibrational frequencies (cm⁻¹)
eigval :       -0.00    -0.00    -0.00    -0.00     0.00     0.00
eigval :        9.40    12.23    17.97    18.52    25.73    28.29
eigval :       30.26    30.44    30.98    33.48    37.06    39.90
eigval :       51.05    57.75    58.00    70.40    70.63    72.28
eigval :       79.23    82.32    91.58    93.61   101.16   102.20
eigval :      103.58   138.62   143.92   150.56   162.68   173.15
eigval :      175.42   178.83   179.10   181.49   184.10   195.94
eigval :      207.92   212.48   218.66   221.05   222.95   226.30
eigval :      227.28   230.53   241.64   241.89   246.09   252.41
eigval :      259.85   261.21   280.60   295.42   310.06   310.61
eigval :      313.82   317.45   318.31   318.84   320.35   324.76
eigval :      334.56   341.16   351.00   353.84   361.08   361.27
eigval :      367.99   369.06   378.13   378.92   381.50   386.26
eigval :      390.90   394.53   398.51   400.11   407.86   418.83
eigval :      421.71   424.33   433.50   443.96   446.13   453.32
eigval :      458.38   465.20   469.31   470.02   481.88   488.71
eigval :      497.39   504.67   523.47   523.88   525.83   550.71
eigval :      557.64   559.14   577.55   583.48   588.66   591.26
eigval :      596.77   598.22   605.23   609.12   612.91   616.15
eigval :      621.08   652.24   657.32   660.45   662.24   662.73
eigval :      685.16   688.46   695.88   707.88   712.84   722.88
eigval :      728.11   753.59   756.85   769.32   787.05   790.26
eigval :      796.09   797.82   811.53   817.81   840.08   840.55
eigval :      862.30   866.67   867.03   867.23   869.00   872.16
eigval :      872.33   873.92   879.44   879.75   880.62   885.36
eigval :      887.12   900.23   908.09   910.63   911.14   922.89
eigval :      924.19   924.45   925.04   925.10   926.53   929.03
eigval :      929.14   945.24   957.95   958.77   960.95   960.98
eigval :      961.27   961.93   962.55   962.60   963.16   964.83
eigval :      964.87   964.92   966.17   976.62   999.23  1009.60
eigval :     1014.42  1032.99  1033.79  1034.03  1035.73  1035.78
eigval :     1035.80  1035.82  1036.07  1050.98  1080.44  1081.65
eigval :     1089.48  1090.56  1121.91  1124.53  1133.62  1140.36
eigval :     1140.54  1144.70  1144.85  1153.38  1160.65  1164.47
eigval :     1180.16  1180.18  1187.36  1192.45  1195.31  1199.64
eigval :     1200.03  1211.58  1211.95  1223.62  1225.30  1226.48
eigval :     1227.66  1228.00  1228.75  1229.23  1234.35  1234.47
eigval :     1244.43  1246.09  1258.16  1266.80  1270.85  1273.22
eigval :     1274.64  1275.21  1279.42  1282.98  1285.50  1287.85
eigval :     1296.50  1301.14  1313.13  1313.34  1315.90  1316.11
eigval :     1321.21  1326.42  1331.75  1334.64  1338.76  1354.57
eigval :     1362.38  1374.24  1384.26  1397.47  1397.81  1403.06
eigval :     1403.56  1404.29  1404.39  1405.98  1406.05  1408.04
eigval :     1408.56  1411.93  1415.09  1426.39  1426.55  1427.70
eigval :     1427.73  1435.36  1444.15  1447.98  1466.87  1471.57
eigval :     1473.08  1478.50  1481.92  1485.19  1491.22  1491.60
eigval :     1491.69  1491.71  1493.87  1494.22  1494.26  1494.73
eigval :     1494.81  1499.42  1500.05  1501.64  1501.67  1503.57
eigval :     1504.94  1505.72  1505.76  1510.64  1512.07  1513.62
eigval :     1514.05  1514.10  1518.63  1519.16  1519.20  1522.43
eigval :     1534.38  1546.56  1548.60  1553.59  1555.28  1560.64
eigval :     1581.01  1585.73  1588.54  1595.62  3016.67  3017.02
eigval :     3018.46  3018.48  3022.96  3023.04  3024.48  3024.60
eigval :     3025.22  3025.88  3025.95  3026.24  3027.09  3027.17
eigval :     3029.36  3029.54  3029.65  3029.74  3031.66  3031.82
eigval :     3034.64  3034.90  3036.74  3036.78  3036.89  3039.51
eigval :     3041.51  3041.53  3045.49  3045.54  3046.55  3046.58
eigval :     3049.07  3049.29  3050.52  3050.57  3071.21  3071.47
eigval :     3073.45  3073.88  3075.99  3076.49  3080.85  3081.05
eigval :     3082.87  3083.75  3084.17  3084.66  3087.98  3088.53
eigval :     3089.50  3089.88  3092.52  3093.17  3093.32  3093.58
eigval :     3104.09  3104.62  3121.75  3121.97  3138.29  3146.07

   temp. (K)  partition function   enthalpy   heat capacity  entropy
                                   cal/mol     cal/K/mol   cal/K/mol   J/K/mol
 298.15  VIB  0.428E+28            35832.427    219.568    222.440
         ROT  0.167E+09              888.752      2.981     40.608
         INT  0.715E+36            36721.180    222.549    263.048
         TR   0.224E+29             1481.254      4.968     45.940
         TOT                       38202.4334   227.5175   308.9875  1292.8037

       T/K    H(0)-H(T)+PV         H(T)/Eh          T*S/Eh         G(T)/Eh
   ------------------------------------------------------------------------
    298.15    0.608795E-01    0.109011E+01    0.146810E+00    0.943296E+00
   ------------------------------------------------------------------------

         :::::::::::::::::::::::::::::::::::::::::::::::::::::
         ::                  THERMODYNAMIC                  ::
         :::::::::::::::::::::::::::::::::::::::::::::::::::::
         :: total free energy        -164.926031282805 Eh   ::
         ::.................................................::
         :: total energy             -165.869327696766 Eh   ::
         :: zero point energy           1.029226896142 Eh   ::
         :: G(RRHO) w/o ZPVE           -0.085930482181 Eh   ::
         :: G(RRHO) contrib.            0.943296413961 Eh   ::
         :::::::::::::::::::::::::::::::::::::::::::::::::::::

           -------------------------------------------------
          | TOTAL ENERGY             -165.869327696766 Eh   |
          | TOTAL ENTHALPY           -164.779221347804 Eh   |
          | TOTAL FREE ENERGY        -164.926031282805 Eh   |
          | GRADIENT NORM               0.000087865403 Eh/α |
           -------------------------------------------------

 * finished run on 2025/09/11 at 06:11:17.629
