   * xtb version 6.7.1 (edcfbbe) compiled by 'albert@albert-system' on 2024-07-22

   ID    Z sym.   atoms
    1    6 C      1-8, 10-19, 21-30, 32-44, 46-62
    2    7 N      9, 31, 45
    3    5 B      20
    4    1 H      63-124

          program call               : xtb data2507/gas/2tPAB/2tPAB_gas_S0_finalOpt.xtbopt.xyz --gfn 2 --spinpol --tblite --uhf 2 --ohess vtight --parallel 40 --molden --ceasefiles --namespace data2507/gas/2tPAB/2tPAB_gas_T1_preOpt
 * total energy  :  -165.8680928 Eh     change       -0.2484575E-07 Eh
 * total energy  :  -165.8689869 Eh     change       -0.8940894E-03 Eh
 * total energy  :  -165.8691844 Eh     change       -0.1974914E-03 Eh
 * total energy  :  -165.8692055 Eh     change       -0.2112625E-04 Eh
 * total energy  :  -165.8692273 Eh     change       -0.2181304E-04 Eh
 * total energy  :  -165.8692381 Eh     change       -0.1078379E-04 Eh
 * total energy  :  -165.8692620 Eh     change       -0.2390770E-04 Eh
 * total energy  :  -165.8692782 Eh     change       -0.1613147E-04 Eh
 * total energy  :  -165.8692832 Eh     change       -0.4992742E-05 Eh
 * total energy  :  -165.8692928 Eh     change       -0.9630567E-05 Eh
 * total energy  :  -165.8693258 Eh     change       -0.4940562E-06 Eh
 * total energy  :  -165.8693262 Eh     change       -0.4581351E-06 Eh
 * total energy  :  -165.8693266 Eh     change       -0.4300265E-06 Eh
 * total energy  :  -165.8693271 Eh     change       -0.4704827E-06 Eh
 * total energy  :  -165.8693276 Eh     change       -0.5271173E-06 Eh
 * total energy  :  -165.8693282 Eh     change       -0.5589847E-06 Eh
 * total energy  :  -165.8693285 Eh     change       -0.3291653E-06 Eh
 * total energy  :  -165.8693288 Eh     change       -0.2457809E-06 Eh
 * total energy  :  -165.8693289 Eh     change       -0.8511910E-07 Eh
   *** GEOMETRY OPTIMIZATION CONVERGED AFTER 41 ITERATIONS ***

 final structure:
================
124
 xtb: 6.7.1 (edcfbbe)
C            7.84261746668371        3.13146285444642        0.25090496309863
C            6.47328576584087        3.61242145482867       -0.24833694343499
C            6.64606962160614        4.16234087483047       -1.66645799452261
C            5.95735663318977        4.75102960025340        0.64413411486296
C            5.47740244856184        2.46687557599262       -0.18292638392224
C            5.21354619834477        1.85463784713265        1.04156765047998
C            4.26606200144875        0.85869909180982        1.16568844819173
C            3.54606491034244        0.44476191650963        0.05140795649117
N            2.47637477235474       -0.48395465087591        0.16065326923310
C            2.73799243945983       -1.83284607691475        0.30428923987681
C            4.06251499589979       -2.25235348667404        0.44130374559153
C            4.36614633090884       -3.58110645749286        0.67113231144769
C            3.35188136677312       -4.53538572637317        0.79506848949012
C            3.72363745172995       -5.97453508216008        1.10969788995678
C            2.50745388842161       -6.90074073091792        1.19097967069207
C            4.44765440748092       -6.01373589062553        2.46345197677031
C            4.65278223617184       -6.50789005295128        0.00946845609099
C            2.04502273930320       -4.11369185545163        0.60857824203626
C            1.68357777956646       -2.79131834767094        0.30443101949892
B            0.25607677762718       -2.30828276158586       -0.00830987151870
C           -1.03260089081016       -3.08805983141610       -0.32443453933613
C           -1.09882348720308       -4.45634585871584       -0.63315799608223
C           -2.28303875111715       -5.14987931231683       -0.82573294310606
C           -2.33392869939165       -6.63455253999450       -1.14439681984358
C           -3.13266047244411       -7.35847500696025       -0.05065099445067
C           -3.02450242431048       -6.82555509951322       -2.50269437197088
C           -0.94620885696388       -7.27661593477836       -1.21895571864036
C           -3.48000615424823       -4.43752249192537       -0.70496834552109
C           -3.47146638299317       -3.07546147286556       -0.46984137712927
C           -2.26942083037300       -2.38052750501774       -0.32427892952484
N           -2.30665783438939       -1.00789735854473       -0.17282214223188
C           -3.55322760777350       -0.33392245535017       -0.06666102131093
C           -3.96131774718613        0.14727144868088        1.16976728453595
C           -5.10828867779876        0.91049126633836        1.27933626225716
C           -5.87640405703623        1.22237706990941        0.16350388832114
C           -7.09517683209909        2.12728289155745        0.22769629316920
C           -7.39871381962776        2.60635365109499        1.64954804224186
C           -6.82378387617280        3.36293988086996       -0.64329613666591
C           -8.32380951785784        1.37235218614695       -0.29779434548247
C           -5.47405602339422        0.69761140632795       -1.06387037119325
C           -4.33321099646946       -0.06965856239413       -1.18594740553542
C           -1.17964637680996       -0.20169965348640       -0.10575424347349
C           -1.32622377673763        1.18232346410109       -0.16830579905252
C           -0.21903530883219        2.01797568177898        0.01158690097072
N           -0.37273822867575        3.40780156262912        0.02178451493345
C            0.64927312244213        4.22257022678591       -0.47185157431491
C            0.95446743234534        5.43262170389079        0.15521915844521
C            1.98841167880640        6.21868195045818       -0.31161173358561
C            2.73988877733895        5.81733300308711       -1.40545782838221
C            2.43733787787480        4.62069895691750       -2.03643964951990
C            1.40341774044045        3.82961964605147       -1.58013476434588
C           -1.54751720991089        3.97192105649476        0.52548565122744
C           -2.19642451861294        3.40667611240135        1.62594311469136
C           -3.37819802522516        3.94502443439556        2.09134075488022
C           -3.93586100779848        5.05591419286124        1.47770476038339
C           -3.29122259645882        5.62879451898446        0.39207907232346
C           -2.11071406256702        5.09529292008865       -0.08398012560411
C            1.04355423252738        1.44098685629134        0.18149241494943
C            1.20072036057968        0.05886061891945        0.10303469724580
C            0.09099473961003       -0.80428856879478       -0.00411596608753
C            3.82432979328060        1.01647017077355       -1.18270522164481
C            4.77889281146660        2.00948198845640       -1.29442412887582
H            7.79361237906995        2.78919141951934        1.28075525911665
H            8.19977759756188        2.30900341565779       -0.36551500669877
H            8.56593856053800        3.94224551382834        0.19704911620368
H            5.70582438163009        4.55298199654991       -2.04765944070465
H            7.01825808989168        3.39584512335930       -2.34246739285149
H            7.36787822802263        4.97653096030835       -1.65310212926471
H            6.62896172703891        5.60501877339211        0.58771727695563
H            4.96775696249856        5.06419664626263        0.31601308303944
H            5.88888284887430        4.44026518840615        1.68300379710154
H            5.74212136921960        2.16982710377685        1.92828102302297
H            4.06036571094788        0.41237034077128        2.12763505943501
H            4.86759548048582       -1.53552306115516        0.37524501377750
H            5.40367719444549       -3.86019576523214        0.77060515970840
H            2.83529824993808       -7.91083597657779        1.43043253231817
H            1.98276524401753       -6.93507333100751        0.23918325434499
H            1.81893415104571       -6.57737244143451        1.96826831606078
H            3.79744441966695       -5.62978471091471        3.24701502296518
H            5.35150274157428       -5.41092175124507        2.44552662377755
H            4.72364966121047       -7.03652539987748        2.71294852430227
H            4.91304287605343       -7.54566079419387        0.20892927069466
H            5.57223339959701       -5.93211854158552       -0.04799893364043
H            4.15675218998942       -6.45547955736641       -0.95763523462454
H            1.24116137424691       -4.82067836348493        0.70897203480467
H           -0.16086897657459       -4.97256848248354       -0.73235042321042
H           -4.15508310609711       -6.99498465529485        0.00148918774441
H           -2.66550440639341       -7.20244586735887        0.91965916847316
H           -3.16150978292752       -8.42750077124300       -0.25275513486057
H           -2.46763830250203       -6.30872637708572       -3.28176436554387
H           -3.07229601942520       -7.88318964893378       -2.75498859005200
H           -4.03703918249475       -6.43152070608187       -2.48975075021668
H           -0.43175467962014       -7.19827715946747       -0.26416969948109
H           -0.33931265632607       -6.81137506527134       -1.99228080949476
H           -1.04721919104911       -8.33331138226406       -1.46042428756248
H           -4.43232626527894       -4.93364587734602       -0.81080954259921
H           -4.41255657159863       -2.54941217309481       -0.40612406967382
H           -3.36231719866451       -0.06742738726759        2.04253920133694
H           -5.38703332731620        1.26951264084304        2.25559734651819
H           -8.27800667302219        3.24722861812134        1.63515871324891
H           -7.60604139410294        1.76798291438081        2.31074526200188
H           -6.56864639431633        3.18354824219932        2.04932215262926
H           -7.66339636167483        4.05246718449460       -0.58740158231016
H           -6.67706248843855        3.08932707046123       -1.68451688826962
H           -5.92852163166086        3.87580813900132       -0.29613530115809
H           -9.20450896901864        2.00872431088612       -0.24436762590665
H           -8.50383225048648        0.48305932314484        0.30280454496648
H           -8.19068485522148        1.06456035915594       -1.33107760594764
H           -6.04835973449471        0.90386740526514       -1.95415812485749
H           -4.02583759455115       -0.44846474892495       -2.14972975439874
H           -2.29162719451521        1.63303724615895       -0.33564462605908
H            0.37747490510202        5.74348881108692        1.01401059123131
H            2.21705060203718        7.14904639813526        0.18781120326277
H            3.54851422294788        6.43578111612354       -1.76557181891586
H            3.00441485154352        4.30623190819137       -2.90050094271761
H            1.16527067564763        2.90255430567412       -2.08011819755186
H           -1.76066565333789        2.54678022658513        2.11261512938091
H           -3.86216463228232        3.50072791081311        2.94893246330989
H           -4.86002603095240        5.47674002818262        1.84493973524473
H           -3.71832411558891        6.49413798144455       -0.09377217235846
H           -1.61655568158510        5.53798845311631       -0.93656847150126
H            1.88855925062284        2.08833407719012        0.35508410892711
H            3.27384473406038        0.68735549166129       -2.05178888215529
H            4.96088172295289        2.43045005151761       -2.26877290149959

 projected vibrational frequencies (cm⁻¹)
eigval :       -0.00    -0.00    -0.00    -0.00     0.00     0.00
eigval :        9.80    11.81    17.94    18.65    25.96    28.75
eigval :       30.32    30.74    31.15    33.66    37.06    39.90
eigval :       51.33    58.00    58.28    70.20    70.52    71.98
eigval :       79.15    82.53    91.52    93.57   101.23   102.44
eigval :      103.83   137.85   144.08   150.60   162.79   173.30
eigval :      175.16   178.95   179.15   181.76   184.16   196.12
eigval :      207.88   212.36   218.77   221.07   223.09   226.31
eigval :      227.28   230.64   241.66   241.85   246.23   252.52
eigval :      259.97   261.20   280.78   295.44   310.10   310.69
eigval :      313.79   317.34   318.51   318.97   320.39   324.88
eigval :      334.51   341.05   350.85   353.82   361.17   361.30
eigval :      368.32   369.16   378.23   379.01   381.53   386.36
eigval :      390.77   394.61   398.46   400.23   407.62   418.81
eigval :      421.57   424.27   433.77   443.86   446.11   453.46
eigval :      458.44   465.23   469.56   470.15   481.91   488.82
eigval :      497.15   504.54   523.62   524.16   525.88   550.81
eigval :      557.69   559.19   577.59   583.68   588.76   591.26
eigval :      596.92   598.33   605.30   609.05   612.93   616.28
eigval :      621.12   652.26   657.35   660.50   662.20   662.69
eigval :      685.88   688.20   695.88   707.93   712.53   722.58
eigval :      728.18   753.80   757.07   769.41   786.33   789.96
eigval :      795.83   798.23   811.67   817.99   840.15   841.09
eigval :      862.35   866.87   867.19   867.42   869.05   872.36
eigval :      872.39   874.25   879.39   879.60   880.34   885.50
eigval :      887.40   900.16   908.03   910.84   911.38   922.85
eigval :      922.94   924.66   925.24   925.30   926.81   929.25
eigval :      929.31   945.39   957.95   958.95   961.16   961.19
eigval :      961.37   962.07   962.70   962.75   963.30   964.96
eigval :      965.01   965.04   966.22   976.01   999.05  1009.24
eigval :     1014.03  1033.16  1033.89  1034.18  1035.91  1035.96
eigval :     1036.06  1036.08  1036.23  1051.62  1080.39  1081.43
eigval :     1089.52  1090.59  1121.94  1124.51  1133.71  1140.51
eigval :     1140.70  1144.96  1145.07  1152.79  1160.65  1164.55
eigval :     1180.54  1180.55  1187.51  1192.78  1195.65  1199.99
eigval :     1200.32  1211.70  1212.50  1223.78  1225.47  1226.75
eigval :     1227.80  1228.18  1228.93  1229.31  1234.44  1234.53
eigval :     1244.66  1246.20  1258.19  1267.08  1271.10  1273.42
eigval :     1274.95  1275.77  1279.65  1283.21  1285.63  1288.41
eigval :     1296.44  1301.15  1313.26  1313.53  1315.92  1316.04
eigval :     1321.15  1326.35  1331.61  1334.50  1338.71  1354.49
eigval :     1363.97  1374.34  1384.76  1397.54  1397.84  1403.44
eigval :     1403.91  1404.65  1404.76  1406.31  1406.35  1408.24
eigval :     1408.76  1412.34  1415.34  1427.29  1427.45  1428.49
eigval :     1428.54  1435.60  1444.32  1447.88  1467.05  1471.73
eigval :     1473.11  1478.71  1482.22  1485.11  1491.61  1491.98
eigval :     1492.01  1492.02  1493.84  1494.57  1494.60  1495.20
eigval :     1495.27  1499.92  1500.69  1502.08  1502.10  1503.86
eigval :     1505.39  1505.99  1506.04  1510.11  1512.46  1514.08
eigval :     1514.45  1514.47  1519.29  1519.60  1519.64  1523.11
eigval :     1534.54  1546.76  1548.17  1553.60  1555.23  1560.65
eigval :     1581.14  1585.76  1588.65  1595.60  3016.60  3016.96
eigval :     3018.38  3018.40  3023.08  3023.15  3024.64  3024.69
eigval :     3025.30  3026.12  3026.23  3026.44  3027.24  3027.26
eigval :     3029.68  3029.81  3029.82  3029.86  3031.86  3032.00
eigval :     3035.16  3035.21  3036.81  3036.98  3037.15  3039.63
eigval :     3041.63  3041.72  3045.57  3045.65  3046.68  3046.71
eigval :     3049.20  3049.49  3050.64  3050.67  3071.67  3071.89
eigval :     3073.78  3074.22  3076.36  3076.62  3081.27  3081.38
eigval :     3083.29  3084.26  3084.59  3085.13  3088.47  3089.03
eigval :     3089.67  3091.15  3093.04  3093.54  3093.63  3094.30
eigval :     3104.20  3104.79  3122.29  3122.42  3138.36  3146.26

   temp. (K)  partition function   enthalpy   heat capacity  entropy
                                   cal/mol     cal/K/mol   cal/K/mol   J/K/mol
 298.15  VIB  0.400E+28            35826.314    219.572    222.385
         ROT  0.167E+09              888.752      2.981     40.607
         INT  0.667E+36            36715.066    222.553    262.993
         TR   0.224E+29             1481.254      4.968     45.940
         TOT                       38196.3199   227.5215   308.9322  1292.5725

       T/K    H(0)-H(T)+PV         H(T)/Eh          T*S/Eh         G(T)/Eh
   ------------------------------------------------------------------------
    298.15    0.608697E-01    0.109022E+01    0.146784E+00    0.943433E+00
   ------------------------------------------------------------------------

         :::::::::::::::::::::::::::::::::::::::::::::::::::::
         ::                  THERMODYNAMIC                  ::
         :::::::::::::::::::::::::::::::::::::::::::::::::::::
         :: total free energy        -164.925895657390 Eh   ::
         ::.................................................::
         :: total energy             -165.869328911323 Eh   ::
         :: zero point energy           1.029347220072 Eh   ::
         :: G(RRHO) w/o ZPVE           -0.085913966139 Eh   ::
         :: G(RRHO) contrib.            0.943433253933 Eh   ::
         :::::::::::::::::::::::::::::::::::::::::::::::::::::

           -------------------------------------------------
          | TOTAL ENERGY             -165.869328911323 Eh   |
          | TOTAL ENTHALPY           -164.779111981028 Eh   |
          | TOTAL FREE ENERGY        -164.925895657390 Eh   |
          | GRADIENT NORM               0.000039821833 Eh/α |
           -------------------------------------------------

 * finished run on 2025/09/11 at 05:47:09.148
