   * xtb version 6.7.1 (edcfbbe) compiled by 'albert@albert-system' on 2024-07-22

   ID    Z sym.   atoms
    1    6 C      1-8, 10-19, 21-30, 32-44, 46-62
    2    7 N      9, 31, 45
    3    5 B      20
    4    1 H      63-124

          program call               : xtb data2507/gas/2tPAB/2tPAB.xyz --gfn 2 --ohess vtight --parallel 40 --molden --ceasefiles --namespace data2507/gas/2tPAB/2tPAB_gas_S0_preOpt
          :  Hamiltonian                  GFN2-xTB          :
 * total energy  :  -165.8305638 Eh     change       -0.4141611E-08 Eh
 * total energy  :  -165.8911675 Eh     change       -0.6060364E-01 Eh
 * total energy  :  -165.9137984 Eh     change       -0.2263094E-01 Eh
 * total energy  :  -165.9228653 Eh     change       -0.9066852E-02 Eh
 * total energy  :  -165.9285732 Eh     change       -0.5707954E-02 Eh
 * total energy  :  -165.9325270 Eh     change       -0.3953749E-02 Eh
 * total energy  :  -165.9353924 Eh     change       -0.2865451E-02 Eh
 * total energy  :  -165.9375590 Eh     change       -0.2166578E-02 Eh
 * total energy  :  -165.9393329 Eh     change       -0.1773876E-02 Eh
 * total energy  :  -165.9408865 Eh     change       -0.1553614E-02 Eh
 * total energy  :  -165.9578448 Eh     change       -0.4057707E-06 Eh
 * total energy  :  -165.9578452 Eh     change       -0.3799657E-06 Eh
 * total energy  :  -165.9578455 Eh     change       -0.3367509E-06 Eh
 * total energy  :  -165.9578458 Eh     change       -0.2823008E-06 Eh
 * total energy  :  -165.9578460 Eh     change       -0.2184925E-06 Eh
 * total energy  :  -165.9578462 Eh     change       -0.1641788E-06 Eh
 * total energy  :  -165.9578464 Eh     change       -0.1673174E-06 Eh
 * total energy  :  -165.9578466 Eh     change       -0.2330920E-06 Eh
 * total energy  :  -165.9578466 Eh     change       -0.1609749E-08 Eh
   *** GEOMETRY OPTIMIZATION CONVERGED AFTER 152 ITERATIONS ***

 final structure:
================
124
 xtb: 6.7.1 (edcfbbe)
C            6.93794391694723        4.17552028264456       -0.89046920199182
C            6.56402152053921        3.57682154801562        0.46792557096032
C            5.96412289705445        4.69619150600312        1.33160353981093
C            7.84138828915129        3.03388553721720        1.12289420012642
C            5.53986148719749        2.45980159390578        0.35284638906849
C            5.08716888844284        1.82291222535629        1.50633377595691
C            4.10282492333578        0.85479625515083        1.46054565122701
C            3.54383117257075        0.49492060891898        0.24298966462110
N            2.43408965925017       -0.39874994538158        0.18192566822129
C            2.65871280535964       -1.74744398935326       -0.01424922624867
C            3.98200498621691       -2.20357836415831       -0.05878279401623
C            4.26634597281591       -3.52435296652754       -0.30248546508460
C            3.24853114517426       -4.45115797947277       -0.54055051167102
C            3.61141243389283       -5.89494728753409       -0.85286908788222
C            2.38188662050054       -6.78263975144620       -1.06342753971588
C            4.41897189042007       -6.47452983806296        0.31732432784226
C            4.45534432023371       -5.93263220797693       -2.13464308438351
C            1.94843804030755       -3.98926439654031       -0.47837542957967
C            1.59883928384180       -2.66398949850272       -0.18457331223420
B            0.14945941635633       -2.12872328879415       -0.07945039295663
C           -1.21051824787416       -2.86735626802053       -0.02295372163760
C           -1.37026222317566       -4.24692923784567        0.16720105956044
C           -2.59291085989375       -4.88893436747238        0.18788072210239
C           -2.74918595130328       -6.38875471918992        0.38756248570690
C           -1.40657027303448       -7.11037388567839        0.53147107958417
C           -3.56835217431817       -6.64091652576459        1.66112909072430
C           -3.47884816778607       -6.98412867781689       -0.82509793501847
C           -3.73140660626495       -4.09759223347871        0.01705091168937
C           -3.63534852986627       -2.73542344987331       -0.12415154925750
C           -2.38879290237537       -2.09729513511002       -0.12819393127749
N           -2.35545094587774       -0.71955291171922       -0.22069321345318
C           -3.57918523087113        0.01279538474788       -0.22136357607657
C           -4.12271532285741        0.44418579322685        0.97941532880564
C           -5.23346301587307        1.26765051498160        0.98762278160074
C           -5.82973852719933        1.68351441487601       -0.19672403748313
C           -6.99979124663402        2.65274567562990       -0.23467768119635
C           -7.44609054210606        3.09247171919689        1.16208398426183
C           -6.56582632071615        3.90489030846668       -1.01096298897070
C           -8.19275216238894        1.98707163215759       -0.93405759973401
C           -5.29881996923254        1.20231357754582       -1.39157118111869
C           -4.18911992741776        0.37987827736866       -1.41201931469907
C           -1.20572681212180        0.03233787578537       -0.11797025235369
C           -1.28959190747473        1.42263500272365       -0.13794648089827
C           -0.15351498363564        2.18952639110616        0.08423125495342
N           -0.25173916724362        3.58510552066261        0.13679770919970
C            0.83157123385322        4.38037586089279       -0.25133538795005
C            1.14190909132520        5.54055722403851        0.45829842864241
C            2.22788331895047        6.31228999647516        0.09374044203436
C            3.02534972064023        5.94198982768663       -0.97681044481748
C            2.71680444546965        4.79576057074299       -1.69130921778351
C            1.62821749198613        4.02318666968396       -1.33994727414290
C           -1.43434663805870        4.18893542313584        0.57699417150855
C           -2.16581436667695        3.64434747880799        1.63323672779975
C           -3.35071479060452        4.22730504066768        2.03512620530920
C           -3.82278209095346        5.36701713711147        1.40443934230336
C           -3.09229645506578        5.92327374306281        0.36707686327553
C           -1.91010158319399        5.34179483845206       -0.04782196827490
C            1.07956389562313        1.57411851857446        0.25437341948730
C            1.19024722570007        0.19112271153258        0.12980097622371
C            0.04336328861803       -0.61644573418517       -0.02166069062673
C            4.01581518008971        1.08491895617611       -0.91999015469124
C            5.00111047200576        2.05328435700562       -0.86191872527704
H            7.38369464554342        3.42653955258055       -1.54108842587552
H            6.06541403897127        4.60286276399275       -1.37865691602890
H            7.66677302794347        4.97071680897323       -0.74694490095673
H            5.75551818423697        4.35051807350700        2.34023889339751
H            5.03229254376495        5.04864922728779        0.89288964239624
H            6.65710640549876        5.53246504843421        1.39517288911862
H            8.58556058549885        3.82341016606955        1.20271189282861
H            7.64489147701260        2.65076990609476        2.12031554817082
H            8.25754175593520        2.22682045723011        0.52333472105465
H            5.49237200110909        2.09560675807589        2.46890530482518
H            3.74667933644007        0.38913673631817        2.36767405433837
H            4.79423782471209       -1.50668343657269        0.09013423946762
H            5.30193929735801       -3.83008304401721       -0.32615244038323
H            2.70147466658504       -7.79954984863787       -1.28418570144377
H            1.78238730260245       -6.43055240470042       -1.89993020310775
H            1.76606117066133       -6.81193813389289       -0.16762726169316
H            3.83642909153524       -6.42621570100430        1.23520628479320
H            5.34359070226705       -5.92537325105259        0.47215727813319
H            4.67056028763605       -7.51523848873791        0.12210496365433
H            4.72173082813116       -6.95871975130468       -2.38109199936234
H            5.37226383885055       -5.36067601500479       -2.02061981337949
H            3.89309422214002       -5.51206192791773       -2.96603538959652
H            1.14249970200336       -4.66771068349199       -0.69195462617479
H           -0.47638646817316       -4.82070113108445        0.33215878957009
H           -0.85474776790073       -6.74414411365921        1.39429180729542
H           -0.80023519053497       -6.98425738177723       -0.36241309912469
H           -1.57995502022311       -8.17585861089630        0.67168209648721
H           -4.55650263267035       -6.19442696230359        1.58972292934776
H           -3.68809052760262       -7.70981908101982        1.82745754108924
H           -3.06231554637954       -6.21125378050391        2.52341672011755
H           -2.91701051206918       -6.78519048102517       -1.73557011757793
H           -4.47224772036256       -6.55908706380670       -0.93885946751449
H           -3.58147273643060       -8.06157642438639       -0.71084869695872
H           -4.71417017410043       -4.54552046429062        0.01320099931345
H           -4.53765401822768       -2.14921236313473       -0.22295147935720
H           -3.65504678844086        0.14826382486989        1.90713903004854
H           -5.61768829515391        1.59247961184624        1.93999750515439
H           -8.27894402338432        3.78720869548603        1.07362820142966
H           -7.78021141752539        2.24318768300182        1.75373411012422
H           -6.63874442585243        3.59973455273899        1.68469810959320
H           -7.36862351393081        4.63913075499944       -1.01651759848436
H           -6.31650803862549        3.66643651616569       -2.04117116663750
H           -5.68973000257773        4.35029353572515       -0.54292237637099
H           -9.03961598179271        2.66946502145817       -0.96002748105101
H           -8.48996109035875        1.08859118998543       -0.39702463911473
H           -7.94997620165091        1.70857239722486       -1.95569181559422
H           -5.74298656410321        1.48597505880062       -2.33356164948777
H           -3.77631596385827        0.03625452618393       -2.34907591806348
H           -2.23140174407513        1.91983336800666       -0.30095667419693
H            0.52875792193762        5.82597186379302        1.30077129742742
H            2.45999444490981        7.20438759480257        0.65720469496966
H            3.87594777962557        6.54640191137405       -1.25516465216758
H            3.32265048574752        4.50555538832553       -2.53731853382317
H            1.38590473876681        3.13545032398582       -1.90462050805429
H           -1.79682966254918        2.76116253419264        2.13273112593911
H           -3.90427863497566        3.79356656970849        2.85514777311797
H           -4.74875468433974        5.82297390405727        1.72223804791167
H           -3.45193178128846        6.81187813310579       -0.13117356080250
H           -1.34860592591560        5.77154796261897       -0.86465056524427
H            1.94369403073638        2.18417447033016        0.45908668603599
H            3.58914079392997        0.79577061967066       -1.86936026444614
H            5.33148083132464        2.49755069357621       -1.78585063585259

          :  Hamiltonian                  GFN2-xTB          :
         :: gradient norm              0.000028291538 Eh/a0 ::
         :: HOMO-LUMO gap              2.361158366308 eV    ::
         :: SCC energy              -168.877274817366 Eh    ::
         :: -> dispersion             -0.174335921946 Eh    ::
         :: repulsion energy           2.919428214329 Eh    ::

    * Orbital Energies and Occupations

         #    Occupation            Energy/Eh            Energy/eV
      -------------------------------------------------------------
         1        2.0000           -0.6574815             -17.8910
       ...           ...                  ...                  ...
       144        2.0000           -0.4008150             -10.9067
       145        2.0000           -0.3994316             -10.8691
       146        2.0000           -0.3943912             -10.7319
       147        2.0000           -0.3926088             -10.6834
       148        2.0000           -0.3912056             -10.6452
       149        2.0000           -0.3831115             -10.4250
       150        2.0000           -0.3829572             -10.4208
       151        2.0000           -0.3788769             -10.3098
       152        2.0000           -0.3672904              -9.9945
       153        2.0000           -0.3668315              -9.9820
       154        2.0000           -0.3496927              -9.5156
       155        2.0000           -0.3413504              -9.2886
       156        2.0000           -0.3302452              -8.9864 (HOMO)
       157                         -0.2434742              -6.6253 (LUMO)
       158                         -0.2270386              -6.1780
       159                         -0.2259877              -6.1494
       160                         -0.2253713              -6.1327
       161                         -0.2242351              -6.1017
       162                         -0.2239531              -6.0941
       163                         -0.2216261              -6.0308
       164                         -0.2180565              -5.9336
       165                         -0.2140253              -5.8239
       166                         -0.2086898              -5.6787
       167                         -0.1982844              -5.3956
       ...                                ...                  ...
       310                          0.7282582              19.8169
      -------------------------------------------------------------
                  HL-Gap            0.0867710 Eh            2.3612 eV

     #   Z          covCN         q      C6AA      α(0)
     1   6 C        3.761    -0.108    22.613     6.779
     2   6 C        3.903     0.026    20.083     6.370
     3   6 C        3.762    -0.106    22.575     6.773
     4   6 C        3.761    -0.106    22.571     6.773
     5   6 C        2.974     0.008    27.826     8.653
     6   6 C        2.928    -0.035    28.868     8.811
     7   6 C        2.920    -0.041    29.016     8.833
     8   6 C        2.937     0.066    26.528     8.447
     9   7 N        2.757    -0.054    22.282     7.011
    10   6 C        2.926     0.055    26.763     8.484
    11   6 C        2.918    -0.059    29.468     8.902
    12   6 C        2.927    -0.035    28.869     8.811
    13   6 C        2.969    -0.007    28.193     8.709
    14   6 C        3.903     0.025    20.101     6.373
    15   6 C        3.761    -0.105    22.562     6.771
    16   6 C        3.762    -0.104    22.529     6.766
    17   6 C        3.762    -0.104    22.526     6.766
    18   6 C        2.931    -0.046    29.149     8.854
    19   6 C        2.885    -0.087    30.168     9.005
    20   5 B        2.722     0.187    18.581     7.223
    21   6 C        2.885    -0.087    30.168     9.005
    22   6 C        2.931    -0.046    29.149     8.854
    23   6 C        2.969    -0.007    28.193     8.709
    24   6 C        3.903     0.025    20.101     6.373
    25   6 C        3.761    -0.105    22.561     6.771
    26   6 C        3.762    -0.104    22.526     6.766
    27   6 C        3.762    -0.104    22.529     6.766
    28   6 C        2.927    -0.035    28.869     8.811
    29   6 C        2.918    -0.059    29.468     8.902
    30   6 C        2.926     0.055    26.763     8.484
    31   7 N        2.757    -0.054    22.282     7.011
    32   6 C        2.937     0.066    26.528     8.447
    33   6 C        2.922    -0.039    28.978     8.828
    34   6 C        2.925    -0.038    28.942     8.822
    35   6 C        2.974     0.008    27.827     8.653
    36   6 C        3.903     0.026    20.083     6.370
    37   6 C        3.761    -0.108    22.613     6.779
    38   6 C        3.762    -0.106    22.575     6.773
    39   6 C        3.761    -0.106    22.571     6.773
    40   6 C        2.928    -0.035    28.868     8.811
    41   6 C        2.920    -0.041    29.016     8.833
    42   6 C        2.934     0.060    26.653     8.467
    43   6 C        2.923    -0.095    30.385     9.040
    44   6 C        2.923     0.064    26.576     8.454
    45   7 N        2.754    -0.077    22.729     7.081
    46   6 C        2.924     0.067    26.496     8.441
    47   6 C        2.923    -0.048    29.196     8.861
    48   6 C        2.919    -0.031    28.769     8.796
    49   6 C        2.919    -0.040    29.002     8.831
    50   6 C        2.919    -0.030    28.744     8.792
    51   6 C        2.922    -0.046    29.149     8.854
    52   6 C        2.924     0.067    26.495     8.441
    53   6 C        2.922    -0.046    29.148     8.854
    54   6 C        2.919    -0.030    28.743     8.792
    55   6 C        2.919    -0.040    29.001     8.831
    56   6 C        2.919    -0.031    28.769     8.796
    57   6 C        2.923    -0.048    29.195     8.861
    58   6 C        2.923    -0.095    30.385     9.040
    59   6 C        2.934     0.060    26.653     8.467
    60   6 C        2.897    -0.114    30.893     9.113
    61   6 C        2.922    -0.039    28.978     8.828
    62   6 C        2.925    -0.038    28.942     8.822
    63   1 H        0.925     0.036     2.505     2.475
    64   1 H        0.925     0.038     2.473     2.459
    65   1 H        0.925     0.037     2.489     2.467
    66   1 H        0.925     0.036     2.501     2.473
    67   1 H        0.925     0.036     2.499     2.472
    68   1 H        0.925     0.038     2.472     2.459
    69   1 H        0.925     0.038     2.470     2.458
    70   1 H        0.925     0.037     2.492     2.469
    71   1 H        0.925     0.035     2.523     2.484
    72   1 H        0.926     0.035     2.513     2.479
    73   1 H        0.926     0.039     2.468     2.457
    74   1 H        0.926     0.016     2.791     2.612
    75   1 H        0.926     0.020     2.726     2.582
    76   1 H        0.925     0.032     2.557     2.501
    77   1 H        0.925     0.034     2.535     2.490
    78   1 H        0.925     0.036     2.501     2.473
    79   1 H        0.925     0.032     2.559     2.502
    80   1 H        0.925     0.034     2.533     2.489
    81   1 H        0.925     0.033     2.547     2.496
    82   1 H        0.925     0.033     2.548     2.496
    83   1 H        0.925     0.034     2.536     2.490
    84   1 H        0.925     0.032     2.565     2.504
    85   1 H        0.926     0.040     2.449     2.447
    86   1 H        0.926     0.040     2.450     2.447
    87   1 H        0.925     0.034     2.536     2.490
    88   1 H        0.925     0.036     2.501     2.473
    89   1 H        0.925     0.032     2.557     2.501
    90   1 H        0.925     0.034     2.536     2.490
    91   1 H        0.925     0.033     2.548     2.496
    92   1 H        0.925     0.032     2.565     2.504
    93   1 H        0.925     0.032     2.559     2.502
    94   1 H        0.925     0.034     2.533     2.489
    95   1 H        0.925     0.033     2.547     2.496
    96   1 H        0.926     0.020     2.726     2.582
    97   1 H        0.926     0.016     2.791     2.612
    98   1 H        0.926     0.037     2.492     2.468
    99   1 H        0.926     0.042     2.419     2.432
   100   1 H        0.925     0.037     2.489     2.467
   101   1 H        0.925     0.036     2.505     2.475
   102   1 H        0.925     0.038     2.473     2.459
   103   1 H        0.925     0.038     2.472     2.459
   104   1 H        0.925     0.036     2.501     2.473
   105   1 H        0.925     0.036     2.499     2.472
   106   1 H        0.925     0.038     2.470     2.458
   107   1 H        0.925     0.035     2.523     2.484
   108   1 H        0.925     0.037     2.492     2.469
   109   1 H        0.926     0.035     2.513     2.479
   110   1 H        0.926     0.039     2.468     2.457
   111   1 H        0.926     0.020     2.736     2.586
   112   1 H        0.926     0.030     2.588     2.516
   113   1 H        0.926     0.029     2.594     2.519
   114   1 H        0.926     0.027     2.627     2.535
   115   1 H        0.926     0.028     2.614     2.528
   116   1 H        0.926     0.034     2.533     2.489
   117   1 H        0.926     0.034     2.533     2.489
   118   1 H        0.926     0.028     2.614     2.528
   119   1 H        0.926     0.027     2.627     2.535
   120   1 H        0.926     0.029     2.594     2.519
   121   1 H        0.926     0.030     2.588     2.515
   122   1 H        0.926     0.020     2.735     2.586
   123   1 H        0.926     0.037     2.492     2.468
   124   1 H        0.926     0.042     2.419     2.432

molecular dipole:
                 x           y           z       tot (Debye)
 q only:       -0.054       0.755       0.028
   full:       -0.065       0.918       0.035       2.341

 projected vibrational frequencies (cm⁻¹)
eigval :       -0.00    -0.00    -0.00     0.00     0.00     0.00
eigval :       11.86    12.00    18.05    19.61    27.32    27.61
eigval :       29.83    30.35    31.31    34.43    38.76    39.77
eigval :       51.22    59.91    60.08    67.13    71.40    71.54
eigval :       77.84    79.60    92.23    95.22    98.73    98.87
eigval :      103.96   139.76   143.95   150.66   166.34   172.68
eigval :      177.32   179.17   179.32   181.04   184.27   203.49
eigval :      209.26   209.78   219.21   220.78   223.30   225.45
eigval :      227.56   232.21   240.87   246.41   249.21   253.82
eigval :      257.49   277.30   282.56   298.57   309.51   311.41
eigval :      316.58   318.57   318.96   319.75   321.28   325.75
eigval :      336.39   345.69   357.72   358.68   362.85   370.07
eigval :      370.90   374.44   380.18   380.54   382.90   386.07
eigval :      394.71   397.51   400.29   407.55   417.51   421.13
eigval :      425.10   430.71   446.44   449.48   450.26   454.46
eigval :      466.74   468.07   469.87   473.14   487.33   493.14
eigval :      502.03   515.24   528.49   528.63   552.85   554.51
eigval :      566.85   576.24   582.82   584.66   588.88   589.93
eigval :      596.73   607.88   609.74   615.46   618.18   620.87
eigval :      630.79   661.80   662.19   664.85   667.01   684.27
eigval :      688.72   697.69   711.14   713.24   715.79   725.95
eigval :      732.57   758.68   759.70   777.25   795.27   813.07
eigval :      818.77   820.23   820.58   821.44   839.92   865.84
eigval :      869.14   869.39   870.39   872.12   874.16   875.13
eigval :      876.17   881.94   884.24   892.36   893.59   905.08
eigval :      910.79   913.13   913.50   917.80   918.14   926.35
eigval :      926.47   927.37   928.42   930.48   930.54   933.65
eigval :      935.03   948.41   959.52   960.36   961.37   961.44
eigval :      961.44   962.33   962.95   962.96   963.57   964.38
eigval :      965.02   965.02   970.55   979.06  1004.96  1014.06
eigval :     1016.97  1034.64  1035.56  1035.70  1035.97  1035.98
eigval :     1036.61  1036.62  1037.06  1070.41  1083.38  1083.90
eigval :     1099.81  1110.08  1121.68  1124.54  1140.50  1140.52
eigval :     1143.76  1144.15  1144.16  1161.52  1169.77  1181.33
eigval :     1181.51  1183.09  1195.09  1195.40  1197.92  1203.19
eigval :     1203.62  1225.65  1227.54  1228.35  1228.45  1228.71
eigval :     1232.11  1232.52  1233.97  1234.70  1235.12  1242.39
eigval :     1254.08  1264.56  1273.00  1274.83  1274.93  1277.83
eigval :     1279.29  1285.36  1286.26  1294.30  1296.60  1297.99
eigval :     1307.14  1311.84  1312.25  1317.94  1319.10  1321.41
eigval :     1323.20  1328.41  1352.98  1354.86  1359.79  1379.38
eigval :     1397.66  1397.70  1398.91  1405.25  1405.66  1406.12
eigval :     1406.90  1406.93  1409.05  1409.09  1409.80  1427.82
eigval :     1428.70  1429.57  1429.66  1429.71  1432.27  1439.15
eigval :     1441.29  1452.00  1458.24  1472.18  1477.20  1481.84
eigval :     1488.63  1490.23  1492.33  1492.38  1493.07  1493.28
eigval :     1495.09  1495.10  1496.17  1496.28  1500.48  1503.05
eigval :     1503.11  1504.91  1505.97  1506.41  1506.91  1507.23
eigval :     1514.57  1515.02  1515.04  1515.17  1519.64  1520.01
eigval :     1520.02  1524.64  1537.95  1543.41  1547.72  1569.16
eigval :     1570.87  1571.13  1575.90  1579.94  1595.25  1599.38
eigval :     1601.44  1602.33  1604.07  1604.25  3016.95  3017.37
eigval :     3018.59  3018.63  3022.86  3022.87  3024.65  3024.67
eigval :     3024.99  3025.36  3025.87  3026.53  3027.22  3027.25
eigval :     3029.21  3029.40  3029.98  3030.04  3031.91  3032.01
eigval :     3034.03  3034.09  3036.73  3037.11  3037.21  3038.90
eigval :     3040.52  3040.55  3044.34  3044.52  3046.99  3047.02
eigval :     3047.83  3048.26  3050.61  3050.62  3070.32  3070.34
eigval :     3072.09  3072.38  3074.95  3075.30  3081.57  3081.57
eigval :     3083.27  3083.50  3083.75  3084.07  3084.38  3085.07
eigval :     3090.18  3090.70  3093.47  3093.49  3095.32  3095.81
eigval :     3117.03  3117.80  3119.83  3119.86  3143.63  3153.17

   temp. (K)  partition function   enthalpy   heat capacity  entropy
                                   cal/mol     cal/K/mol   cal/K/mol   J/K/mol
 298.15  VIB  0.229E+28            35562.523    217.869    220.781
         ROT  0.833E+08              888.752      2.981     39.224
         INT  0.191E+36            36451.275    220.850    260.005
         TR   0.224E+29             1481.254      4.968     45.940
         TOT                       37932.5291   225.8179   305.9444  1280.0712

       T/K    H(0)-H(T)+PV         H(T)/Eh          T*S/Eh         G(T)/Eh
   ------------------------------------------------------------------------
    298.15    0.604493E-01    0.109429E+01    0.145364E+00    0.948922E+00
   ------------------------------------------------------------------------

         :::::::::::::::::::::::::::::::::::::::::::::::::::::
         ::                  THERMODYNAMIC                  ::
         :::::::::::::::::::::::::::::::::::::::::::::::::::::
         :: total free energy        -165.008925049793 Eh   ::
         ::.................................................::
         :: total energy             -165.957846603037 Eh   ::
         :: zero point energy           1.033836255614 Eh   ::
         :: G(RRHO) w/o ZPVE           -0.084914702371 Eh   ::
         :: G(RRHO) contrib.            0.948921553243 Eh   ::
         :::::::::::::::::::::::::::::::::::::::::::::::::::::

           -------------------------------------------------
          | TOTAL ENERGY             -165.957846603037 Eh   |
          | TOTAL ENTHALPY           -164.863561014538 Eh   |
          | TOTAL FREE ENERGY        -165.008925049793 Eh   |
          | GRADIENT NORM               0.000028293871 Eh/α |
          | HOMO-LUMO GAP               2.361158098539 eV   |
           -------------------------------------------------

 * finished run on 2025/09/11 at 05:25:00.883
