   * xtb version 6.7.1 (edcfbbe) compiled by 'albert@albert-system' on 2024-07-22

   ID    Z sym.   atoms
    1    7 N      1
    2    6 C      2-47
    3    1 H      48-76

          program call               : xtb data2507/gas/DPF-AnCN/DPF-AnCN_gas_S0_crest.xyz --gfn 2 --ohess vtight --parallel 40 --molden --ceasefiles --namespace data2507/gas/DPF-AnCN/DPF-AnCN_gas_S0_finalOpt
          :  Hamiltonian                  GFN2-xTB          :
 * total energy  :  -116.1796076 Eh     change       -0.4160427E-08 Eh
 * total energy  :  -116.1796082 Eh     change       -0.5997431E-06 Eh
 * total energy  :  -116.1796086 Eh     change       -0.4028750E-06 Eh
 * total energy  :  -116.1796092 Eh     change       -0.5978709E-06 Eh
 * total energy  :  -116.1796095 Eh     change       -0.3121307E-06 Eh
 * total energy  :  -116.1796099 Eh     change       -0.3643665E-06 Eh
 * total energy  :  -116.1796101 Eh     change       -0.2218804E-06 Eh
 * total energy  :  -116.1796101 Eh     change        0.1310964E-07 Eh
 * total energy  :  -116.1796102 Eh     change       -0.1375779E-06 Eh
 * total energy  :  -116.1796102 Eh     change        0.7910103E-08 Eh
 * total energy  :  -116.1796103 Eh     change       -0.8131292E-07 Eh
   *** GEOMETRY OPTIMIZATION CONVERGED AFTER 11 ITERATIONS ***

 final structure:
================
76
 xtb: 6.7.1 (edcfbbe)
N           10.50055493873078       -0.84647738953476        0.88812111253886
C            9.38253229387102       -0.67095584399699        0.70335785741580
C            8.00494027248462       -0.45450095552980        0.47540300631011
C            7.46082683475562       -0.69099424100218       -0.78802803725864
C            6.11468502066076       -0.47972656654678       -1.00389109629037
C            5.29153648437948       -0.02741577011340        0.02608818074748
C            3.85234281648554        0.20051152887337       -0.21456911079224
C            3.34120015567171        1.50590503754438       -0.19126650296364
C            4.17536711687655        2.63390487399312        0.02843462018068
C            3.66087646445560        3.89228649290249        0.08492259413480
C            2.27569042006740        4.10059889731036       -0.06647146506743
C            1.44642749631289        3.04930282971288       -0.30857037729909
C            1.94533608080434        1.72385096686014       -0.40972204377222
C            1.10440635076440        0.63736279917101       -0.69320437942123
C           -0.33020452036186        0.85530912216805       -0.95676913430018
C           -0.74507431173167        1.59988832417360       -2.06006361172894
C           -2.08850566610559        1.76955971687959       -2.34640970867056
C           -3.02827718879718        1.17304075682828       -1.52126260426751
C           -2.61583262560748        0.42887305213098       -0.40699914362699
C           -1.28057495332995        0.27398501301821       -0.11632138384097
C           -3.80553871330692       -0.19513745142690        0.29506266524155
C           -3.61237643162017       -1.69599494171417        0.17898480090612
C           -4.11603959393644       -2.39990857538100       -0.90668822085236
C           -3.85230434373339       -3.75097571082792       -1.05059399713862
C           -3.07249635153329       -4.41306455464796       -0.11877732030740
C           -2.56027952675516       -3.71600420859146        0.96224033075304
C           -2.82711297696944       -2.36738815817133        1.10973831738854
C           -3.99855559787987        0.26539704999331        1.72357952459440
C           -4.78118961148393       -0.48120547009088        2.59691998688000
C           -5.01366939527521       -0.03708307169080        3.88567881912646
C           -4.47155789003490        1.16142072599458        4.31769174185927
C           -3.69882444452725        1.91392075969908        3.45079292263800
C           -3.46700532081977        1.47140723946266        2.16031110121399
C           -4.95517217275641        0.33714520781133       -0.53834580239872
C           -6.30799057851293        0.13926977214238       -0.36519062155524
C           -7.18839589115836        0.74199529639259       -1.25382748540292
C           -6.72030445449157        1.53031906549591       -2.29400074658347
C           -5.36195098198679        1.73736259574748       -2.47050084332116
C           -4.47928635278250        1.13886870661061       -1.58661992205036
C            1.61950614150317       -0.66896068689250       -0.72764666706758
C            0.80618157218590       -1.79204854560755       -1.03555037842501
C            1.31031558265653       -3.05595093281778       -1.02232826275333
C            2.66456809897326       -3.27802231870559       -0.70478718213838
C            3.48738137756328       -2.22684151422081       -0.44090733677152
C            3.00710218412604       -0.89071118843600       -0.46340229717983
C            5.84395424977967        0.20777119010622        1.28404524069909
C            7.18777582806532       -0.00427737845351        1.51352163634670
H            8.09882266601132       -1.03779559578144       -1.58770695002004
H            5.68855394229757       -0.65846056966507       -1.98039844211400
H            5.23709231548057        2.47746253806517        0.14965632493107
H            4.30904301838667        4.73967446172852        0.25317721279033
H            1.87991536580988        5.10272926643488        0.00817435024180
H            0.38506639681275        3.21039907504798       -0.42335632033733
H            0.00263896495420        2.03249319784953       -2.70950300300838
H           -2.39482746272891        2.34389742698141       -3.20799064425528
H           -0.95805926568569       -0.29099641242764        0.74576309392199
H           -4.71754070109568       -1.89024405321097       -1.64529259961033
H           -4.25502236012337       -4.28613839499351       -1.89824665647771
H           -2.86413330896040       -5.46654949231586       -0.23424383429459
H           -1.94741440462569       -4.22307919374859        1.69325896745564
H           -2.42847596831465       -1.83311056619286        1.96013564937098
H           -5.20144768530579       -1.42130871801062        2.26899899188028
H           -5.62114764646096       -0.62898555704709        4.55488858960341
H           -4.65242629756557        1.50749268924795        5.32462542080747
H           -3.27488030116943        2.85193906354530        3.77861754940049
H           -2.86725645642691        2.06788935011145        1.48811889259469
H           -6.67964022692035       -0.47252701103421        0.44325097274834
H           -8.25149317966674        0.59482984137359       -1.13244922973869
H           -7.42403093876219        1.98921844301569       -2.97310153255475
H           -4.99938541363706        2.35387612650161       -3.27962281390063
H           -0.23222454150573       -1.63235997192107       -1.28355706573822
H            0.67260797357080       -3.89658842589255       -1.25257497275180
H            3.04533998768475       -4.28844569675814       -0.67988080218909
H            4.52657981554046       -2.39937549922763       -0.20249489174208
H            5.20617259696520        0.55310988997555        2.08471488370439
H            7.61452215126521        0.17480178732614        2.48955837975297

          :  Hamiltonian                  GFN2-xTB          :
         :: gradient norm              0.000035611474 Eh/a0 ::
         :: HOMO-LUMO gap              2.044338327745 eV    ::
         :: SCC energy              -118.486434799037 Eh    ::
         :: -> dispersion             -0.114563143073 Eh    ::
         :: repulsion energy           2.306824501316 Eh    ::

    * Orbital Energies and Occupations

         #    Occupation            Energy/Eh            Energy/eV
      -------------------------------------------------------------
         1        2.0000           -0.6697410             -18.2246
       ...           ...                  ...                  ...
        97        2.0000           -0.4191782             -11.4064
        98        2.0000           -0.4128447             -11.2341
        99        2.0000           -0.4123983             -11.2219
       100        2.0000           -0.4107011             -11.1757
       101        2.0000           -0.4077050             -11.0942
       102        2.0000           -0.4072041             -11.0806
       103        2.0000           -0.4055375             -11.0352
       104        2.0000           -0.4050042             -11.0207
       105        2.0000           -0.3991989             -10.8628
       106        2.0000           -0.3983625             -10.8400
       107        2.0000           -0.3923798             -10.6772
       108        2.0000           -0.3823821             -10.4051
       109        2.0000           -0.3636651              -9.8958 (HOMO)
       110                         -0.2885371              -7.8515 (LUMO)
       111                         -0.2699687              -7.3462
       112                         -0.2551841              -6.9439
       113                         -0.2434751              -6.6253
       114                         -0.2369482              -6.4477
       115                         -0.2335143              -6.3542
       116                         -0.2308205              -6.2809
       117                         -0.2264498              -6.1620
       118                         -0.2259158              -6.1475
       119                         -0.2228521              -6.0641
       120                         -0.2194515              -5.9716
       ...                                ...                  ...
       217                          1.1725136              31.9057
      -------------------------------------------------------------
                  HL-Gap            0.0751280 Eh            2.0443 eV

     #   Z          covCN         q      C6AA      α(0)
     1   7 N        0.911    -0.237    26.186     7.401
     2   6 C        1.912     0.111    28.355     8.600
     3   6 C        2.974     0.016    27.641     8.624
     4   6 C        2.925    -0.021    28.529     8.759
     5   6 C        2.923    -0.029    28.724     8.789
     6   6 C        2.977     0.025    27.437     8.592
     7   6 C        2.977    -0.010    28.256     8.719
     8   6 C        2.984     0.007    27.860     8.658
     9   6 C        2.917    -0.035    28.879     8.812
    10   6 C        2.914    -0.029    28.724     8.788
    11   6 C        2.914    -0.030    28.744     8.792
    12   6 C        2.918    -0.034    28.836     8.806
    13   6 C        2.983     0.007    27.863     8.659
    14   6 C        2.977    -0.003    28.106     8.696
    15   6 C        2.980     0.011    27.760     8.643
    16   6 C        2.925    -0.036    28.902     8.816
    17   6 C        2.913    -0.035    28.876     8.812
    18   6 C        3.035    -0.001    28.021     8.683
    19   6 C        3.062     0.004    27.877     8.658
    20   6 C        2.920    -0.037    28.922     8.819
    21   6 C        3.948     0.007    20.385     6.416
    22   6 C        2.984     0.017    27.620     8.621
    23   6 C        2.923    -0.036    28.895     8.815
    24   6 C        2.920    -0.030    28.747     8.792
    25   6 C        2.920    -0.032    28.803     8.801
    26   6 C        2.920    -0.030    28.741     8.791
    27   6 C        2.924    -0.033    28.833     8.806
    28   6 C        2.979     0.017    27.628     8.622
    29   6 C        2.924    -0.034    28.838     8.806
    30   6 C        2.920    -0.030    28.751     8.793
    31   6 C        2.920    -0.032    28.801     8.801
    32   6 C        2.920    -0.030    28.743     8.792
    33   6 C        2.924    -0.035    28.873     8.812
    34   6 C        3.058     0.004    27.874     8.658
    35   6 C        2.914    -0.033    28.826     8.804
    36   6 C        2.922    -0.032    28.795     8.800
    37   6 C        2.921    -0.032    28.807     8.802
    38   6 C        2.914    -0.034    28.845     8.807
    39   6 C        3.036     0.001    27.968     8.674
    40   6 C        2.983     0.007    27.856     8.658
    41   6 C        2.917    -0.033    28.824     8.804
    42   6 C        2.914    -0.029    28.730     8.789
    43   6 C        2.914    -0.029    28.715     8.787
    44   6 C        2.918    -0.036    28.885     8.813
    45   6 C        2.984     0.007    27.856     8.658
    46   6 C        2.923    -0.029    28.725     8.789
    47   6 C        2.925    -0.021    28.530     8.759
    48   1 H        0.926     0.041     2.430     2.438
    49   1 H        0.926     0.039     2.459     2.452
    50   1 H        0.926     0.029     2.607     2.525
    51   1 H        0.926     0.031     2.578     2.511
    52   1 H        0.926     0.031     2.577     2.510
    53   1 H        0.926     0.034     2.529     2.487
    54   1 H        0.926     0.032     2.565     2.504
    55   1 H        0.926     0.032     2.552     2.498
    56   1 H        0.926     0.032     2.564     2.504
    57   1 H        0.926     0.030     2.589     2.516
    58   1 H        0.926     0.030     2.586     2.515
    59   1 H        0.926     0.030     2.593     2.518
    60   1 H        0.926     0.030     2.590     2.517
    61   1 H        0.926     0.030     2.589     2.516
    62   1 H        0.926     0.030     2.583     2.513
    63   1 H        0.926     0.030     2.585     2.514
    64   1 H        0.926     0.030     2.586     2.515
    65   1 H        0.926     0.030     2.589     2.516
    66   1 H        0.926     0.029     2.606     2.525
    67   1 H        0.926     0.030     2.581     2.512
    68   1 H        0.926     0.031     2.574     2.509
    69   1 H        0.926     0.031     2.578     2.511
    70   1 H        0.926     0.031     2.570     2.507
    71   1 H        0.926     0.033     2.539     2.492
    72   1 H        0.926     0.030     2.581     2.512
    73   1 H        0.926     0.031     2.575     2.510
    74   1 H        0.926     0.029     2.604     2.524
    75   1 H        0.926     0.039     2.459     2.452
    76   1 H        0.926     0.041     2.430     2.438

molecular dipole:
                 x           y           z       tot (Debye)
 q only:       -1.581       0.181      -0.200
   full:       -2.017       0.239      -0.280       5.211

 projected vibrational frequencies (cm⁻¹)
eigval :       -0.00    -0.00    -0.00    -0.00     0.00     0.00
eigval :       11.71    12.28    15.24    33.49    36.49    39.30
eigval :       43.10    45.25    52.60    56.66    66.59    77.41
eigval :       80.88    89.19   112.65   120.12   133.37   133.59
eigval :      141.56   144.31   183.50   207.27   210.09   217.30
eigval :      220.66   240.50   253.42   260.85   268.63   274.87
eigval :      292.88   321.22   336.06   340.83   363.50   371.72
eigval :      377.92   386.14   395.98   396.62   413.10   428.29
eigval :      443.06   450.14   450.43   458.39   459.13   463.32
eigval :      489.71   501.71   511.53   519.26   534.23   536.74
eigval :      556.63   582.75   585.67   587.82   588.93   591.22
eigval :      599.41   603.18   612.47   626.86   640.56   642.09
eigval :      651.01   670.21   671.30   687.08   691.69   693.65
eigval :      697.17   710.82   725.10   740.74   753.93   759.82
eigval :      766.02   775.43   776.03   776.43   790.29   815.47
eigval :      831.28   870.64   874.03   876.25   877.69   879.76
eigval :      880.45   886.03   891.37   898.89   903.93   905.45
eigval :      907.97   913.42   916.91   917.69   921.95   922.68
eigval :      923.22   925.22   927.72   929.46   930.03   930.98
eigval :      931.35   931.79   932.68   934.33   935.56   985.08
eigval :     1000.94  1002.37  1013.37  1021.92  1078.52  1083.03
eigval :     1084.96  1086.46  1088.80  1109.70  1125.44  1127.55
eigval :     1132.08  1134.86  1135.76  1153.73  1169.77  1176.40
eigval :     1182.01  1182.45  1182.52  1185.04  1187.12  1190.74
eigval :     1202.66  1206.20  1207.70  1215.91  1228.41  1230.12
eigval :     1239.55  1244.20  1248.98  1257.35  1260.58  1262.83
eigval :     1267.08  1285.38  1286.33  1288.99  1308.53  1317.00
eigval :     1321.08  1322.52  1327.99  1349.72  1359.87  1374.80
eigval :     1384.75  1393.28  1416.20  1419.22  1428.78  1430.90
eigval :     1435.83  1437.45  1444.12  1453.39  1469.83  1473.67
eigval :     1477.22  1481.95  1492.47  1526.66  1527.81  1540.63
eigval :     1548.00  1574.13  1586.80  1588.67  1590.35  1592.66
eigval :     1597.52  1600.06  1603.62  1605.61  1608.16  1622.24
eigval :     2374.15  3070.92  3071.89  3073.42  3074.25  3074.30
eigval :     3075.52  3075.75  3075.86  3080.18  3080.69  3081.02
eigval :     3081.47  3081.54  3082.04  3082.93  3085.24  3086.58
eigval :     3087.16  3088.36  3088.97  3090.77  3091.39  3092.64
eigval :     3092.90  3093.04  3093.30  3094.34  3096.11  3097.99

   temp. (K)  partition function   enthalpy   heat capacity  entropy
                                   cal/mol     cal/K/mol   cal/K/mol   J/K/mol
 298.15  VIB  0.586E+17            21504.194    136.366    134.050
         ROT  0.678E+08              888.752      2.981     38.815
         INT  0.397E+25            22392.947    139.347    172.865
         TR   0.141E+29             1481.254      4.968     45.017
         TOT                       23874.2005   144.3151   217.8825   911.6202

       T/K    H(0)-H(T)+PV         H(T)/Eh          T*S/Eh         G(T)/Eh
   ------------------------------------------------------------------------
    298.15    0.380460E-01    0.621950E+00    0.103523E+00    0.518427E+00
   ------------------------------------------------------------------------

         :::::::::::::::::::::::::::::::::::::::::::::::::::::
         ::                  THERMODYNAMIC                  ::
         :::::::::::::::::::::::::::::::::::::::::::::::::::::
         :: total free energy        -115.661182859081 Eh   ::
         ::.................................................::
         :: total energy             -116.179610297710 Eh   ::
         :: zero point energy           0.583904466520 Eh   ::
         :: G(RRHO) w/o ZPVE           -0.065477027891 Eh   ::
         :: G(RRHO) contrib.            0.518427438629 Eh   ::
         :::::::::::::::::::::::::::::::::::::::::::::::::::::

           -------------------------------------------------
          | TOTAL ENERGY             -116.179610297710 Eh   |
          | TOTAL ENTHALPY           -115.557659870914 Eh   |
          | TOTAL FREE ENERGY        -115.661182859081 Eh   |
          | GRADIENT NORM               0.000035648197 Eh/α |
          | HOMO-LUMO GAP               2.044338284331 eV   |
           -------------------------------------------------

 * finished run on 2025/09/12 at 05:36:51.052
