   * xtb version 6.7.1 (edcfbbe) compiled by 'albert@albert-system' on 2024-07-22

   ID    Z sym.   atoms
    1    7 N      1
    2    6 C      2-47
    3    1 H      48-76

          program call               : xtb data2507/gas/DPF-AnCN/DPF-AnCN_gas_T1_crest.xyz --gfn 2 --spinpol --tblite --uhf 2 --ohess vtight --parallel 40 --molden --ceasefiles --namespace data2507/gas/DPF-AnCN/DPF-AnCN_gas_T1_finalOpt
 * total energy  :  -116.1180143 Eh     change       -0.9347119E-08 Eh
 * total energy  :  -116.1180590 Eh     change       -0.4471753E-04 Eh
 * total energy  :  -116.1180734 Eh     change       -0.1443082E-04 Eh
 * total energy  :  -116.1180785 Eh     change       -0.5071678E-05 Eh
 * total energy  :  -116.1180836 Eh     change       -0.5115158E-05 Eh
 * total energy  :  -116.1180910 Eh     change       -0.7363763E-05 Eh
 * total energy  :  -116.1180981 Eh     change       -0.7096677E-05 Eh
 * total energy  :  -116.1181066 Eh     change       -0.8530278E-05 Eh
 * total energy  :  -116.1181098 Eh     change       -0.3213828E-05 Eh
 * total energy  :  -116.1181112 Eh     change       -0.1396414E-05 Eh
 * total energy  :  -116.1181234 Eh     change       -0.2200754E-06 Eh
 * total energy  :  -116.1181235 Eh     change       -0.1393388E-06 Eh
 * total energy  :  -116.1181237 Eh     change       -0.1147927E-06 Eh
 * total energy  :  -116.1181238 Eh     change       -0.1175694E-06 Eh
 * total energy  :  -116.1181239 Eh     change       -0.1066116E-06 Eh
 * total energy  :  -116.1181240 Eh     change       -0.1141525E-06 Eh
 * total energy  :  -116.1181241 Eh     change       -0.1017240E-06 Eh
 * total energy  :  -116.1181242 Eh     change       -0.1098510E-06 Eh
 * total energy  :  -116.1181243 Eh     change       -0.9256152E-07 Eh
   *** GEOMETRY OPTIMIZATION CONVERGED AFTER 38 ITERATIONS ***

 final structure:
================
76
 xtb: 6.7.1 (edcfbbe)
N           10.49098016363503       -1.08085377308960        0.73094700901145
C            9.37400151710262       -0.86063757069078        0.58348099775050
C            8.00262951865613       -0.59035195346230        0.40261758148901
C            7.33502267962107       -1.06509529236562       -0.73109141887707
C            5.99442598444203       -0.80530088381139       -0.89922464144691
C            5.27949762042111       -0.05187214924771        0.04273577537092
C            3.86368237258127        0.22951498658995       -0.14751685101936
C            3.39329220136058        1.58125018021638       -0.11194755199718
C            4.26707569099959        2.66309390011964        0.02161240666922
C            3.79569265871660        3.96681071130965        0.15342300037105
C            2.43844242177436        4.20550315888903        0.16613497161402
C            1.54856224334937        3.15292608462512       -0.03134002912316
C            1.99807091812460        1.84663792271027       -0.23897661657789
C            1.09433013535869        0.78007329995274       -0.54340072502698
C           -0.31922914214472        1.04968211942354       -0.75677588285725
C           -0.74234896350282        2.01446820479523       -1.68255890609777
C           -2.08149003120769        2.22799532245114       -1.94169177605631
C           -3.02806251882843        1.46808945594404       -1.26803933733381
C           -2.61582141289704        0.51352532008448       -0.32396494361522
C           -1.28557178552894        0.30452317523197       -0.06347304321196
C           -3.80677398255486       -0.24249693736349        0.23168883261706
C           -3.59653268096156       -1.69156120703890       -0.16671964831427
C           -4.07809843381751       -2.17790764832971       -1.37477693330328
C           -3.79494489155047       -3.47294586710015       -1.77279828349950
C           -3.01748174468172       -4.29411611657974       -0.97519959902897
C           -2.52774604078811       -3.81369017024126        0.22747798003263
C           -2.81397932968801       -2.52178150773138        0.62846442717278
C           -4.01881436480811       -0.06586916574626        1.71987884954390
C           -4.80611770806499       -0.97050993235002        2.42301316208956
C           -5.05666757205520       -0.78405483716164        3.77008448454870
C           -4.52811571215189        0.31138764912145        4.43157728337181
C           -3.75058601463502        1.22030936987914        3.73575918603630
C           -3.50069247160055        1.03581369234666        2.38723510685277
C           -4.95289820085600        0.43363653613716       -0.49543741144589
C           -6.30475036335483        0.19224219283551       -0.38441631852974
C           -7.18257753323933        0.95359272583347       -1.14522732074337
C           -6.71246762562874        1.94084351358574       -1.99861430521124
C           -5.35556645268776        2.19265783745855       -2.11170964570880
C           -4.47418447390276        1.43589810159956       -1.35490659521914
C            1.57535779072244       -0.56601923810227       -0.64130940309086
C            0.74559239997914       -1.62390036722102       -1.02302838338287
C            1.19269059367573       -2.94246693984823       -1.00856463785551
C            2.48295306022968       -3.22478462589076       -0.61563543238594
C            3.35431186450418       -2.18265747610415       -0.30894778012035
C            2.94712437248975       -0.84756860900302       -0.37115062680657
C            5.96368522263412        0.42314867079924        1.17061577048987
C            7.30021977514889        0.15389841724994        1.35599363508614
H            7.88133331706861       -1.63124426179230       -1.47145582324952
H            5.48649412110039       -1.15428726457044       -1.78653367476168
H            5.33260532140972        2.49206711051206        0.01774370861244
H            4.49846366703757        4.77918817574827        0.26086341561762
H            2.05780263865925        5.20532487614174        0.31164394884098
H            0.48830377767615        3.35319115182253       -0.01835572916366
H            0.00409051328362        2.56305275740481       -2.23871232346994
H           -2.38433722785581        2.96052357282186       -2.67511897165238
H           -0.97119415847993       -0.40943463691042        0.68300757635918
H           -4.67712099130132       -1.54129572170394       -2.00965439491226
H           -4.18008501755210       -3.83868992358911       -2.71348836930214
H           -2.79371146032575       -5.30305235985279       -1.28931298152342
H           -1.91703286504125       -4.44545052873296        0.85607511901890
H           -2.43216201118566       -2.15762129176943        1.57137039156860
H           -5.21571440559295       -1.83190510862255        1.91494021412763
H           -5.66759080542981       -1.49665029448316        4.30499940760880
H           -4.72311694027683        0.45624518197950        5.48386818042320
H           -3.33703263847349        2.07949467206321        4.24348621687937
H           -2.89727602098365        1.75331155629330        1.85019002302997
H           -6.67840638099454       -0.57360180199982        0.27874784415712
H           -8.24502820804964        0.77461358939626       -1.07042086832434
H           -7.41446407616170        2.52031276535938       -2.58029560873173
H           -4.99133078249835        2.96316435557886       -2.77486008117144
H           -0.26617866495606       -1.42578541417572       -1.34150682268293
H            0.51421054575549       -3.73329266030377       -1.29120436652973
H            2.83157053034398       -4.24494535857634       -0.55890229637984
H            4.36402975386784       -2.41815500079072       -0.00918447837896
H            5.41855138653738        0.97810307451064        1.92023592124895
H            7.81458822693300        0.50970280953175        2.23688847280985

 projected vibrational frequencies (cm⁻¹)
eigval :       -0.00    -0.00    -0.00    -0.00     0.00     0.00
eigval :        9.46    15.34    17.13    31.18    38.03    43.38
eigval :       45.64    51.61    55.84    61.64    68.74    79.81
eigval :       83.13    91.38   123.11   126.70   129.66   132.68
eigval :      142.57   153.95   180.27   210.60   211.08   222.21
eigval :      232.53   241.31   254.43   264.03   275.43   277.93
eigval :      293.87   320.80   333.79   337.92   366.15   368.05
eigval :      372.06   378.03   388.01   394.80   399.31   410.99
eigval :      426.62   441.50   445.92   457.92   460.35   472.45
eigval :      486.72   500.97   510.00   518.47   532.80   536.83
eigval :      549.38   571.55   583.58   583.88   588.37   588.85
eigval :      593.09   596.97   611.25   620.67   629.30   638.00
eigval :      645.84   670.09   671.12   674.69   687.39   688.89
eigval :      692.38   709.55   718.96   723.33   750.22   753.54
eigval :      758.09   762.91   764.28   774.55   784.80   816.10
eigval :      830.74   848.89   854.15   869.59   876.31   879.67
eigval :      880.43   883.68   887.27   892.88   894.43   903.34
eigval :      904.12   905.40   907.12   907.78   913.40   917.55
eigval :      921.57   922.90   925.99   926.42   928.66   930.77
eigval :      931.56   934.46   934.96   936.00   946.13   984.55
eigval :      997.36  1002.30  1012.29  1017.59  1078.06  1086.53
eigval :     1088.77  1102.27  1106.14  1108.26  1115.90  1123.64
eigval :     1125.71  1128.03  1135.12  1151.66  1165.14  1175.60
eigval :     1180.88  1181.45  1181.99  1182.22  1183.22  1186.99
eigval :     1190.81  1202.33  1204.86  1205.86  1228.76  1230.65
eigval :     1236.19  1239.87  1245.37  1253.50  1256.90  1262.51
eigval :     1268.65  1284.00  1286.19  1288.61  1298.79  1301.25
eigval :     1310.37  1317.27  1322.43  1323.95  1335.75  1354.57
eigval :     1362.56  1369.56  1379.34  1402.32  1408.62  1420.33
eigval :     1424.49  1428.97  1433.44  1437.10  1444.80  1464.58
eigval :     1468.50  1474.94  1476.97  1477.31  1490.51  1516.49
eigval :     1521.71  1531.04  1552.12  1554.81  1568.36  1578.57
eigval :     1585.96  1588.97  1590.03  1598.93  1600.70  1603.03
eigval :     2356.76  3071.35  3072.17  3073.78  3074.72  3075.13
eigval :     3076.67  3078.71  3079.93  3080.14  3080.51  3080.79
eigval :     3081.37  3082.21  3085.71  3086.94  3087.43  3087.71
eigval :     3088.01  3089.52  3090.17  3090.74  3090.91  3092.99
eigval :     3093.75  3094.92  3096.22  3096.78  3100.54  3101.00

   temp. (K)  partition function   enthalpy   heat capacity  entropy
                                   cal/mol     cal/K/mol   cal/K/mol   J/K/mol
 298.15  VIB  0.305E+17            21533.788    137.679    133.774
         ROT  0.679E+08              888.752      2.981     38.817
         INT  0.207E+25            22422.540    140.660    172.591
         TR   0.141E+29             1481.254      4.968     45.017
         TOT                       23903.7941   145.6281   217.6085   910.4739

       T/K    H(0)-H(T)+PV         H(T)/Eh          T*S/Eh         G(T)/Eh
   ------------------------------------------------------------------------
    298.15    0.380931E-01    0.619633E+00    0.103393E+00    0.516241E+00
   ------------------------------------------------------------------------

         :::::::::::::::::::::::::::::::::::::::::::::::::::::
         ::                  THERMODYNAMIC                  ::
         :::::::::::::::::::::::::::::::::::::::::::::::::::::
         :: total free energy        -115.601883808554 Eh   ::
         ::.................................................::
         :: total energy             -116.118124312920 Eh   ::
         :: zero point energy           0.581540202318 Eh   ::
         :: G(RRHO) w/o ZPVE           -0.065299697952 Eh   ::
         :: G(RRHO) contrib.            0.516240504366 Eh   ::
         :::::::::::::::::::::::::::::::::::::::::::::::::::::

           -------------------------------------------------
          | TOTAL ENERGY             -116.118124312920 Eh   |
          | TOTAL ENTHALPY           -115.498490989957 Eh   |
          | TOTAL FREE ENERGY        -115.601883808554 Eh   |
          | GRADIENT NORM               0.000021983854 Eh/α |
           -------------------------------------------------

 * finished run on 2025/09/12 at 05:41:04.588
