   * xtb version 6.7.1 (edcfbbe) compiled by 'albert@albert-system' on 2024-07-22

   ID    Z sym.   atoms
    1    7 N      1
    2    6 C      2-47
    3    1 H      48-76

          program call               : xtb data2507/gas/DPF-AnCN/DPF-AnCN.xyz --gfn 2 --ohess vtight --parallel 40 --molden --ceasefiles --namespace data2507/gas/DPF-AnCN/DPF-AnCN_gas_S0_preOpt
          :  Hamiltonian                  GFN2-xTB          :
 * total energy  :  -116.1556663 Eh     change       -0.4869676E-08 Eh
 * total energy  :  -116.1719865 Eh     change       -0.1632014E-01 Eh
 * total energy  :  -116.1770842 Eh     change       -0.5097723E-02 Eh
 * total energy  :  -116.1779499 Eh     change       -0.8657147E-03 Eh
 * total energy  :  -116.1781805 Eh     change       -0.2306279E-03 Eh
 * total energy  :  -116.1782309 Eh     change       -0.5041690E-04 Eh
 * total energy  :  -116.1782563 Eh     change       -0.2541246E-04 Eh
 * total energy  :  -116.1782674 Eh     change       -0.1101048E-04 Eh
 * total energy  :  -116.1782769 Eh     change       -0.9560566E-05 Eh
 * total energy  :  -116.1782828 Eh     change       -0.5849693E-05 Eh
 * total energy  :  -116.1794862 Eh     change       -0.7332001E-06 Eh
 * total energy  :  -116.1794870 Eh     change       -0.8024959E-06 Eh
 * total energy  :  -116.1794878 Eh     change       -0.8107268E-06 Eh
 * total energy  :  -116.1794885 Eh     change       -0.7023263E-06 Eh
 * total energy  :  -116.1794891 Eh     change       -0.5645470E-06 Eh
 * total energy  :  -116.1794895 Eh     change       -0.4378813E-06 Eh
 * total energy  :  -116.1794899 Eh     change       -0.3850375E-06 Eh
 * total energy  :  -116.1794903 Eh     change       -0.4001054E-06 Eh
 * total energy  :  -116.1794903 Eh     change       -0.3266962E-08 Eh
   *** GEOMETRY OPTIMIZATION CONVERGED AFTER 94 ITERATIONS ***

 final structure:
================
76
 xtb: 6.7.1 (edcfbbe)
N           10.79183544094019       -0.29858351444992        1.32574661192804
C            9.67651885376746       -0.23841070244443        1.06624935233960
C            8.30235912067899       -0.16362483027194        0.74576840311127
C            7.90056110180474       -0.08162507579770       -0.58840188118572
C            6.55762622831779       -0.00526882587305       -0.89505355061173
C            5.59606183021964       -0.01338170478475        0.11392657630733
C            4.16053777902848        0.07059518141419       -0.22441770733315
C            3.63810430753093        1.26707265957749       -0.73570568979183
C            4.44327682729797        2.42484162335017       -0.90164101922442
C            3.91914591690287        3.58773766127893       -1.37538712257715
C            2.54972434129628        3.67114910192009       -1.69548229573561
C            1.74163260602017        2.58741279657988       -1.54040982004710
C            2.25083956432058        1.34809454754601       -1.07075442825011
C            1.42390290144063        0.22815656674130       -0.89794201531672
C           -0.00305813248212        0.29850630078236       -1.26672475857396
C           -0.37967170091624        0.48006249935544       -2.59661873342031
C           -1.71298938300640        0.51630087346771       -2.96555907953203
C           -2.68111549088093        0.36112997316222       -1.98665189625898
C           -2.30719607635992        0.18252050709947       -0.64729024014040
C           -0.98119498154326        0.15412139227470       -0.28223267024277
C           -3.52622758990507       -0.02966580678483        0.22843526250626
C           -3.39014784352211       -1.42289973930211        0.81377529855893
C           -3.91227713656196       -2.52881310021883        0.15630097664331
C           -3.70809125324372       -3.80335891088016        0.65573005475004
C           -2.97010293412234       -3.99026740353073        1.81122189489824
C           -2.43828484183144       -2.89300585257324        2.46700640935322
C           -2.64527997354022       -1.61884943167645        1.97151089273075
C           -3.72107729925996        1.03609171666229        1.28583858120290
C           -4.54356233485853        0.79055041870009        2.37942566515957
C           -4.77720297250526        1.77865080216565        3.31819728000841
C           -4.19616888344045        3.02713014473837        3.17471960356875
C           -3.38337991269337        3.28119200675317        2.08401943445998
C           -3.15061252851537        2.29386161045619        1.14281098932008
C           -4.64685908760319        0.09692287752768       -0.78554265646899
C           -6.00765868979679        0.02909171338072       -0.57813073152489
C           -6.85592902261052        0.18852139023597       -1.66579378651039
C           -6.34853404504405        0.41483880270492       -2.93618710726971
C           -4.98194645745282        0.48954720665509       -3.15044601565538
C           -4.13129526577300        0.33155419897603       -2.06878858119837
C            1.94567829610905       -0.96613917230951       -0.37582422467299
C            1.14260037900205       -2.12476524636795       -0.20319435022229
C            1.66254147803204       -3.27734914351380        0.29975659545088
C            3.02729623315829       -3.35266557866318        0.64038964019541
C            3.83729484087787       -2.27287184200466        0.46846981583438
C            3.33161473210688       -1.04409361705877       -0.03219346694933
C            6.00626908946520       -0.09808732442710        1.44323288806523
C            7.34650524594315       -0.17078411926575        1.76280658987512
H            8.64506303216393       -0.07822188724194       -1.37102915531017
H            6.24063246830878        0.05623428507654       -1.92599760487228
H            5.48817725906744        2.37197161099869       -0.63359323169886
H            4.54565920968918        4.45916300227315       -1.49619819762609
H            2.14603629471794        4.60668954106850       -2.05364035996389
H            0.68804070377507        2.65952962217094       -1.76490719436252
H            0.39036115640594        0.57791356250490       -3.34860004484173
H           -1.99005126996201        0.65253744882276       -4.00028337107755
H           -0.68763797859877        0.02464751687456        0.74906358388943
H           -4.48241471543501       -2.39461903449543       -0.75144719670820
H           -4.12527505425800       -4.65356653447105        0.13591978128231
H           -2.80924268015793       -4.98551062697479        2.19869434578125
H           -1.85761162616413       -3.02897212211644        3.36782198204361
H           -2.23254574719939       -0.76784449268255        2.49403889325427
H           -4.99454995736847       -0.18382785168855        2.50231242632974
H           -5.41615499878964        1.57292075182113        4.16473808281623
H           -4.37785610630836        3.79829152354185        3.90867120877174
H           -2.92856696264330        4.25351803957573        1.96235940254606
H           -2.51942720544952        2.50319213789833        0.29132836182497
H           -6.40999506642205       -0.14580453854207        0.40853414442248
H           -7.92478470576132        0.13596789028308       -1.51967190753651
H           -7.02776354589561        0.53590307999863       -3.76744382415816
H           -4.58860373352288        0.66871082827520       -4.14009226436868
H            0.10088522978819       -2.08289151736917       -0.48352928427012
H            1.03348575511275       -4.14556795446184        0.42950201790997
H            3.42752504038083       -4.27864648834638        1.02634259872599
H            4.88819450329906       -2.34099536785409        0.70819390975949
H            5.26226975492112       -0.09939651657581        2.22652081629933
H            7.66408366951124       -0.23246853962976        2.79342809360833

          :  Hamiltonian                  GFN2-xTB          :
         :: gradient norm              0.000048274177 Eh/a0 ::
         :: HOMO-LUMO gap              2.060043247561 eV    ::
         :: SCC energy              -118.486483951965 Eh    ::
         :: -> dispersion             -0.114144517805 Eh    ::
         :: repulsion energy           2.306993649097 Eh    ::

    * Orbital Energies and Occupations

         #    Occupation            Energy/Eh            Energy/eV
      -------------------------------------------------------------
         1        2.0000           -0.6697717             -18.2254
       ...           ...                  ...                  ...
        97        2.0000           -0.4191525             -11.4057
        98        2.0000           -0.4128173             -11.2333
        99        2.0000           -0.4112058             -11.1895
       100        2.0000           -0.4109050             -11.1813
       101        2.0000           -0.4087392             -11.1224
       102        2.0000           -0.4073142             -11.0836
       103        2.0000           -0.4055311             -11.0351
       104        2.0000           -0.4051928             -11.0259
       105        2.0000           -0.3992280             -10.8635
       106        2.0000           -0.3983700             -10.8402
       107        2.0000           -0.3923614             -10.6767
       108        2.0000           -0.3823865             -10.4053
       109        2.0000           -0.3638414              -9.9006 (HOMO)
       110                         -0.2881362              -7.8406 (LUMO)
       111                         -0.2702409              -7.3536
       112                         -0.2552684              -6.9462
       113                         -0.2434992              -6.6260
       114                         -0.2369746              -6.4484
       115                         -0.2332933              -6.3482
       116                         -0.2308582              -6.2820
       117                         -0.2264350              -6.1616
       118                         -0.2260132              -6.1501
       119                         -0.2227815              -6.0622
       120                         -0.2195284              -5.9737
       ...                                ...                  ...
       217                          1.1725634              31.9071
      -------------------------------------------------------------
                  HL-Gap            0.0757052 Eh            2.0600 eV

     #   Z          covCN         q      C6AA      α(0)
     1   7 N        0.911    -0.237    26.187     7.401
     2   6 C        1.912     0.111    28.356     8.600
     3   6 C        2.974     0.016    27.642     8.624
     4   6 C        2.925    -0.021    28.529     8.759
     5   6 C        2.923    -0.029    28.726     8.789
     6   6 C        2.977     0.025    27.434     8.592
     7   6 C        2.977    -0.010    28.252     8.719
     8   6 C        2.984     0.007    27.861     8.658
     9   6 C        2.917    -0.035    28.877     8.812
    10   6 C        2.914    -0.029    28.722     8.788
    11   6 C        2.914    -0.030    28.741     8.791
    12   6 C        2.918    -0.033    28.834     8.805
    13   6 C        2.983     0.007    27.863     8.659
    14   6 C        2.977    -0.003    28.102     8.696
    15   6 C        2.980     0.011    27.756     8.642
    16   6 C        2.925    -0.036    28.902     8.816
    17   6 C        2.913    -0.035    28.874     8.811
    18   6 C        3.035    -0.001    28.022     8.683
    19   6 C        3.061     0.004    27.876     8.658
    20   6 C        2.919    -0.037    28.923     8.819
    21   6 C        3.948     0.007    20.385     6.416
    22   6 C        2.983     0.017    27.621     8.621
    23   6 C        2.923    -0.036    28.894     8.815
    24   6 C        2.920    -0.030    28.747     8.792
    25   6 C        2.920    -0.032    28.803     8.801
    26   6 C        2.920    -0.030    28.744     8.792
    27   6 C        2.924    -0.033    28.834     8.806
    28   6 C        2.979     0.017    27.627     8.622
    29   6 C        2.924    -0.034    28.838     8.806
    30   6 C        2.920    -0.030    28.751     8.793
    31   6 C        2.920    -0.032    28.801     8.801
    32   6 C        2.920    -0.030    28.743     8.792
    33   6 C        2.924    -0.035    28.874     8.812
    34   6 C        3.058     0.004    27.874     8.658
    35   6 C        2.914    -0.033    28.826     8.804
    36   6 C        2.922    -0.032    28.796     8.800
    37   6 C        2.921    -0.032    28.808     8.802
    38   6 C        2.914    -0.034    28.846     8.807
    39   6 C        3.036     0.001    27.970     8.675
    40   6 C        2.983     0.007    27.855     8.657
    41   6 C        2.917    -0.033    28.823     8.804
    42   6 C        2.914    -0.029    28.729     8.789
    43   6 C        2.914    -0.029    28.714     8.787
    44   6 C        2.917    -0.036    28.885     8.813
    45   6 C        2.983     0.007    27.855     8.657
    46   6 C        2.923    -0.029    28.728     8.790
    47   6 C        2.925    -0.021    28.529     8.759
    48   1 H        0.926     0.041     2.430     2.438
    49   1 H        0.926     0.039     2.461     2.453
    50   1 H        0.926     0.028     2.608     2.526
    51   1 H        0.926     0.031     2.577     2.510
    52   1 H        0.926     0.031     2.576     2.510
    53   1 H        0.926     0.034     2.533     2.489
    54   1 H        0.926     0.031     2.570     2.507
    55   1 H        0.926     0.032     2.552     2.498
    56   1 H        0.926     0.031     2.568     2.506
    57   1 H        0.926     0.030     2.588     2.515
    58   1 H        0.926     0.030     2.586     2.515
    59   1 H        0.926     0.030     2.591     2.517
    60   1 H        0.926     0.030     2.590     2.517
    61   1 H        0.926     0.030     2.589     2.516
    62   1 H        0.926     0.030     2.583     2.513
    63   1 H        0.926     0.030     2.585     2.514
    64   1 H        0.926     0.030     2.586     2.515
    65   1 H        0.926     0.030     2.589     2.516
    66   1 H        0.926     0.029     2.608     2.525
    67   1 H        0.926     0.030     2.581     2.512
    68   1 H        0.926     0.031     2.575     2.509
    69   1 H        0.926     0.031     2.578     2.511
    70   1 H        0.926     0.031     2.571     2.507
    71   1 H        0.926     0.033     2.538     2.491
    72   1 H        0.926     0.031     2.579     2.511
    73   1 H        0.926     0.031     2.575     2.509
    74   1 H        0.926     0.029     2.602     2.523
    75   1 H        0.926     0.039     2.461     2.453
    76   1 H        0.926     0.041     2.431     2.438

molecular dipole:
                 x           y           z       tot (Debye)
 q only:       -1.576       0.057      -0.284
   full:       -2.011       0.072      -0.387       5.208

 projected vibrational frequencies (cm⁻¹)
eigval :       -0.00    -0.00     0.00     0.00     0.00     0.00
eigval :       11.21    12.24    15.11    33.20    35.88    39.33
eigval :       43.04    45.82    52.09    55.75    68.22    76.38
eigval :       80.72    87.59   108.06   119.41   132.42   133.61
eigval :      140.11   144.22   186.85   207.43   211.79   214.33
eigval :      217.61   240.95   252.64   260.84   266.82   275.13
eigval :      293.24   321.25   334.93   340.75   363.31   371.70
eigval :      377.91   388.22   392.35   395.40   413.35   427.24
eigval :      444.19   448.10   450.98   458.91   459.01   464.40
eigval :      489.15   501.41   511.43   519.01   534.14   537.06
eigval :      556.03   582.75   585.75   587.62   588.95   591.06
eigval :      599.42   604.22   612.29   626.28   635.69   646.02
eigval :      651.34   670.15   671.57   686.39   691.52   693.84
eigval :      697.34   710.73   725.12   740.96   753.83   759.86
eigval :      765.94   775.09   775.98   776.30   790.25   815.27
eigval :      830.63   870.62   874.26   876.20   877.66   879.82
eigval :      880.38   886.02   890.20   898.98   903.87   905.41
eigval :      907.86   913.28   916.89   917.67   921.37   921.98
eigval :      922.69   925.33   927.73   929.01   929.61   930.87
eigval :      931.12   931.71   932.20   934.24   935.41   984.94
eigval :     1000.94  1002.40  1013.09  1021.84  1078.59  1083.19
eigval :     1084.61  1086.35  1088.85  1109.94  1125.59  1127.58
eigval :     1131.94  1134.95  1135.41  1153.80  1169.67  1176.52
eigval :     1182.14  1182.43  1182.55  1185.02  1187.15  1190.81
eigval :     1202.84  1206.31  1207.76  1215.62  1228.87  1230.34
eigval :     1239.56  1243.70  1248.47  1257.16  1260.69  1262.46
eigval :     1267.14  1285.44  1286.47  1289.02  1308.39  1316.98
eigval :     1321.06  1322.51  1327.91  1349.98  1359.76  1374.93
eigval :     1384.63  1392.98  1416.32  1419.20  1428.99  1430.86
eigval :     1435.89  1437.33  1444.37  1453.64  1469.93  1474.21
eigval :     1477.18  1482.42  1492.72  1527.01  1528.06  1541.00
eigval :     1548.17  1574.36  1586.81  1588.81  1590.34  1592.68
eigval :     1597.60  1600.07  1603.66  1605.55  1608.35  1622.48
eigval :     2374.27  3070.95  3071.87  3073.57  3074.26  3074.29
eigval :     3075.54  3075.79  3075.89  3080.27  3080.76  3081.05
eigval :     3081.46  3081.55  3082.02  3082.86  3085.40  3086.60
eigval :     3087.16  3088.02  3089.06  3090.77  3091.34  3092.71
eigval :     3092.87  3093.09  3093.23  3094.35  3096.05  3097.43

   temp. (K)  partition function   enthalpy   heat capacity  entropy
                                   cal/mol     cal/K/mol   cal/K/mol   J/K/mol
 298.15  VIB  0.682E+17            21524.074    136.366    134.299
         ROT  0.681E+08              888.752      2.981     38.823
         INT  0.464E+25            22412.826    139.347    173.122
         TR   0.141E+29             1481.254      4.968     45.017
         TOT                       23894.0800   144.3152   218.1391   912.6941

       T/K    H(0)-H(T)+PV         H(T)/Eh          T*S/Eh         G(T)/Eh
   ------------------------------------------------------------------------
    298.15    0.380776E-01    0.621928E+00    0.103645E+00    0.518283E+00
   ------------------------------------------------------------------------

         :::::::::::::::::::::::::::::::::::::::::::::::::::::
         ::                  THERMODYNAMIC                  ::
         :::::::::::::::::::::::::::::::::::::::::::::::::::::
         :: total free energy        -115.661207393846 Eh   ::
         ::.................................................::
         :: total energy             -116.179490302865 Eh   ::
         :: zero point energy           0.583850203188 Eh   ::
         :: G(RRHO) w/o ZPVE           -0.065567294169 Eh   ::
         :: G(RRHO) contrib.            0.518282909019 Eh   ::
         :::::::::::::::::::::::::::::::::::::::::::::::::::::

           -------------------------------------------------
          | TOTAL ENERGY             -116.179490302865 Eh   |
          | TOTAL ENTHALPY           -115.557562459418 Eh   |
          | TOTAL FREE ENERGY        -115.661207393846 Eh   |
          | GRADIENT NORM               0.000048267430 Eh/α |
          | HOMO-LUMO GAP               2.060043237984 eV   |
           -------------------------------------------------

 * finished run on 2025/09/12 at 05:32:28.910
