   * xtb version 6.7.1 (edcfbbe) compiled by 'albert@albert-system' on 2024-07-22

   ID    Z sym.   atoms
    1    7 N      1
    2    6 C      2-47
    3    1 H      48-76

          program call               : xtb data2507/gas/DPF-AnCN/DPF-AnCN_gas_S0_finalOpt.xtbopt.xyz --gfn 2 --spinpol --tblite --uhf 2 --ohess vtight --parallel 40 --molden --ceasefiles --namespace data2507/gas/DPF-AnCN/DPF-AnCN_gas_T1_preOpt
 * total energy  :  -116.1088992 Eh     change       -0.2026056E-07 Eh
 * total energy  :  -116.1149943 Eh     change       -0.6095178E-02 Eh
 * total energy  :  -116.1164579 Eh     change       -0.1463579E-02 Eh
 * total energy  :  -116.1166054 Eh     change       -0.1474986E-03 Eh
 * total energy  :  -116.1167814 Eh     change       -0.1759557E-03 Eh
 * total energy  :  -116.1168885 Eh     change       -0.1071838E-03 Eh
 * total energy  :  -116.1170268 Eh     change       -0.1382430E-03 Eh
 * total energy  :  -116.1171851 Eh     change       -0.1583319E-03 Eh
 * total energy  :  -116.1173227 Eh     change       -0.1376056E-03 Eh
 * total energy  :  -116.1174390 Eh     change       -0.1162859E-03 Eh
 * total energy  :  -116.1181200 Eh     change       -0.2602051E-05 Eh
 * total energy  :  -116.1181221 Eh     change       -0.2020244E-05 Eh
 * total energy  :  -116.1181236 Eh     change       -0.1557154E-05 Eh
 * total energy  :  -116.1181244 Eh     change       -0.7815129E-06 Eh
 * total energy  :  -116.1181246 Eh     change       -0.2298009E-06 Eh
 * total energy  :  -116.1181248 Eh     change       -0.1293647E-06 Eh
 * total energy  :  -116.1181248 Eh     change        0.2286953E-08 Eh
 * total energy  :  -116.1181252 Eh     change       -0.4193571E-06 Eh
 * total energy  :  -116.1181252 Eh     change       -0.5174537E-07 Eh
   *** GEOMETRY OPTIMIZATION CONVERGED AFTER 48 ITERATIONS ***

 final structure:
================
76
 xtb: 6.7.1 (edcfbbe)
N           10.49009123916849       -0.94930867654637        0.85657652863999
C            9.37278941354455       -0.75241342315739        0.68129473341969
C            8.00103050564579       -0.51061028803178        0.46617252932837
C            7.33709420640200       -1.12399971433020       -0.60122187662383
C            5.99604650818189       -0.89129266047649       -0.80223557088905
C            5.27712062022383       -0.02944504377575        0.03821313079983
C            3.86056321936791        0.22086553913639       -0.18725800650694
C            3.38532752757036        1.56461088616535       -0.32233235408003
C            4.25509500878108        2.65783574431024       -0.32394978419173
C            3.77899956948247        3.96607774163761       -0.35890687888118
C            2.42098322707544        4.19955737863922       -0.38042268643412
C            1.53509934072397        3.12723971759149       -0.44519356884748
C            1.98945290238689        1.80678408908921       -0.48415014619531
C            1.08988269585592        0.70691587129460       -0.65081798357690
C           -0.32553509752197        0.94146349277874       -0.89253646303994
C           -0.75651866579330        1.77660639114822       -1.93336453017135
C           -2.09777207302327        1.95021591894178       -2.21124185904211
C           -3.03826296990472        1.28161234604517       -1.43945312042163
C           -2.61781997520069        0.45874071316311       -0.38187045712747
C           -1.28558474763020        0.28886179319363       -0.10392342161542
C           -3.80324967134318       -0.22030536157790        0.27551282997884
C           -3.59209273357992       -1.70876348979899        0.06955497980310
C           -4.08167525213435       -2.35065888027126       -1.06010538277320
C           -3.79801227856230       -3.68630473254120       -1.28662683259917
C           -3.01196298383706       -4.39402850632811       -0.39433326230569
C           -2.51426401260111       -3.75871943932823        0.73072832382343
C           -2.80112907192680       -2.42583586704746        0.96071608511075
C           -4.00592488133492        0.15068711564902        1.72890245256398
C           -4.78443708988368       -0.65541964892490        2.55148396748820
C           -5.02627248322430       -0.29300669354007        3.86388145859766
C           -4.49783720985948        0.88214555494706        4.37051919769957
C           -3.72919824229668        1.69354449584515        3.55462052154700
C           -3.48796932448640        1.33284684720800        2.24060744903431
C           -4.95555036587213        0.35284380836965       -0.52638616327762
C           -6.30600771627544        0.12544100616755       -0.37588199386688
C           -7.19064860363176        0.77925636295625       -1.22380357097125
C           -6.72852182137621        1.64751254189053       -2.20181584243505
C           -5.37303502279384        1.88501368554696       -2.35569717158896
C           -4.48485061371705        1.23523075006698       -1.51239546451877
C            1.57570202684134       -0.63896263472017       -0.57791731731434
C            0.74938359167868       -1.73930044703447       -0.82236019075895
C            1.20120183678662       -3.04400511988883       -0.64234238312678
C            2.49266257843130       -3.27004567200316       -0.21825967345394
C            3.36033816557150       -2.19452951639799       -0.04541875965292
C            2.94834363863039       -0.87931001564842       -0.27466974028048
C            5.95765441492135        0.58379267364977        1.09960680500849
C            7.29461409696969        0.34367221853540        1.31903049459881
H            7.88651900522367       -1.77564253041878       -1.26501802349168
H            5.49073675263994       -1.34912033015269       -1.64018955821794
H            5.32118552319923        2.49158278927570       -0.30321383931498
H            4.47877416557641        4.78806293033310       -0.35282976688580
H            2.03664829131967        5.20837761087047       -0.36377174269852
H            0.47416533127602        3.32369318351331       -0.46057603636218
H           -0.01476408944212        2.25123714360701       -2.55943417149429
H           -2.40685904073885        2.58038001468369       -3.03196857284338
H           -0.96476712680939       -0.32195748496465        0.72659222133168
H           -4.68739296483545       -1.80415934006306       -1.76835393307257
H           -4.18951272415423       -4.17328798258957       -2.16786528203629
H           -2.78775426606274       -5.43510725898779       -0.57484732894492
H           -1.89682951309498       -4.30123722772842        1.43192371242080
H           -2.41318305113204       -1.94021651024322        1.84453894872774
H           -5.19403513066042       -1.57779501864294        2.16501201974621
H           -5.63033802042611       -0.93050635959856        4.49304535742098
H           -4.68605323992448        1.16445127758735        5.39580024582529
H           -3.31586325545451        2.61384591778605        3.94090399151365
H           -2.89148628662447        1.97498104748770        1.60878709216519
H           -6.67328277524162       -0.54797375882234        0.38409712985514
H           -8.25212272362028        0.60959338871369       -1.11930685586287
H           -7.43571180402006        2.14477369056651       -2.84954302607408
H           -5.01511994867914        2.56306809524664       -3.11613088499392
H           -0.26334773710420       -1.58617260259734       -1.16193252903311
H            0.52546401839383       -3.86654286146116       -0.82246204020584
H            2.84502890449404       -4.27373966133470       -0.03405530914112
H            4.37087080686309       -2.38693448475486        0.28115486603887
H            5.40943325269535        1.22560747345527        1.77385543870993
H            7.80618853746492        0.80720886843040        2.15003756118014

 projected vibrational frequencies (cm⁻¹)
eigval :       -0.00    -0.00     0.00     0.00     0.00     0.00
eigval :        9.52    15.34    17.10    31.25    38.02    43.49
eigval :       45.64    51.55    55.87    61.68    68.60    79.79
eigval :       83.07    91.36   122.91   126.62   129.65   132.71
eigval :      142.58   153.63   180.41   210.49   211.10   222.11
eigval :      232.43   241.24   254.36   263.97   275.37   277.75
eigval :      293.77   320.81   333.86   338.05   366.07   368.02
eigval :      372.09   378.06   388.07   394.73   399.33   410.87
eigval :      426.45   441.44   445.85   457.95   460.44   472.28
eigval :      486.75   500.95   510.00   518.55   532.77   536.76
eigval :      549.41   571.52   583.56   583.83   588.39   588.85
eigval :      593.09   596.94   611.24   620.66   629.35   638.00
eigval :      645.88   670.07   671.13   674.61   687.41   688.97
eigval :      692.38   709.47   718.98   723.36   750.21   753.62
eigval :      758.16   762.91   764.35   774.63   784.81   816.06
eigval :      830.72   848.82   854.24   869.56   876.36   879.72
eigval :      880.48   883.71   887.25   892.89   894.46   903.34
eigval :      904.09   905.39   907.14   907.83   913.24   917.28
eigval :      921.56   922.89   925.91   926.45   928.51   931.04
eigval :      931.78   934.42   934.88   935.98   946.11   984.55
eigval :      997.40  1002.30  1012.34  1017.62  1077.99  1086.38
eigval :     1088.69  1102.31  1106.13  1108.14  1115.81  1123.53
eigval :     1125.65  1127.99  1135.11  1151.67  1165.04  1175.52
eigval :     1180.96  1181.45  1182.20  1182.38  1183.20  1187.02
eigval :     1190.61  1202.38  1204.90  1205.95  1228.78  1230.60
eigval :     1236.24  1239.85  1245.27  1253.48  1257.02  1262.41
eigval :     1268.61  1283.83  1286.24  1288.61  1298.75  1301.24
eigval :     1310.32  1317.26  1322.42  1323.96  1335.84  1354.65
eigval :     1362.68  1369.67  1379.25  1402.28  1408.70  1420.35
eigval :     1424.45  1429.05  1433.54  1437.46  1444.96  1464.59
eigval :     1468.72  1475.09  1477.01  1477.35  1490.47  1516.55
eigval :     1521.64  1531.04  1552.32  1554.90  1568.32  1578.75
eigval :     1585.99  1589.02  1590.08  1598.94  1600.73  1603.03
eigval :     2356.87  3071.34  3072.16  3073.91  3074.70  3075.08
eigval :     3076.60  3078.66  3079.88  3080.15  3080.49  3080.79
eigval :     3081.32  3082.17  3085.73  3086.89  3087.37  3087.73
eigval :     3088.04  3089.44  3090.26  3090.70  3090.85  3093.01
eigval :     3093.79  3094.86  3096.24  3096.80  3100.57  3101.03

   temp. (K)  partition function   enthalpy   heat capacity  entropy
                                   cal/mol     cal/K/mol   cal/K/mol   J/K/mol
 298.15  VIB  0.304E+17            21535.125    137.682    133.785
         ROT  0.678E+08              888.752      2.981     38.817
         INT  0.207E+25            22423.878    140.663    172.602
         TR   0.141E+29             1481.254      4.968     45.017
         TOT                       23905.1315   145.6310   217.6188   910.5171

       T/K    H(0)-H(T)+PV         H(T)/Eh          T*S/Eh         G(T)/Eh
   ------------------------------------------------------------------------
    298.15    0.380953E-01    0.619635E+00    0.103398E+00    0.516237E+00
   ------------------------------------------------------------------------

         :::::::::::::::::::::::::::::::::::::::::::::::::::::
         ::                  THERMODYNAMIC                  ::
         :::::::::::::::::::::::::::::::::::::::::::::::::::::
         :: total free energy        -115.601888096212 Eh   ::
         ::.................................................::
         :: total energy             -116.118125237163 Eh   ::
         :: zero point energy           0.581539603141 Eh   ::
         :: G(RRHO) w/o ZPVE           -0.065302462190 Eh   ::
         :: G(RRHO) contrib.            0.516237140951 Eh   ::
         :::::::::::::::::::::::::::::::::::::::::::::::::::::

           -------------------------------------------------
          | TOTAL ENERGY             -116.118125237163 Eh   |
          | TOTAL ENTHALPY           -115.498490382117 Eh   |
          | TOTAL FREE ENERGY        -115.601888096212 Eh   |
          | GRADIENT NORM               0.000043323781 Eh/α |
           -------------------------------------------------

 * finished run on 2025/09/12 at 05:36:59.666
