   * xtb version 6.7.1 (edcfbbe) compiled by 'albert@albert-system' on 2024-07-22

   ID    Z sym.   atoms
    1    6 C      1-9, 11-19, 21-39, 41, 42, 44-47, 49-55
    2    7 N      10, 20, 40, 48
    3    9 F      43
    4    1 H      56-92

          program call               : xtb data2507/toluene/2DMAC-BP-F/2DMAC-BP-F_toluene_S0_crest.xyz --gfn 2 --gbsa toluene --ohess vtight --parallel 40 --molden --ceasefiles --namespace data2507/toluene/2DMAC-BP-F/2DMAC-BP-F_toluene_S0_finalOpt
      * Solvation model:               GBSA
        Solvent                        toluene
        Solvent mass                       9.2140E+01 g/mol
          :  Hamiltonian                  GFN2-xTB          :
 * total energy  :  -142.5286493 Eh     change       -0.6552341E-09 Eh
 * total energy  :  -142.5288129 Eh     change       -0.1636319E-03 Eh
 * total energy  :  -142.5289056 Eh     change       -0.9267323E-04 Eh
 * total energy  :  -142.5289371 Eh     change       -0.3145839E-04 Eh
 * total energy  :  -142.5289623 Eh     change       -0.2527477E-04 Eh
 * total energy  :  -142.5289846 Eh     change       -0.2227366E-04 Eh
 * total energy  :  -142.5289963 Eh     change       -0.1170894E-04 Eh
 * total energy  :  -142.5290087 Eh     change       -0.1239769E-04 Eh
 * total energy  :  -142.5290277 Eh     change       -0.1894073E-04 Eh
 * total energy  :  -142.5290421 Eh     change       -0.1440523E-04 Eh
 * total energy  :  -142.5291670 Eh     change       -0.1127043E-05 Eh
 * total energy  :  -142.5291681 Eh     change       -0.1087179E-05 Eh
 * total energy  :  -142.5291692 Eh     change       -0.1114578E-05 Eh
 * total energy  :  -142.5291703 Eh     change       -0.1073979E-05 Eh
 * total energy  :  -142.5291713 Eh     change       -0.1001981E-05 Eh
 * total energy  :  -142.5291722 Eh     change       -0.9283031E-06 Eh
 * total energy  :  -142.5291731 Eh     change       -0.8507560E-06 Eh
 * total energy  :  -142.5291738 Eh     change       -0.7656033E-06 Eh
 * total energy  :  -142.5291738 Eh     change       -0.3940528E-08 Eh
   *** GEOMETRY OPTIMIZATION CONVERGED AFTER 44 ITERATIONS ***

 final structure:
================
92
 xtb: 6.7.1 (edcfbbe)
C            4.75189739096514       -0.01494197835893       -2.42652954945721
C            5.57068106932766        0.68679871132035       -1.32328227543425
C            6.73088465646205        1.42475903673454       -1.99168777458944
C            4.65981659402304        1.62001962318627       -0.54288097781724
C            4.69012501778047        3.00329235235240       -0.63370332334172
C            3.84094165539963        3.78521877361589        0.13150852652215
C            2.96589325426917        3.19501268641194        1.02580409895291
C            2.92769140856599        1.81789242093193        1.14074103101321
C            3.74599366743837        1.03177066298734        0.33800551756079
N            3.76762737763603       -0.37396646157220        0.46720350245916
C            2.65446869466626       -1.17519803136868        0.34974721602974
C            2.76753713263946       -2.57801354234803        0.33660830623501
C            1.64753391627094       -3.35876899675275        0.23711017118555
C            0.36732476679554       -2.80041545267383        0.13465747633460
C            0.23609655942784       -1.39757670722834        0.06428352623099
C            1.38687679739317       -0.62143502369928        0.15616055980973
C           -1.08964639386261       -0.80557844180659       -0.09314722894081
C           -1.28013737105346        0.56752491369463       -0.20703841222185
C           -2.54418213851718        1.14264995749380       -0.35904908836164
N           -2.68677872732472        2.50678849010206       -0.48201704276546
C           -3.93389955310389        3.16856599338593       -0.45936759647916
C           -4.93565813775683        2.84950773275498       -1.36792189142493
C           -6.13172918545853        3.54309336442710       -1.34735547974063
C           -6.31443499835498        4.57192470840059       -0.44040772245733
C           -5.29529550025847        4.92363200801109        0.42931311424707
C           -4.09232224910723        4.23448012909264        0.43282080024224
C           -2.91376736821066        4.56727652064009        1.33262472626959
C           -3.06366158358258        5.92769593878297        2.01396091396018
C           -2.79600766310856        3.49259305712453        2.43324769791866
C           -1.68800515075644        4.49596693828204        0.43753538390877
C           -0.66477262174265        5.43177111291632        0.42983297128583
C            0.41333033076276        5.29967111199326       -0.42940119916707
C            0.47297130081216        4.23934162833986       -1.31615163684219
C           -0.54354448613424        3.30276789569444       -1.33474298945297
C           -1.60543929500855        3.41378440138361       -0.44463811994554
C           -3.66442741786971        0.29358518204709       -0.29433165183580
C           -3.49718699283926       -1.06114806853861       -0.18805602168261
C           -2.22521762622129       -1.64226913057468       -0.11691593492004
C           -2.09157807897489       -3.07047429630838       -0.03766223151324
N           -3.17654068903866       -3.82337954954918       -0.07646788509908
C           -3.01660516079164       -5.15512334014836       -0.00878229647988
C           -4.12620837983804       -6.02615779421732       -0.04291268484747
F           -5.37224676142910       -5.49703743095532       -0.14117279220459
C           -3.98291941268681       -7.38372629189986        0.02097166394328
C           -2.69876239754165       -7.94222097534736        0.12325930957857
C           -1.58875618071012       -7.14507517574616        0.16140227076290
C           -1.72083084473109       -5.74301313304034        0.09701917977798
N           -0.62560889240641       -4.96555008847740        0.14006424655079
C           -0.78651507449595       -3.65545028205041        0.07704754016633
C            5.08376527680159       -0.87646752155395        0.55260078353987
C            5.44351319533506       -1.78079480484713        1.54433747191124
C            6.75149676134798       -2.21960839854898        1.63464721979343
C            7.70174477298751       -1.73412514954084        0.75356841098716
C            7.35120684329032       -0.79626941271229       -0.20378701621562
C            6.04321348162264       -0.35121491387036       -0.31902638803164
H            5.38513138374795       -0.71762222380015       -2.96431035175905
H            3.90668861462929       -0.56231970090373       -2.01832648688493
H            4.37307649334366        0.72329926402361       -3.13039773369123
H            7.35159886642055        0.72313435199625       -2.54306993034432
H            6.35040506506277        2.14997158329913       -2.70652267742523
H            7.34393824054480        1.93878274092986       -1.25477191148152
H            5.37968734533035        3.48922863397747       -1.30443957783989
H            3.87728689560781        4.86008479439599        0.03966524881790
H            2.32195641534714        3.80271923100148        1.64300336096592
H            2.28042183162099        1.34920495250557        1.86719357545429
H            3.73749749234785       -3.04575712599344        0.38193054288166
H            1.72706241809567       -4.43462444479791        0.23524424923082
H            1.31082052483319        0.44726769373676        0.06157813627689
H           -0.42966157727796        1.22449821964852       -0.15761147806122
H           -4.76900836036024        2.07220593022924       -2.09866240778641
H           -6.91243389825681        3.28699571071154       -2.04811562615008
H           -7.24711477304409        5.11574829843054       -0.41943095821558
H           -5.45411187894938        5.74550998980584        1.10807603245902
H           -3.94392821964224        5.93085450073614        2.65169477797060
H           -2.20407809503561        6.12395543266126        2.64975489934336
H           -3.15342565492915        6.72536504192950        1.27991251532196
H           -1.93026692065138        3.69986298272424        3.05903127200630
H           -2.68467906740158        2.49534632396676        2.01639655491142
H           -3.68799421358115        3.50346992029552        3.05623764876940
H           -0.69650004663436        6.27779383080636        1.09678638602389
H            1.20140212707557        6.03712686417939       -0.41463933931620
H            1.30084543482038        4.14621257193509       -2.00243267444295
H           -0.52868339673011        2.49417672075510       -2.05057144327548
H           -4.66077059477528        0.70390997881580       -0.30467622728955
H           -4.35262729935757       -1.71799132220559       -0.15121949163246
H           -4.85865255167602       -8.01315242313452       -0.00838577359899
H           -2.60133298953551       -9.01563768183222        0.17261480847278
H           -0.59509073996719       -7.55735015100499        0.24100766910611
H            4.70126593184906       -2.12309573634332        2.25018563673538
H            7.02806460272586       -2.92834104165787        2.40099316930231
H            8.72466600545060       -2.07363576759140        0.82021757799176
H            8.11564946424470       -0.41670452501450       -0.86185680655788

          :  Hamiltonian                  GFN2-xTB          :
         :: gradient norm              0.000052965320 Eh/a0 ::
         :: HOMO-LUMO gap              1.404942357339 eV    ::
         :: SCC energy              -145.019044244654 Eh    ::
         :: -> dispersion             -0.139155827633 Eh    ::
         :: -> Gsolv                  -0.057293890405 Eh    ::
         :: repulsion energy           2.489870416758 Eh    ::

    * Orbital Energies and Occupations

         #    Occupation            Energy/Eh            Energy/eV
      -------------------------------------------------------------
         1        2.0000           -0.8194095             -22.2973
       ...           ...                  ...                  ...
       120        2.0000           -0.4121867             -11.2162
       121        2.0000           -0.4040763             -10.9955
       122        2.0000           -0.4032273             -10.9724
       123        2.0000           -0.4019601             -10.9379
       124        2.0000           -0.4017227             -10.9314
       125        2.0000           -0.4008123             -10.9067
       126        2.0000           -0.4000333             -10.8855
       127        2.0000           -0.3990532             -10.8588
       128        2.0000           -0.3980467             -10.8314
       129        2.0000           -0.3894349             -10.5971
       130        2.0000           -0.3585698              -9.7572
       131        2.0000           -0.3539042              -9.6302
       132        2.0000           -0.3514783              -9.5642 (HOMO)
       133                         -0.2998476              -8.1593 (LUMO)
       134                         -0.2629274              -7.1546
       135                         -0.2496700              -6.7939
       136                         -0.2323394              -6.3223
       137                         -0.2307268              -6.2784
       138                         -0.2295676              -6.2469
       139                         -0.2287460              -6.2245
       140                         -0.2247440              -6.1156
       141                         -0.2242940              -6.1033
       142                         -0.2218807              -6.0377
       143                         -0.2211618              -6.0181
       ...                                ...                  ...
       257                          0.7156896              19.4749
      -------------------------------------------------------------
                  HL-Gap            0.0516307 Eh            1.4049 eV

     #   Z          covCN         q      C6AA      α(0)
     1   6 C        3.761    -0.099    22.441     6.753
     2   6 C        3.911     0.023    20.128     6.377
     3   6 C        3.759    -0.109    22.633     6.782
     4   6 C        2.987    -0.006    28.162     8.705
     5   6 C        2.923    -0.038    28.955     8.824
     6   6 C        2.919    -0.036    28.893     8.815
     7   6 C        2.919    -0.033    28.820     8.804
     8   6 C        2.920    -0.047    29.158     8.855
     9   6 C        2.951     0.055    26.774     8.487
    10   7 N        2.754    -0.064    22.487     7.043
    11   6 C        2.909     0.072    26.392     8.424
    12   6 C        2.920    -0.057    29.419     8.895
    13   6 C        2.921    -0.029    28.734     8.790
    14   6 C        2.987    -0.023    28.567     8.767
    15   6 C        2.975     0.004    27.938     8.670
    16   6 C        2.927    -0.067    29.657     8.931
    17   6 C        2.975     0.003    27.947     8.672
    18   6 C        2.928    -0.066    29.654     8.930
    19   6 C        2.909     0.072    26.391     8.424
    20   7 N        2.754    -0.065    22.506     7.046
    21   6 C        2.951     0.055    26.765     8.485
    22   6 C        2.920    -0.046    29.147     8.853
    23   6 C        2.920    -0.034    28.842     8.807
    24   6 C        2.919    -0.037    28.920     8.819
    25   6 C        2.923    -0.039    28.958     8.825
    26   6 C        2.987    -0.006    28.163     8.705
    27   6 C        3.911     0.023    20.127     6.377
    28   6 C        3.759    -0.109    22.633     6.783
    29   6 C        3.761    -0.099    22.436     6.752
    30   6 C        2.987    -0.006    28.163     8.705
    31   6 C        2.922    -0.038    28.955     8.824
    32   6 C        2.919    -0.036    28.890     8.814
    33   6 C        2.919    -0.033    28.818     8.803
    34   6 C        2.920    -0.046    29.152     8.854
    35   6 C        2.951     0.055    26.771     8.486
    36   6 C        2.920    -0.057    29.425     8.895
    37   6 C        2.921    -0.029    28.722     8.789
    38   6 C        2.987    -0.023    28.567     8.767
    39   6 C        2.961     0.090    26.005     8.364
    40   7 N        1.846    -0.274    27.954     7.836
    41   6 C        2.962     0.069    26.459     8.437
    42   6 C        2.780     0.145    24.834     8.162
    43   9 F        0.786    -0.239    11.649     4.032
    44   6 C        2.914    -0.056    29.387     8.889
    45   6 C        2.919    -0.033    28.819     8.803
    46   6 C        2.916    -0.053    29.309     8.878
    47   6 C        2.964     0.078    26.261     8.406
    48   7 N        1.848    -0.272    27.917     7.831
    49   6 C        2.956     0.088    26.039     8.370
    50   6 C        2.952     0.055    26.767     8.486
    51   6 C        2.920    -0.046    29.146     8.853
    52   6 C        2.919    -0.034    28.841     8.807
    53   6 C        2.919    -0.037    28.921     8.819
    54   6 C        2.923    -0.038    28.955     8.824
    55   6 C        2.987    -0.006    28.162     8.705
    56   1 H        0.925     0.041     2.433     2.439
    57   1 H        0.925     0.034     2.536     2.491
    58   1 H        0.925     0.042     2.426     2.436
    59   1 H        0.925     0.045     2.388     2.417
    60   1 H        0.925     0.045     2.382     2.413
    61   1 H        0.925     0.041     2.436     2.441
    62   1 H        0.926     0.047     2.361     2.403
    63   1 H        0.926     0.038     2.482     2.464
    64   1 H        0.926     0.036     2.503     2.474
    65   1 H        0.926     0.038     2.480     2.463
    66   1 H        0.926     0.043     2.408     2.427
    67   1 H        0.926     0.051     2.304     2.374
    68   1 H        0.926     0.045     2.380     2.412
    69   1 H        0.926     0.045     2.381     2.413
    70   1 H        0.926     0.038     2.470     2.458
    71   1 H        0.926     0.036     2.509     2.477
    72   1 H        0.926     0.036     2.503     2.474
    73   1 H        0.926     0.047     2.363     2.404
    74   1 H        0.925     0.045     2.390     2.417
    75   1 H        0.925     0.045     2.379     2.412
    76   1 H        0.925     0.041     2.434     2.440
    77   1 H        0.925     0.042     2.423     2.434
    78   1 H        0.925     0.033     2.543     2.494
    79   1 H        0.925     0.041     2.438     2.442
    80   1 H        0.926     0.047     2.361     2.403
    81   1 H        0.926     0.038     2.477     2.461
    82   1 H        0.926     0.036     2.502     2.473
    83   1 H        0.926     0.037     2.485     2.465
    84   1 H        0.926     0.042     2.419     2.432
    85   1 H        0.926     0.049     2.335     2.390
    86   1 H        0.926     0.063     2.170     2.303
    87   1 H        0.926     0.059     2.209     2.324
    88   1 H        0.926     0.060     2.195     2.317
    89   1 H        0.926     0.039     2.469     2.457
    90   1 H        0.926     0.036     2.505     2.475
    91   1 H        0.926     0.036     2.503     2.474
    92   1 H        0.926     0.046     2.367     2.406

molecular dipole:
                 x           y           z       tot (Debye)
 q only:        2.664       3.268       0.068
   full:        2.466       2.971       0.067       9.815

 projected vibrational frequencies (cm⁻¹)
eigval :       -0.00    -0.00    -0.00    -0.00     0.00     0.00
eigval :       14.15    15.92    19.82    23.66    36.50    40.62
eigval :       44.93    55.89    62.12    69.56    78.42    87.01
eigval :       90.97    94.56   116.26   136.54   136.94   139.52
eigval :      146.24   156.63   166.90   171.74   177.01   181.94
eigval :      185.42   190.83   206.58   219.14   226.69   231.31
eigval :      233.88   249.04   284.71   286.56   288.32   297.12
eigval :      308.43   312.99   322.04   328.85   332.85   346.46
eigval :      350.63   354.90   359.76   361.57   385.86   390.38
eigval :      395.73   404.35   406.17   407.57   412.26   415.80
eigval :      432.35   438.55   444.18   455.06   456.31   459.58
eigval :      466.17   485.00   499.07   499.71   500.62   513.44
eigval :      515.04   529.81   547.33   550.34   557.87   560.55
eigval :      563.71   572.72   574.69   578.20   584.89   592.44
eigval :      593.50   603.08   612.05   637.76   641.57   651.20
eigval :      668.82   677.93   690.96   693.26   693.88   703.05
eigval :      710.20   722.66   725.57   726.24   739.77   741.82
eigval :      760.73   776.13   777.25   782.71   784.97   799.25
eigval :      807.63   808.75   810.04   819.74   821.82   848.21
eigval :      849.75   858.04   881.86   885.99   888.13   890.26
eigval :      891.97   903.32   907.58   908.49   914.10   915.07
eigval :      917.10   917.72   918.49   921.60   924.84   937.01
eigval :      938.82   940.50   942.80   943.34   943.90   959.41
eigval :      966.34   968.71  1004.59  1008.89  1009.08  1025.85
eigval :     1054.71  1072.18  1072.35  1076.29  1080.38  1088.46
eigval :     1096.84  1099.42  1099.53  1106.61  1107.22  1136.36
eigval :     1136.68  1150.74  1151.30  1156.98  1163.68  1166.65
eigval :     1174.01  1174.93  1180.60  1181.25  1187.63  1188.13
eigval :     1193.21  1195.75  1205.50  1228.35  1229.93  1232.83
eigval :     1238.40  1255.79  1257.22  1264.26  1266.51  1266.84
eigval :     1272.94  1273.60  1278.29  1283.77  1291.38  1298.46
eigval :     1313.31  1316.92  1319.10  1325.41  1325.50  1325.66
eigval :     1337.07  1340.03  1344.41  1355.03  1383.26  1394.17
eigval :     1396.12  1396.17  1413.52  1413.75  1416.91  1435.30
eigval :     1436.76  1437.64  1440.88  1445.87  1448.62  1452.46
eigval :     1453.61  1463.15  1471.18  1476.83  1479.06  1490.03
eigval :     1490.35  1490.89  1491.41  1492.43  1496.88  1504.67
eigval :     1505.00  1518.87  1520.49  1524.10  1538.38  1539.25
eigval :     1574.55  1574.85  1577.13  1582.57  1583.54  1587.19
eigval :     1587.50  1588.09  1597.60  1599.06  1601.97  3024.93
eigval :     3025.24  3027.77  3027.95  3031.10  3032.93  3033.01
eigval :     3033.63  3045.95  3047.94  3051.85  3052.50  3076.51
eigval :     3077.18  3079.44  3080.75  3082.75  3083.78  3084.52
eigval :     3085.72  3092.57  3093.11  3093.21  3095.57  3096.84
eigval :     3099.05  3101.69  3102.86  3108.98  3112.01  3112.07
eigval :     3112.64  3113.11  3113.90  3114.81  3131.23  3141.74

   temp. (K)  partition function   enthalpy   heat capacity  entropy
                                   cal/mol     cal/K/mol   cal/K/mol   J/K/mol
 298.15  VIB  0.134E+19            25816.984    168.865    156.198
         ROT  0.120E+09              888.752      2.981     39.945
         INT  0.160E+27            26705.736    171.846    196.144
         TR   0.184E+29             1481.254      4.968     45.552
         TOT                       28186.9901   176.8142   241.6958  1011.2552

       T/K    H(0)-H(T)+PV         H(T)/Eh          T*S/Eh         G(T)/Eh
   ------------------------------------------------------------------------
    298.15    0.449188E-01    0.762594E+00    0.114837E+00    0.647757E+00
   ------------------------------------------------------------------------

         :::::::::::::::::::::::::::::::::::::::::::::::::::::
         ::                  THERMODYNAMIC                  ::
         :::::::::::::::::::::::::::::::::::::::::::::::::::::
         :: total free energy        -141.881416958566 Eh   ::
         ::.................................................::
         :: total energy             -142.529173832940 Eh   ::
         :: zero point energy           0.717675522148 Eh   ::
         :: G(RRHO) w/o ZPVE           -0.069918647774 Eh   ::
         :: G(RRHO) contrib.            0.647756874374 Eh   ::
         :::::::::::::::::::::::::::::::::::::::::::::::::::::

           -------------------------------------------------
          | TOTAL ENERGY             -142.529173832940 Eh   |
          | TOTAL ENTHALPY           -141.766579482920 Eh   |
          | TOTAL FREE ENERGY        -141.881416958566 Eh   |
          | GRADIENT NORM               0.000052965919 Eh/α |
          | HOMO-LUMO GAP               1.404942366044 eV   |
           -------------------------------------------------

 * finished run on 2025/09/09 at 11:22:31.762
