   * xtb version 6.7.1 (edcfbbe) compiled by 'albert@albert-system' on 2024-07-22

   ID    Z sym.   atoms
    1    6 C      1-9, 11-19, 21-39, 41, 42, 44-47, 49-55
    2    7 N      10, 20, 40, 48
    3    9 F      43
    4    1 H      56-92

          program call               : xtb data2507/toluene/2DMAC-BP-F/2DMAC-BP-F_toluene_S0_finalOpt.xtbopt.xyz --gfn 2 --uhf 2 --gbsa toluene --ohess vtight --parallel 40 --molden --ceasefiles --namespace data2507/toluene/2DMAC-BP-F/2DMAC-BP-F_toluene_T1_preOpt
      * Solvation model:               GBSA
        Solvent                        toluene
        Solvent mass                       9.2140E+01 g/mol
          :  Hamiltonian                  GFN2-xTB          :
 * total energy  :  -142.4728750 Eh     change        0.1677449E-08 Eh
 * total energy  :  -142.4751490 Eh     change       -0.2273990E-02 Eh
 * total energy  :  -142.4758837 Eh     change       -0.7346243E-03 Eh
 * total energy  :  -142.4759801 Eh     change       -0.9646235E-04 Eh
 * total energy  :  -142.4760212 Eh     change       -0.4102574E-04 Eh
 * total energy  :  -142.4760265 Eh     change       -0.5392192E-05 Eh
 * total energy  :  -142.4760302 Eh     change       -0.3672292E-05 Eh
 * total energy  :  -142.4760346 Eh     change       -0.4432524E-05 Eh
 * total energy  :  -142.4760387 Eh     change       -0.4072773E-05 Eh
 * total energy  :  -142.4760420 Eh     change       -0.3238110E-05 Eh
 * total energy  :  -142.4760547 Eh     change       -0.1599547E-05 Eh
 * total energy  :  -142.4760567 Eh     change       -0.2092640E-05 Eh
 * total energy  :  -142.4760588 Eh     change       -0.2062022E-05 Eh
 * total energy  :  -142.4760602 Eh     change       -0.1348602E-05 Eh
 * total energy  :  -142.4760606 Eh     change       -0.4732572E-06 Eh
 * total energy  :  -142.4760615 Eh     change       -0.8945706E-06 Eh
 * total energy  :  -142.4760616 Eh     change       -0.1148128E-06 Eh
 * total energy  :  -142.4760618 Eh     change       -0.1597451E-06 Eh
 * total energy  :  -142.4760618 Eh     change       -0.1921200E-07 Eh
   *** GEOMETRY OPTIMIZATION CONVERGED AFTER 26 ITERATIONS ***

 final structure:
================
92
 xtb: 6.7.1 (edcfbbe)
C            4.77889901739476        0.01613365696676       -2.44180081938372
C            5.59941871409317        0.69605884591661       -1.32600940706281
C            6.76496243206922        1.43845138591150       -1.98025983359437
C            4.69110634988646        1.62158319134856       -0.53449333442054
C            4.72196974393902        3.00550859721218       -0.61069385206101
C            3.87172578855610        3.78009958975168        0.16113019467943
C            2.99456982085339        3.18082414779744        1.04779619541475
C            2.95367065180019        1.80289539274498        1.14689111295403
C            3.77297187285943        1.02384591463975        0.33675041802070
N            3.78971397297061       -0.38128627498454        0.44738616026010
C            2.66463739534212       -1.17485002581832        0.33984746726155
C            2.76919247710009       -2.58333884050989        0.32358251794583
C            1.64827083954514       -3.35649767313659        0.22991280247091
C            0.36362738162646       -2.79056528377941        0.13360557794443
C            0.24306271918340       -1.38085707395420        0.06689506881112
C            1.40529201051949       -0.61248297551274        0.15309528821169
C           -1.07024637980312       -0.79336817481113       -0.08178933328477
C           -1.27256818890834        0.58352198727658       -0.18791220086394
C           -2.53593380821800        1.14732171493253       -0.34222168554907
N           -2.69163533535534        2.51484885837231       -0.45900378551051
C           -3.94320671424680        3.16296254959106       -0.45818457652050
C           -4.93392411037703        2.82006298925980       -1.37156484074597
C           -6.13616985651945        3.50245725729217       -1.37328218777076
C           -6.33818629469254        4.54243382157834       -0.48289478103398
C           -5.33130046743967        4.91676962611496        0.39197811933858
C           -4.12102201603599        4.24152271524558        0.41647262985521
C           -2.95677164451907        4.59623239789493        1.32586845645817
C           -3.12491613827907        5.96568317966604        1.98472305039717
C           -2.84727335572840        3.53827017944382        2.44367197092442
C           -1.71837515510635        4.52013297567889        0.44946541886614
C           -0.69630782293492        5.45689764244120        0.45028347290321
C            0.39565826095950        5.31971143043670       -0.39078281468400
C            0.46959852559542        4.25345059115377       -1.26978502706834
C           -0.54355849100455        3.31386630228064       -1.29527527219922
C           -1.61855906382091        3.42804113020237       -0.42005653347924
C           -3.65572415614800        0.28893529916965       -0.28013729737100
C           -3.48397750097515       -1.06139605600609       -0.17699026768214
C           -2.20412952291484       -1.64184062136175       -0.10905512308519
C           -2.07359064098398       -3.05628002071881       -0.03419336383775
N           -3.14569810650313       -3.84599777862845       -0.06842684345248
C           -3.02767143818750       -5.17150644397040       -0.00020944812749
C           -4.11913652053513       -6.04056433043324       -0.03139665795329
F           -5.37378902936539       -5.50506509945393       -0.13238759076190
C           -3.98860586515364       -7.41544921048226        0.03745302418957
C           -2.72156718420542       -7.96837178216406        0.13986307758880
C           -1.60052029383424       -7.15759402522006        0.17499812711168
C           -1.71463301649266       -5.76829652790027        0.10718447615334
N           -0.65302289666001       -4.96305531924431        0.13707173161287
C           -0.77834051432636       -3.63809712960838        0.07619720027150
C            5.10002063941302       -0.89284777601163        0.52593924480584
C            5.45451994862964       -1.81573447255666        1.50361554730232
C            6.75890616785455       -2.26593307004928        1.58520181129555
C            7.71184794196640       -1.77529256276679        0.70959035158486
C            7.36765985710761       -0.81932398481031       -0.23235528359751
C            6.06408572115985       -0.36010293872362       -0.33774493586220
H            5.40955767038929       -0.68038685347199       -2.99034470761224
H            3.93074780810673       -0.53389858303027       -2.04324330594199
H            4.40441695380149        0.76765350630488       -3.13371189353223
H            7.38334197279697        0.74255437426469       -2.54131141087783
H            6.38978479864325        2.17646650430953       -2.68458677082377
H            7.37875856710712        1.93779241490985       -1.23397039184590
H            5.41322320589145        3.49775420204806       -1.27491166693362
H            3.90939245138676        4.85579499484065        0.08116067651150
H            2.35099358545282        3.78232518030771        1.67131641401508
H            2.30650121329977        1.32705712481220        1.86852592032324
H            3.73684428920099       -3.05667724909852        0.35694529690105
H            1.72262122510070       -4.43328199837203        0.22171257047052
H            1.33215203694606        0.45638725459699        0.05776552629174
H           -0.42396595063387        1.24217461031503       -0.12999721704018
H           -4.75151727424874        2.03555666253740       -2.09071696849144
H           -6.90666506140245        3.22921553754531       -2.07870666940485
H           -7.27619729244660        5.07722083970508       -0.47923483320614
H           -5.50587125661346        5.74563718801140        1.05816196886597
H           -4.01447912109998        5.97294418997947        2.60921158800747
H           -2.27629836711293        6.17664495409739        2.63038551369428
H           -3.20850505514418        6.75157576361567        1.23742234293532
H           -1.99247582992251        3.76087406176679        3.07898140981537
H           -2.72268269446110        2.53617588370435        2.04233856654969
H           -3.74839972676816        3.55143531370680        3.05323040165697
H           -0.74039961899985        6.30844683038889        1.10926462837987
H            1.18213466024122        6.05858236970383       -0.36946180332636
H            1.30659080724169        4.15781639544215       -1.94442453768397
H           -0.51837530423976        2.50218183711147       -2.00706080589294
H           -4.65391800745615        0.69470678050030       -0.28635992639052
H           -4.33709841311021       -1.72210550208693       -0.13800641208653
H           -4.87487619403686       -8.02901980764997        0.00918676995851
H           -2.61003902126878       -9.03986675699617        0.19379882068355
H           -0.61170237967458       -7.58096340775090        0.25686464015624
H            4.71187636758011       -2.15979414954198        2.20803737771722
H            7.03086577523835       -2.98779322607554        2.34072510946074
H            8.73181980821494       -2.12456218019595        0.76901949109090
H            8.13409562708092       -0.43641703729734       -0.88601067958689

          :  Hamiltonian                  GFN2-xTB          :
         :: gradient norm              0.000181252151 Eh/a0 ::
         :: HOMO-LUMO gap              0.997530581967 eV    ::
         :: SCC energy              -144.966102470068 Eh    ::
         :: -> dispersion             -0.138797202423 Eh    ::
         :: -> Gsolv                  -0.059628764805 Eh    ::
         :: repulsion energy           2.490040648286 Eh    ::

    * Orbital Energies and Occupations

         #    Occupation            Energy/Eh            Energy/eV
      -------------------------------------------------------------
         1        2.0000           -0.8091342             -22.0177
       ...           ...                  ...                  ...
       121        2.0000           -0.4057706             -11.0416
       122        2.0000           -0.4048472             -11.0165
       123        2.0000           -0.4033260             -10.9751
       124        2.0000           -0.4029652             -10.9652
       125        2.0000           -0.4022430             -10.9456
       126        2.0000           -0.4011337             -10.9154
       127        2.0000           -0.3982049             -10.8357
       128        2.0000           -0.3944345             -10.7331
       129        2.0000           -0.3856163             -10.4932
       130        1.9980           -0.3601751              -9.8009
       131        1.7037           -0.3551082              -9.6630
       132        1.2983           -0.3534735              -9.6185
       133        1.0000           -0.2981099              -8.1120 (HOMO)
       134                         -0.2614517              -7.1145 (LUMO)
       135                         -0.2495546              -6.7907
       136                         -0.2329671              -6.3394
       137                         -0.2324722              -6.3259
       138                         -0.2312887              -6.2937
       139                         -0.2282707              -6.2116
       140                         -0.2271073              -6.1799
       141                         -0.2267155              -6.1692
       142                         -0.2239409              -6.0937
       143                         -0.2231587              -6.0725
       144                         -0.2108169              -5.7366
       ...                                ...                  ...
       257                          0.7136157              19.4185
      -------------------------------------------------------------
                  HL-Gap            0.0366582 Eh            0.9975 eV

     #   Z          covCN         q      C6AA      α(0)
     1   6 C        3.761    -0.100    22.452     6.755
     2   6 C        3.911     0.023    20.125     6.376
     3   6 C        3.759    -0.110    22.645     6.784
     4   6 C        2.987    -0.005    28.133     8.701
     5   6 C        2.922    -0.038    28.936     8.821
     6   6 C        2.919    -0.035    28.864     8.810
     7   6 C        2.919    -0.032    28.805     8.801
     8   6 C        2.920    -0.046    29.132     8.851
     9   6 C        2.951     0.054    26.779     8.488
    10   7 N        2.754    -0.054    22.287     7.012
    11   6 C        2.908     0.066    26.515     8.443
    12   6 C        2.919    -0.056    29.385     8.889
    13   6 C        2.921    -0.030    28.745     8.792
    14   6 C        2.986    -0.017    28.430     8.746
    15   6 C        2.976    -0.002    28.068     8.690
    16   6 C        2.926    -0.064    29.594     8.921
    17   6 C        2.976    -0.002    28.074     8.691
    18   6 C        2.926    -0.064    29.594     8.921
    19   6 C        2.908     0.066    26.511     8.443
    20   7 N        2.754    -0.055    22.299     7.013
    21   6 C        2.951     0.055    26.766     8.486
    22   6 C        2.920    -0.045    29.122     8.849
    23   6 C        2.919    -0.033    28.825     8.804
    24   6 C        2.919    -0.036    28.890     8.814
    25   6 C        2.922    -0.038    28.938     8.822
    26   6 C        2.987    -0.005    28.136     8.701
    27   6 C        3.911     0.023    20.124     6.376
    28   6 C        3.759    -0.110    22.646     6.784
    29   6 C        3.761    -0.100    22.448     6.754
    30   6 C        2.987    -0.005    28.132     8.700
    31   6 C        2.922    -0.038    28.935     8.821
    32   6 C        2.919    -0.035    28.862     8.810
    33   6 C        2.919    -0.032    28.802     8.801
    34   6 C        2.920    -0.045    29.126     8.850
    35   6 C        2.951     0.055    26.776     8.487
    36   6 C        2.918    -0.056    29.388     8.890
    37   6 C        2.921    -0.029    28.732     8.790
    38   6 C        2.986    -0.017    28.432     8.747
    39   6 C        2.943     0.081    26.188     8.393
    40   7 N        1.847    -0.250    27.355     7.752
    41   6 C        2.939     0.074    26.341     8.417
    42   6 C        2.781     0.126    25.218     8.225
    43   9 F        0.786    -0.260    11.870     4.070
    44   6 C        2.913    -0.063    29.579     8.918
    45   6 C        2.919    -0.042    29.033     8.836
    46   6 C        2.917    -0.070    29.751     8.944
    47   6 C        2.941     0.084    26.138     8.385
    48   7 N        1.849    -0.250    27.365     7.753
    49   6 C        2.940     0.080    26.223     8.398
    50   6 C        2.952     0.055    26.767     8.486
    51   6 C        2.920    -0.045    29.122     8.849
    52   6 C        2.919    -0.033    28.825     8.804
    53   6 C        2.919    -0.036    28.891     8.814
    54   6 C        2.922    -0.038    28.936     8.821
    55   6 C        2.987    -0.005    28.136     8.701
    56   1 H        0.925     0.042     2.421     2.433
    57   1 H        0.925     0.034     2.527     2.486
    58   1 H        0.925     0.043     2.409     2.427
    59   1 H        0.925     0.045     2.377     2.411
    60   1 H        0.925     0.046     2.367     2.406
    61   1 H        0.925     0.042     2.424     2.435
    62   1 H        0.926     0.049     2.335     2.390
    63   1 H        0.926     0.040     2.454     2.450
    64   1 H        0.926     0.038     2.474     2.460
    65   1 H        0.926     0.040     2.449     2.447
    66   1 H        0.926     0.044     2.391     2.418
    67   1 H        0.926     0.045     2.383     2.414
    68   1 H        0.926     0.046     2.366     2.405
    69   1 H        0.926     0.047     2.364     2.404
    70   1 H        0.926     0.040     2.448     2.447
    71   1 H        0.926     0.037     2.491     2.468
    72   1 H        0.926     0.038     2.481     2.463
    73   1 H        0.926     0.048     2.339     2.392
    74   1 H        0.925     0.045     2.378     2.411
    75   1 H        0.925     0.047     2.363     2.404
    76   1 H        0.925     0.042     2.422     2.434
    77   1 H        0.925     0.043     2.404     2.425
    78   1 H        0.925     0.034     2.533     2.489
    79   1 H        0.925     0.042     2.425     2.435
    80   1 H        0.926     0.049     2.334     2.389
    81   1 H        0.926     0.040     2.449     2.447
    82   1 H        0.926     0.038     2.471     2.458
    83   1 H        0.926     0.040     2.452     2.449
    84   1 H        0.926     0.043     2.403     2.424
    85   1 H        0.926     0.042     2.417     2.431
    86   1 H        0.926     0.050     2.325     2.384
    87   1 H        0.926     0.046     2.365     2.405
    88   1 H        0.926     0.049     2.330     2.387
    89   1 H        0.926     0.040     2.444     2.444
    90   1 H        0.926     0.037     2.486     2.466
    91   1 H        0.926     0.038     2.482     2.464
    92   1 H        0.926     0.048     2.343     2.393

molecular dipole:
                 x           y           z       tot (Debye)
 q only:        3.373       4.753       0.056
   full:        3.149       4.396       0.059      13.745

 projected vibrational frequencies (cm⁻¹)
eigval :       -0.00    -0.00     0.00     0.00     0.00     0.00
eigval :       12.71    16.29    19.78    24.59    40.44    41.93
eigval :       45.66    54.11    62.37    72.05    83.18    85.60
eigval :       88.67    93.13   108.74   136.49   136.56   137.79
eigval :      146.78   153.33   162.51   170.76   176.74   181.14
eigval :      184.84   190.25   206.19   214.24   223.23   228.05
eigval :      234.18   249.56   283.86   285.46   286.89   293.51
eigval :      296.00   303.97   315.34   322.53   326.73   331.53
eigval :      346.43   349.54   355.71   358.76   383.23   386.42
eigval :      394.10   402.20   402.93   406.17   412.31   415.12
eigval :      426.95   435.67   450.50   453.42   456.68   458.41
eigval :      463.22   478.03   483.81   496.40   499.10   500.90
eigval :      507.82   513.97   530.83   546.98   547.92   558.80
eigval :      559.84   571.85   574.08   575.09   583.14   584.12
eigval :      590.77   598.55   602.68   623.15   632.65   637.92
eigval :      644.67   667.06   670.84   683.19   687.80   693.00
eigval :      693.18   707.86   713.61   725.31   725.40   735.05
eigval :      738.42   763.90   775.61   776.53   782.25   782.71
eigval :      806.75   809.03   810.07   813.67   816.07   838.63
eigval :      839.98   842.27   850.52   882.79   885.03   887.36
eigval :      888.95   890.01   894.01   906.55   907.19   910.92
eigval :      912.11   917.48   920.16   920.35   920.92   936.23
eigval :      937.18   940.08   941.23   942.21   943.46   950.47
eigval :      966.37   967.87  1001.23  1007.46  1009.13  1009.19
eigval :     1044.37  1071.51  1072.32  1073.56  1079.09  1088.14
eigval :     1095.11  1098.46  1099.06  1105.76  1106.26  1135.57
eigval :     1136.11  1149.85  1150.76  1156.63  1161.99  1165.53
eigval :     1172.39  1173.49  1180.50  1180.81  1187.01  1187.11
eigval :     1190.61  1191.73  1198.77  1226.13  1227.00  1229.75
eigval :     1230.62  1253.04  1253.43  1255.89  1259.43  1265.59
eigval :     1266.64  1268.59  1271.68  1272.23  1280.70  1283.60
eigval :     1295.52  1300.81  1314.65  1315.40  1320.61  1322.39
eigval :     1324.80  1325.14  1327.13  1341.39  1360.84  1368.07
eigval :     1394.42  1395.87  1396.10  1413.11  1413.18  1418.36
eigval :     1425.49  1431.29  1433.23  1435.45  1435.95  1438.10
eigval :     1448.24  1449.44  1459.11  1469.37  1472.16  1475.96
eigval :     1478.52  1489.06  1489.85  1490.95  1491.26  1499.20
eigval :     1503.58  1504.29  1516.84  1518.66  1519.19  1535.03
eigval :     1542.22  1567.86  1571.11  1571.60  1577.08  1579.77
eigval :     1580.24  1584.16  1584.24  1594.14  1594.55  3026.34
eigval :     3026.56  3028.56  3028.70  3032.49  3032.99  3033.69
eigval :     3034.23  3047.03  3047.50  3049.68  3051.45  3078.26
eigval :     3078.81  3081.32  3082.78  3084.09  3085.18  3086.45
eigval :     3088.14  3089.60  3091.86  3093.19  3094.06  3094.43
eigval :     3097.00  3098.56  3100.04  3110.16  3111.18  3113.22
eigval :     3113.33  3113.42  3113.69  3113.97  3130.88  3140.65

   temp. (K)  partition function   enthalpy   heat capacity  entropy
                                   cal/mol     cal/K/mol   cal/K/mol   J/K/mol
 298.15  VIB  0.174E+19            26066.195    170.465    157.792
         ROT  0.121E+09              888.752      2.981     39.960
         INT  0.210E+27            26954.947    173.446    197.752
         TR   0.184E+29             1481.254      4.968     45.552
         TOT                       28436.2011   178.4138   243.3042  1017.9847

       T/K    H(0)-H(T)+PV         H(T)/Eh          T*S/Eh         G(T)/Eh
   ------------------------------------------------------------------------
    298.15    0.453160E-01    0.759974E+00    0.115602E+00    0.644372E+00
   ------------------------------------------------------------------------

         :::::::::::::::::::::::::::::::::::::::::::::::::::::
         ::                  THERMODYNAMIC                  ::
         :::::::::::::::::::::::::::::::::::::::::::::::::::::
         :: total free energy        -141.831689881687 Eh   ::
         ::.................................................::
         :: total energy             -142.476061828507 Eh   ::
         :: zero point energy           0.714657646308 Eh   ::
         :: G(RRHO) w/o ZPVE           -0.070285699487 Eh   ::
         :: G(RRHO) contrib.            0.644371946820 Eh   ::
         :::::::::::::::::::::::::::::::::::::::::::::::::::::

           -------------------------------------------------
          | TOTAL ENERGY             -142.476061828507 Eh   |
          | TOTAL ENTHALPY           -141.716088211316 Eh   |
          | TOTAL FREE ENERGY        -141.831689881687 Eh   |
          | GRADIENT NORM               0.000182630986 Eh/α |
          | HOMO-LUMO GAP               0.997521496470 eV   |
           -------------------------------------------------

 * finished run on 2025/09/09 at 11:22:41.085
