   * xtb version 6.7.1 (edcfbbe) compiled by 'albert@albert-system' on 2024-07-22

   ID    Z sym.   atoms
    1    6 C      1-9, 11-19, 21-39, 41, 42, 44-47, 49-55
    2    7 N      10, 20, 40, 48
    3    9 F      43
    4    1 H      56-92

          program call               : xtb data2507/toluene/2DMAC-BP-F/2DMAC-BP-F_toluene_T1_crest.xyz --gfn 2 --uhf 2 --gbsa toluene --ohess vtight --parallel 40 --molden --ceasefiles --namespace data2507/toluene/2DMAC-BP-F/2DMAC-BP-F_toluene_T1_finalOpt
      * Solvation model:               GBSA
        Solvent                        toluene
        Solvent mass                       9.2140E+01 g/mol
          :  Hamiltonian                  GFN2-xTB          :
 * total energy  :  -142.4837072 Eh     change        0.4421850E-08 Eh
 * total energy  :  -142.4838812 Eh     change       -0.1739887E-03 Eh
 * total energy  :  -142.4839652 Eh     change       -0.8405251E-04 Eh
 * total energy  :  -142.4839715 Eh     change       -0.6292353E-05 Eh
 * total energy  :  -142.4839757 Eh     change       -0.4200415E-05 Eh
 * total energy  :  -142.4839781 Eh     change       -0.2356789E-05 Eh
 * total energy  :  -142.4839847 Eh     change       -0.6627287E-05 Eh
 * total energy  :  -142.4839876 Eh     change       -0.2963365E-05 Eh
 * total energy  :  -142.4839902 Eh     change       -0.2532315E-05 Eh
 * total energy  :  -142.4839933 Eh     change       -0.3104450E-05 Eh
 * total energy  :  -142.4840718 Eh     change       -0.7449111E-06 Eh
 * total energy  :  -142.4840725 Eh     change       -0.7290344E-06 Eh
 * total energy  :  -142.4840733 Eh     change       -0.7265626E-06 Eh
 * total energy  :  -142.4840740 Eh     change       -0.7037280E-06 Eh
 * total energy  :  -142.4840746 Eh     change       -0.5911437E-06 Eh
 * total energy  :  -142.4840751 Eh     change       -0.4987403E-06 Eh
 * total energy  :  -142.4840755 Eh     change       -0.4530216E-06 Eh
 * total energy  :  -142.4840760 Eh     change       -0.4425060E-06 Eh
 * total energy  :  -142.4840760 Eh     change       -0.4005756E-08 Eh
   *** GEOMETRY OPTIMIZATION CONVERGED AFTER 68 ITERATIONS ***

 final structure:
================
92
 xtb: 6.7.1 (edcfbbe)
C            6.24266132103893        2.83430176641614        0.02563986483274
C            6.23823878057653        1.30935108183963       -0.19634303044947
C            7.67367050132667        0.80242845372542       -0.43529950895230
C            5.68671055133543        0.64128773854634        1.04732600000113
C            6.33141610494875        0.81581491077414        2.26453199784115
C            5.86660834813366        0.23571564611983        3.43084016419919
C            4.71980270649485       -0.54078161709694        3.39487273315155
C            4.05788307830661       -0.73046474559619        2.20154337710720
C            4.53150806505258       -0.15226778032252        1.01688175860111
N            3.84709199965847       -0.36421734554950       -0.16507871867672
C            2.68699704531560       -1.19217460852332       -0.15030064560113
C            2.82854222922146       -2.58566486767530       -0.22204208672940
C            1.70867306675148       -3.37209304967938       -0.20198841041308
C            0.42430006529572       -2.80769067556242       -0.11723986863852
C            0.27381453868764       -1.39979211153858       -0.05210302414671
C            1.43817451056901       -0.61780547535982       -0.06610266750040
C           -1.04848961535319       -0.83137568158756        0.02543991441724
C           -1.28252776196556        0.55101734164871        0.06957890770236
C           -2.56019718661951        1.05955393087198        0.14316701283246
N           -2.76306898856497        2.47023886896151        0.18216371441804
C           -3.03592694538039        3.13720850096434       -0.99728757125150
C           -3.04120138870399        2.42807662013368       -2.20519274004720
C           -3.31364355074237        3.06339965235911       -3.39697701530610
C           -3.58253208376305        4.42246726536412       -3.40754153808482
C           -3.57008916319295        5.12695243561696       -2.21745336583889
C           -3.29914933946273        4.51407770448465       -1.00146409509648
C           -3.29561619075058        5.33893831178823        0.27007447883333
C           -2.22846372034052        6.44292221658893        0.13854458444961
C           -4.69023099243790        5.96799915009650        0.45433788374205
C           -2.97897014249253        4.49683451406613        1.49005511239538
C           -2.93478840290287        5.09256196415683        2.74341547373507
C           -2.65900314776619        4.37022775565158        3.89011463170685
C           -2.42195849446591        3.00844189177268        3.79622560827841
C           -2.45980948614974        2.38962049363236        2.56583480357266
C           -2.73411743898394        3.11925251874740        1.40210113136992
C           -3.66961463204772        0.20210326690515        0.17729941676007
C           -3.46943972376604       -1.15099831547564        0.13126764238279
C           -2.17450725580621       -1.69162465958385        0.05375026107023
C           -2.01632537996311       -3.11142677725572       -0.00225819752548
N           -3.08403517104785       -3.90547097564734        0.02673741328077
C           -2.93462435767434       -5.23435349855520       -0.03528009862102
C           -4.01560679577307       -6.11777354059896       -0.01247843777140
F           -5.27846641391171       -5.60310466687961        0.07505762958592
C           -3.86243934850770       -7.48946792826032       -0.07713837714584
C           -2.58533407858562       -8.02357791708585       -0.16752392912977
C           -1.47722121253499       -7.19685801428970       -0.19471104799582
C           -1.61724678571412       -5.80905598050703       -0.13063395276386
N           -0.55621153905922       -4.99275562049963       -0.15679411715182
C           -0.71492350550945       -3.67239601210081       -0.09443909212707
C            4.26651782957747        0.18121191247882       -1.36388638435956
C            3.54824008572322       -0.09032972013374       -2.53538476659514
C            3.93753807376407        0.44501015984828       -3.74376613662074
C            5.05466550800520        1.26194517700944       -3.80777544338718
C            5.77165702265297        1.52395552848702       -2.65453589594162
C            5.40459859040196        0.99764439658819       -1.42327833410550
H            6.63916574537012        3.35017744093961       -0.84403905875806
H            5.22794274701396        3.18667438227560        0.20224716676008
H            6.85204433747864        3.09744662312298        0.88534100440600
H            8.30772916063973        1.01980399013992        0.41929006218051
H            7.66572205202970       -0.27476775093501       -0.59257695959668
H            8.10952073209983        1.27387338985283       -1.31130540696901
H            7.22273250256450        1.42225461732645        2.31087191882576
H            6.39357569718061        0.39067975529470        4.36006845518896
H            4.33866179322136       -0.99768695450311        4.29593435715318
H            3.16271387744145       -1.33220508743671        2.17812627973475
H            3.81507230787073       -3.01827565322984       -0.28932875285101
H            1.77779697674473       -4.44776810510705       -0.25223506189644
H            1.37821367268897        0.45752176719704       -0.01214112610623
H           -0.46056257198979        1.24857451518807        0.04462333140991
H           -2.83040024707611        1.36997627076748       -2.20055947870587
H           -3.31511450189164        2.49711069177623       -4.31636896806441
H           -3.79914752217171        4.93017679828653       -4.33514819268113
H           -3.77860972548072        6.18531959515506       -2.24335701910674
H           -2.43907372246990        7.08324500002546       -0.71305401913196
H           -2.20050914041028        7.06130135346116        1.03096750511539
H           -1.24601903350264        5.99561752197483       -0.00168644820794
H           -4.72117016343040        6.58415942016636        1.34824200560925
H           -5.44109240438528        5.18544700560761        0.54968867573829
H           -4.94923027511492        6.59007891900653       -0.39748598902994
H           -3.12184225197419        6.15136405700179        2.83438324557019
H           -2.63266016950439        4.86563011919481        4.84879680841342
H           -2.20866542724774        2.42677586752595        4.68062309448097
H           -2.27963347006886        1.32810210473761        2.49645393687112
H           -4.66369740488761        0.61833258482569        0.23662079768499
H           -4.29853608338155       -1.84188850908694        0.15250206333404
H           -4.73864233128168       -8.11776810570596       -0.05521363352231
H           -2.45824014746784       -9.09360731292460       -0.21788182136358
H           -0.48091426584513       -7.60448330312839       -0.26505453249369
H            2.68055152161336       -0.72998224474752       -2.49032428606457
H            3.36908242603672        0.22289826003077       -4.63456670969821
H            5.36834298478459        1.68773272530060       -4.74878010896497
H            6.64266997381089        2.15722534585674       -2.72257312956489

          :  Hamiltonian                  GFN2-xTB          :
         :: gradient norm              0.000045341375 Eh/a0 ::
         :: HOMO-LUMO gap              0.894357053802 eV    ::
         :: SCC energy              -144.972673729421 Eh    ::
         :: -> dispersion             -0.132306816806 Eh    ::
         :: -> Gsolv                  -0.061314426371 Eh    ::
         :: repulsion energy           2.488597771745 Eh    ::

    * Orbital Energies and Occupations

         #    Occupation            Energy/Eh            Energy/eV
      -------------------------------------------------------------
         1        2.0000           -0.8100258             -22.0419
       ...           ...                  ...                  ...
       121        2.0000           -0.4117837             -11.2052
       122        2.0000           -0.4115954             -11.2001
       123        2.0000           -0.4060379             -11.0489
       124        2.0000           -0.4058931             -11.0449
       125        2.0000           -0.4012582             -10.9188
       126        2.0000           -0.4002716             -10.8919
       127        2.0000           -0.4002361             -10.8910
       128        2.0000           -0.3943855             -10.7318
       129        2.0000           -0.3857228             -10.4961
       130        1.8674           -0.3561697              -9.6919
       131        1.8188           -0.3558185              -9.6823
       132        1.3139           -0.3536428              -9.6231
       133        1.0000           -0.3030540              -8.2465 (HOMO)
       134                         -0.2701869              -7.3522 (LUMO)
       135                         -0.2602210              -7.0810
       136                         -0.2334311              -6.3520
       137                         -0.2333963              -6.3510
       138                         -0.2270203              -6.1775
       139                         -0.2266845              -6.1684
       140                         -0.2263516              -6.1593
       141                         -0.2259770              -6.1491
       142                         -0.2255038              -6.1363
       143                         -0.2187314              -5.9520
       144                         -0.2030510              -5.5253
       ...                                ...                  ...
       257                          0.7035439              19.1444
      -------------------------------------------------------------
                  HL-Gap            0.0328671 Eh            0.8944 eV

     #   Z          covCN         q      C6AA      α(0)
     1   6 C        3.761    -0.106    22.566     6.772
     2   6 C        3.909     0.023    20.136     6.378
     3   6 C        3.761    -0.106    22.565     6.772
     4   6 C        2.978    -0.007    28.200     8.711
     5   6 C        2.926    -0.035    28.870     8.811
     6   6 C        2.917    -0.039    28.960     8.825
     7   6 C        2.918    -0.031    28.772     8.796
     8   6 C        2.923    -0.053    29.328     8.881
     9   6 C        2.929     0.060    26.661     8.468
    10   7 N        2.755    -0.045    22.114     6.984
    11   6 C        2.926     0.060    26.650     8.466
    12   6 C        2.916    -0.042    29.034     8.836
    13   6 C        2.923    -0.028    28.702     8.786
    14   6 C        2.987    -0.011    28.279     8.723
    15   6 C        2.976    -0.000    28.035     8.685
    16   6 C        2.922    -0.044    29.094     8.845
    17   6 C        2.976    -0.001    28.041     8.686
    18   6 C        2.922    -0.044    29.100     8.846
    19   6 C        2.926     0.060    26.645     8.465
    20   7 N        2.755    -0.046    22.124     6.986
    21   6 C        2.929     0.060    26.659     8.468
    22   6 C        2.923    -0.053    29.325     8.880
    23   6 C        2.918    -0.031    28.772     8.796
    24   6 C        2.917    -0.039    28.959     8.825
    25   6 C        2.926    -0.035    28.870     8.812
    26   6 C        2.978    -0.007    28.200     8.711
    27   6 C        3.909     0.023    20.136     6.378
    28   6 C        3.761    -0.106    22.571     6.773
    29   6 C        3.761    -0.105    22.562     6.771
    30   6 C        2.978    -0.007    28.201     8.711
    31   6 C        2.926    -0.035    28.870     8.811
    32   6 C        2.917    -0.039    28.961     8.825
    33   6 C        2.918    -0.031    28.772     8.796
    34   6 C        2.923    -0.054    29.331     8.881
    35   6 C        2.928     0.060    26.660     8.468
    36   6 C        2.916    -0.041    29.031     8.835
    37   6 C        2.923    -0.027    28.688     8.784
    38   6 C        2.987    -0.011    28.281     8.723
    39   6 C        2.946     0.081    26.191     8.394
    40   7 N        1.846    -0.260    27.610     7.787
    41   6 C        2.943     0.072    26.383     8.424
    42   6 C        2.782     0.129    25.168     8.217
    43   9 F        0.786    -0.257    11.845     4.065
    44   6 C        2.913    -0.062    29.554     8.914
    45   6 C        2.919    -0.040    29.005     8.832
    46   6 C        2.917    -0.068    29.692     8.936
    47   6 C        2.945     0.082    26.174     8.391
    48   7 N        1.848    -0.260    27.615     7.788
    49   6 C        2.943     0.080    26.226     8.399
    50   6 C        2.928     0.060    26.663     8.468
    51   6 C        2.923    -0.054    29.332     8.882
    52   6 C        2.918    -0.031    28.772     8.796
    53   6 C        2.917    -0.039    28.961     8.825
    54   6 C        2.926    -0.035    28.870     8.812
    55   6 C        2.978    -0.008    28.201     8.711
    56   1 H        0.925     0.047     2.359     2.402
    57   1 H        0.925     0.034     2.533     2.489
    58   1 H        0.925     0.047     2.360     2.403
    59   1 H        0.925     0.047     2.362     2.403
    60   1 H        0.925     0.033     2.539     2.492
    61   1 H        0.925     0.047     2.361     2.403
    62   1 H        0.926     0.042     2.425     2.435
    63   1 H        0.926     0.035     2.517     2.481
    64   1 H        0.926     0.034     2.530     2.487
    65   1 H        0.926     0.032     2.558     2.501
    66   1 H        0.926     0.047     2.360     2.402
    67   1 H        0.926     0.055     2.255     2.349
    68   1 H        0.926     0.049     2.337     2.391
    69   1 H        0.926     0.049     2.328     2.386
    70   1 H        0.926     0.031     2.568     2.506
    71   1 H        0.926     0.034     2.531     2.488
    72   1 H        0.926     0.035     2.513     2.479
    73   1 H        0.926     0.042     2.421     2.433
    74   1 H        0.925     0.047     2.357     2.401
    75   1 H        0.925     0.047     2.357     2.401
    76   1 H        0.925     0.034     2.529     2.487
    77   1 H        0.925     0.047     2.360     2.402
    78   1 H        0.925     0.033     2.545     2.495
    79   1 H        0.925     0.047     2.360     2.403
    80   1 H        0.926     0.042     2.422     2.434
    81   1 H        0.926     0.035     2.513     2.479
    82   1 H        0.926     0.034     2.529     2.487
    83   1 H        0.926     0.031     2.566     2.505
    84   1 H        0.926     0.045     2.381     2.413
    85   1 H        0.926     0.053     2.285     2.364
    86   1 H        0.926     0.051     2.312     2.378
    87   1 H        0.926     0.047     2.352     2.398
    88   1 H        0.926     0.050     2.321     2.382
    89   1 H        0.926     0.032     2.561     2.502
    90   1 H        0.926     0.034     2.529     2.487
    91   1 H        0.926     0.035     2.516     2.481
    92   1 H        0.926     0.042     2.425     2.435

molecular dipole:
                 x           y           z       tot (Debye)
 q only:        3.082       4.458      -0.004
   full:        2.891       4.139      -0.006      12.833

 projected vibrational frequencies (cm⁻¹)
eigval :       -0.00    -0.00    -0.00    -0.00     0.00     0.00
eigval :        4.72     7.19    16.84    17.64    21.96    24.01
eigval :       37.01    42.37    50.99    65.25    80.77    83.43
eigval :       91.23    95.59   100.91   102.39   103.96   128.85
eigval :      135.13   141.02   143.39   148.96   150.47   172.87
eigval :      192.74   202.95   207.68   219.08   219.62   220.48
eigval :      228.45   233.35   240.87   245.45   254.08   269.07
eigval :      301.89   304.32   317.02   328.11   328.22   332.89
eigval :      343.15   344.50   345.72   349.66   364.89   376.26
eigval :      380.51   382.88   387.81   408.82   410.56   411.92
eigval :      429.90   434.92   442.82   450.05   450.41   459.18
eigval :      461.11   486.58   501.93   505.50   510.06   510.15
eigval :      511.36   529.74   531.25   535.18   542.70   545.23
eigval :      545.46   548.66   574.83   583.35   584.30   585.46
eigval :      588.36   606.23   627.26   633.82   641.93   652.12
eigval :      652.99   677.95   684.21   686.09   686.30   688.54
eigval :      689.07   698.36   698.73   710.69   723.70   734.12
eigval :      742.39   774.94   775.45   776.60   776.96   776.97
eigval :      808.11   816.87   817.96   827.20   827.88   840.30
eigval :      849.61   855.13   868.23   868.65   869.90   870.07
eigval :      870.61   894.32   895.30   914.08   914.23   914.68
eigval :      915.22   915.66   916.29   916.57   918.53   922.28
eigval :      922.98   923.15   923.22   936.51   937.40   950.92
eigval :      956.38   958.23   995.80  1010.37  1013.14  1013.15
eigval :     1038.08  1075.06  1075.12  1075.38  1083.70  1089.56
eigval :     1095.54  1107.07  1108.51  1113.79  1115.08  1137.97
eigval :     1138.38  1139.64  1142.39  1152.48  1152.67  1160.74
eigval :     1164.05  1164.61  1182.58  1184.59  1184.70  1185.01
eigval :     1187.30  1188.08  1200.57  1218.08  1221.90  1238.01
eigval :     1238.19  1243.12  1245.91  1248.42  1257.29  1259.88
eigval :     1262.59  1279.50  1282.45  1292.32  1292.75  1296.38
eigval :     1299.24  1309.69  1312.20  1320.25  1320.61  1326.69
eigval :     1328.92  1329.10  1332.40  1332.77  1345.77  1358.79
eigval :     1396.83  1398.12  1398.36  1401.81  1416.55  1416.87
eigval :     1418.45  1428.11  1428.33  1429.89  1431.75  1433.08
eigval :     1455.17  1460.60  1461.08  1468.01  1474.31  1480.76
eigval :     1483.68  1484.08  1484.88  1485.69  1486.59  1494.50
eigval :     1494.57  1500.54  1500.80  1506.95  1527.37  1534.49
eigval :     1549.50  1560.60  1560.67  1565.74  1571.54  1576.21
eigval :     1579.28  1581.45  1581.56  1591.84  1592.89  3023.02
eigval :     3024.21  3026.39  3026.92  3044.23  3044.29  3045.52
eigval :     3046.24  3051.72  3051.82  3054.78  3055.54  3078.57
eigval :     3079.12  3079.30  3079.48  3085.61  3086.31  3086.36
eigval :     3086.71  3088.34  3088.64  3091.38  3095.93  3096.10
eigval :     3096.26  3096.43  3098.94  3099.73  3100.07  3102.25
eigval :     3102.67  3102.79  3103.13  3103.57  3109.28  3110.39

   temp. (K)  partition function   enthalpy   heat capacity  entropy
                                   cal/mol     cal/K/mol   cal/K/mol   J/K/mol
 298.15  VIB  0.330E+21            26567.412    169.674    164.261
         ROT  0.129E+09              888.752      2.981     40.100
         INT  0.427E+29            27456.165    172.655    204.361
         TR   0.184E+29             1481.254      4.968     45.552
         TOT                       28937.4185   177.6233   249.9126  1045.6342

       T/K    H(0)-H(T)+PV         H(T)/Eh          T*S/Eh         G(T)/Eh
   ------------------------------------------------------------------------
    298.15    0.461147E-01    0.759236E+00    0.118742E+00    0.640495E+00
   ------------------------------------------------------------------------

         :::::::::::::::::::::::::::::::::::::::::::::::::::::
         ::                  THERMODYNAMIC                  ::
         :::::::::::::::::::::::::::::::::::::::::::::::::::::
         :: total free energy        -141.843581094619 Eh   ::
         ::.................................................::
         :: total energy             -142.484075947322 Eh   ::
         :: zero point energy           0.713121671687 Eh   ::
         :: G(RRHO) w/o ZPVE           -0.072626818984 Eh   ::
         :: G(RRHO) contrib.            0.640494852703 Eh   ::
         :::::::::::::::::::::::::::::::::::::::::::::::::::::

           -------------------------------------------------
          | TOTAL ENERGY             -142.484075947322 Eh   |
          | TOTAL ENTHALPY           -141.724839564000 Eh   |
          | TOTAL FREE ENERGY        -141.843581094619 Eh   |
          | GRADIENT NORM               0.000045967413 Eh/α |
          | HOMO-LUMO GAP               0.894359763660 eV   |
           -------------------------------------------------

 * finished run on 2025/09/09 at 11:30:33.665
