   * xtb version 6.7.1 (edcfbbe) compiled by 'albert@albert-system' on 2024-07-22

   ID    Z sym.   atoms
    1    6 C      1-9, 11-19, 21-39, 41, 42, 44-47, 49-55
    2    7 N      10, 20, 40, 48
    3    9 F      43
    4    1 H      56-92

          program call               : xtb data2507/toluene/2DMAC-BP-F/2DMAC-BP-F.xyz --gfn 2 --gbsa toluene --ohess vtight --parallel 40 --molden --ceasefiles --namespace data2507/toluene/2DMAC-BP-F/2DMAC-BP-F_toluene_S0_preOpt
      * Solvation model:               GBSA
        Solvent                        toluene
        Solvent mass                       9.2140E+01 g/mol
          :  Hamiltonian                  GFN2-xTB          :
 * total energy  :  -142.4931184 Eh     change       -0.2644612E-08 Eh
 * total energy  :  -142.5170148 Eh     change       -0.2389641E-01 Eh
 * total energy  :  -142.5252961 Eh     change       -0.8281278E-02 Eh
 * total energy  :  -142.5268958 Eh     change       -0.1599713E-02 Eh
 * total energy  :  -142.5276624 Eh     change       -0.7666116E-03 Eh
 * total energy  :  -142.5278549 Eh     change       -0.1925295E-03 Eh
 * total energy  :  -142.5278911 Eh     change       -0.3614757E-04 Eh
 * total energy  :  -142.5279059 Eh     change       -0.1477269E-04 Eh
 * total energy  :  -142.5279137 Eh     change       -0.7816371E-05 Eh
 * total energy  :  -142.5279214 Eh     change       -0.7773150E-05 Eh
 * total energy  :  -142.5279591 Eh     change       -0.2445674E-05 Eh
 * total energy  :  -142.5279614 Eh     change       -0.2258118E-05 Eh
 * total energy  :  -142.5279634 Eh     change       -0.2077835E-05 Eh
 * total energy  :  -142.5279654 Eh     change       -0.1990058E-05 Eh
 * total energy  :  -142.5279674 Eh     change       -0.1910584E-05 Eh
 * total energy  :  -142.5279691 Eh     change       -0.1767783E-05 Eh
 * total energy  :  -142.5279706 Eh     change       -0.1516901E-05 Eh
 * total energy  :  -142.5279718 Eh     change       -0.1214002E-05 Eh
 * total energy  :  -142.5279719 Eh     change       -0.5118665E-08 Eh
   *** GEOMETRY OPTIMIZATION CONVERGED AFTER 44 ITERATIONS ***

 final structure:
================
92
 xtb: 6.7.1 (edcfbbe)
C            6.72790196481159        3.04673794437819        0.00033424234082
C            5.18844382282250        3.00425086262533       -0.00018453187014
C            4.61768611632413        4.43505885759169       -0.00073728397714
C            4.72065494973359        2.29450705721723       -1.25764485741720
C            5.07007186257466        2.80296445269910       -2.50142699901669
C            4.67154023295895        2.20067536838090       -3.68109496960949
C            3.89662783323669        1.05604537592916       -3.62799480666610
C            3.53531114159876        0.52853832810645       -2.40570951939318
C            3.94026718305607        1.13429645470849       -1.21258463196056
N            3.55919028958669        0.57999731263200       -0.00013396037645
C            2.83691933018674       -0.64577019496870       -0.00006582981993
C            3.53094202748759       -1.85691224253734       -0.00003561565728
C            2.82529523666067       -3.03603164404354        0.00023019554743
C            1.42663378789449       -3.03448154532400        0.00043123419602
C            0.71420607082564       -1.81802342928407        0.00022714632260
C            1.45395320468025       -0.63103846750159        0.00002720203442
C           -0.74297355310054       -1.82771000541188        0.00023926075501
C           -1.49888983227701       -0.65137277495596       -0.00021974921899
C           -2.88162206790242       -0.68469929852630       -0.00016335288334
N           -3.61478192995290        0.53453432212893       -0.00057382614080
C           -3.97860241229464        1.10038373849768        1.21166994659253
C           -3.59841804228213        0.47916756757515        2.40494471231192
C           -3.94309458262370        1.01806494604772        3.62704206040266
C           -4.67403422873927        2.19126127930942        3.67987447959793
C           -5.04952384655110        2.80780661893455        2.50003386605594
C           -4.71752890715548        2.28748362142987        1.25639232026130
C           -5.15755282715093        3.01442438061947       -0.00135362129522
C           -6.69418807185414        3.11782182286033       -0.00166595676301
C           -4.53067182694516        4.42163636317862       -0.00149257229593
C           -4.71699180327143        2.28702020415419       -1.25864942517036
C           -5.04848854115654        2.80686966353776       -2.50262046514350
C           -4.67262057716589        2.18981818640895       -3.68207623250622
C           -3.94184471068695        1.01655427565769       -3.62850274938998
C           -3.59765327051140        0.47812192077805       -2.40606426507856
C           -3.97815104130661        1.09989044192738       -1.21317782701066
C           -3.55969150940547       -1.90488786585620        0.00034200298438
C           -2.83799645374692       -3.07451862748852        0.00076824761526
C           -1.43935134159161       -3.05351288139580        0.00071817651998
C           -0.71193088401877       -4.30246152057775        0.00118176567970
N           -1.38663717991157       -5.43648700197666        0.00182114763866
C           -0.69187946005933       -6.58150826390748        0.00226165764274
C           -1.34604141828760       -7.83507876117007        0.00297244270222
F           -2.69745646890161       -7.86337770595622        0.00318683583445
C           -0.64781799220354       -9.00836190816817        0.00343582448186
C            0.75856926639697       -8.98483853777826        0.00319900263947
C            1.44256220636120       -7.80257057503471        0.00251280574481
C            0.73707822343175       -6.58012128018835        0.00203008605875
N            1.40747846730926       -5.41932423281198        0.00138288338673
C            0.71727129786209       -4.29465725614123        0.00097473214582
C            3.93961881779308        1.13477681168748        1.21230285499977
C            3.53419262927410        0.52939286050215        2.40545957977505
C            3.89476104787271        1.05746642935053        3.62772156339886
C            4.66937431682175        2.20230070182227        3.68077266451721
C            5.06846706691627        2.80415478215036        2.50107186286701
C            4.71984769439521        2.29509795233336        1.25731050782941
H            7.10184421579414        3.56237255762826       -0.87973284429470
H            7.10121878958240        3.56291870039950        0.88034771195261
H            7.12753519965170        2.03396869825473        0.00079149019658
H            3.52937632115188        4.40068952801526       -0.00119609084547
H            4.94317868828141        4.98207374683927        0.87978622573648
H            4.94393451366917        4.98168908532791       -0.88122088280065
H            5.67246035370897        3.69696312493844       -2.55881631387061
H            4.96321966203744        2.62308046343946       -4.63100062479851
H            3.57218297163539        0.57005242264148       -4.53660191354754
H            2.93242526824680       -0.36618677381513       -2.37152093018705
H            4.61028663964870       -1.85314552230560       -0.00016364193103
H            3.32900361284581       -3.98956205081836        0.00036652035570
H            0.96292173375694        0.32857286579680       -0.00002218773229
H           -1.02154735115121        0.31513815938442       -0.00063195706697
H           -3.02884570190618       -0.43712024367892        2.37097016386794
H           -3.63876928704054        0.51923346397121        4.53564567262053
H           -4.95079163505432        2.62376542290731        4.62968805189867
H           -5.61832506410877        3.72353825909025        2.55711121224035
H           -7.04724735242413        3.64851733825893        0.87806298382362
H           -7.04685689630563        3.64804429323944       -0.88182444871409
H           -7.13381352567018        2.12175108243697       -0.00150520924259
H           -4.83437083148609        4.98067634195532       -0.88228826574122
H           -3.44456737562595        4.34448819431439       -0.00120798885659
H           -4.83480261149182        4.98101194217978        0.87893672239077
H           -5.61721372333815        3.72261154129014       -2.56027509850381
H           -4.94897987751590        2.62197548206422       -4.63216248804480
H           -3.63726027085732        0.51731535864600       -4.53679524404361
H           -3.02820332025463       -0.43821961505877       -2.37151291698030
H           -4.63896890821417       -1.91629672036262        0.00034880264038
H           -3.32958200059737       -4.03479036769479        0.00107785775989
H           -1.18261712469353       -9.94520075036243        0.00397348069550
H            1.29170038860837       -9.92267527528091        0.00358305809766
H            2.52034553055852       -7.76627806335294        0.00233034129372
H            2.93154938920027       -0.36549847440085        2.37132471542852
H            3.56999160431237        0.57173620314880        4.53635354498864
H            4.96045102699159        2.62515829332711        4.63066197537827
H            5.67070864023323        3.69825540348139        2.55841625361688

          :  Hamiltonian                  GFN2-xTB          :
         :: gradient norm              0.000057702262 Eh/a0 ::
         :: HOMO-LUMO gap              0.755103090751 eV    ::
         :: SCC energy              -145.018301091103 Eh    ::
         :: -> dispersion             -0.132467985846 Eh    ::
         :: -> Gsolv                  -0.055547874165 Eh    ::
         :: repulsion energy           2.490329237167 Eh    ::

    * Orbital Energies and Occupations

         #    Occupation            Energy/Eh            Energy/eV
      -------------------------------------------------------------
         1        2.0000           -0.8298026             -22.5801
       ...           ...                  ...                  ...
       120        2.0000           -0.4068220             -11.0702
       121        2.0000           -0.4066175             -11.0646
       122        2.0000           -0.4050688             -11.0225
       123        2.0000           -0.4044615             -11.0060
       124        2.0000           -0.4031468             -10.9702
       125        2.0000           -0.4025571             -10.9541
       126        2.0000           -0.3976097             -10.8195
       127        2.0000           -0.3975296             -10.8173
       128        2.0000           -0.3922676             -10.6741
       129        2.0000           -0.3922189             -10.6728
       130        2.0000           -0.3686478             -10.0314
       131        2.0000           -0.3468450              -9.4381
       132        2.0000           -0.3465059              -9.4289 (HOMO)
       133        0.0000           -0.3187564              -8.6738 (LUMO)
       134                         -0.2837107              -7.7202
       135                         -0.2702064              -7.3527
       136                         -0.2408690              -6.5544
       137                         -0.2359955              -6.4218
       138                         -0.2239350              -6.0936
       139                         -0.2238914              -6.0924
       140                         -0.2201271              -5.9900
       141                         -0.2188868              -5.9562
       142                         -0.2188310              -5.9547
       143                         -0.2182785              -5.9397
       ...                                ...                  ...
       257                          0.6966525              18.9569
      -------------------------------------------------------------
                  HL-Gap            0.0277495 Eh            0.7551 eV

     #   Z          covCN         q      C6AA      α(0)
     1   6 C        3.761    -0.104    22.525     6.766
     2   6 C        3.908     0.021    20.164     6.383
     3   6 C        3.761    -0.103    22.521     6.765
     4   6 C        2.978    -0.014    28.354     8.735
     5   6 C        2.928    -0.037    28.928     8.820
     6   6 C        2.917    -0.046    29.150     8.854
     7   6 C        2.919    -0.035    28.862     8.810
     8   6 C        2.924    -0.060    29.500     8.907
     9   6 C        2.928     0.058    26.698     8.474
    10   7 N        2.755    -0.075    22.690     7.075
    11   6 C        2.925     0.077    26.292     8.409
    12   6 C        2.918    -0.035    28.869     8.811
    13   6 C        2.923    -0.025    28.633     8.775
    14   6 C        2.987    -0.005    28.140     8.702
    15   6 C        2.976     0.010    27.778     8.645
    16   6 C        2.924    -0.042    29.041     8.837
    17   6 C        2.976     0.010    27.785     8.646
    18   6 C        2.924    -0.042    29.044     8.838
    19   6 C        2.925     0.076    26.292     8.409
    20   7 N        2.755    -0.075    22.689     7.075
    21   6 C        2.928     0.058    26.697     8.473
    22   6 C        2.924    -0.060    29.499     8.907
    23   6 C        2.919    -0.035    28.862     8.810
    24   6 C        2.917    -0.046    29.151     8.854
    25   6 C        2.928    -0.037    28.928     8.821
    26   6 C        2.978    -0.014    28.355     8.735
    27   6 C        3.908     0.021    20.164     6.383
    28   6 C        3.761    -0.104    22.526     6.766
    29   6 C        3.761    -0.103    22.521     6.765
    30   6 C        2.978    -0.014    28.355     8.735
    31   6 C        2.928    -0.037    28.928     8.821
    32   6 C        2.917    -0.046    29.151     8.854
    33   6 C        2.919    -0.035    28.862     8.810
    34   6 C        2.924    -0.060    29.499     8.907
    35   6 C        2.928     0.058    26.697     8.473
    36   6 C        2.918    -0.035    28.869     8.811
    37   6 C        2.923    -0.025    28.624     8.774
    38   6 C        2.987    -0.005    28.141     8.702
    39   6 C        2.962     0.088    26.047     8.371
    40   7 N        1.846    -0.244    27.210     7.731
    41   6 C        2.964     0.070    26.431     8.433
    42   6 C        2.778     0.153    24.661     8.134
    43   9 F        0.786    -0.226    11.511     4.008
    44   6 C        2.914    -0.049    29.215     8.863
    45   6 C        2.919    -0.025    28.631     8.775
    46   6 C        2.915    -0.047    29.158     8.855
    47   6 C        2.965     0.080    26.223     8.400
    48   7 N        1.849    -0.242    27.176     7.726
    49   6 C        2.958     0.086    26.077     8.376
    50   6 C        2.928     0.058    26.698     8.474
    51   6 C        2.924    -0.060    29.500     8.907
    52   6 C        2.919    -0.035    28.862     8.810
    53   6 C        2.917    -0.046    29.150     8.854
    54   6 C        2.928    -0.037    28.928     8.820
    55   6 C        2.978    -0.014    28.354     8.735
    56   1 H        0.925     0.042     2.428     2.437
    57   1 H        0.925     0.042     2.428     2.437
    58   1 H        0.925     0.030     2.583     2.513
    59   1 H        0.925     0.030     2.589     2.516
    60   1 H        0.925     0.042     2.429     2.437
    61   1 H        0.925     0.042     2.429     2.437
    62   1 H        0.926     0.033     2.549     2.497
    63   1 H        0.926     0.026     2.649     2.545
    64   1 H        0.926     0.026     2.641     2.541
    65   1 H        0.926     0.022     2.704     2.571
    66   1 H        0.926     0.055     2.254     2.348
    67   1 H        0.926     0.070     2.088     2.260
    68   1 H        0.926     0.056     2.243     2.342
    69   1 H        0.926     0.056     2.242     2.342
    70   1 H        0.926     0.022     2.710     2.575
    71   1 H        0.926     0.026     2.641     2.541
    72   1 H        0.926     0.026     2.647     2.544
    73   1 H        0.926     0.033     2.546     2.495
    74   1 H        0.925     0.042     2.427     2.436
    75   1 H        0.925     0.042     2.427     2.436
    76   1 H        0.925     0.030     2.586     2.515
    77   1 H        0.925     0.042     2.427     2.436
    78   1 H        0.925     0.030     2.588     2.516
    79   1 H        0.925     0.042     2.427     2.436
    80   1 H        0.926     0.033     2.546     2.495
    81   1 H        0.926     0.026     2.647     2.544
    82   1 H        0.926     0.026     2.641     2.541
    83   1 H        0.926     0.022     2.710     2.575
    84   1 H        0.926     0.055     2.263     2.352
    85   1 H        0.926     0.067     2.116     2.275
    86   1 H        0.926     0.074     2.042     2.235
    87   1 H        0.926     0.071     2.076     2.253
    88   1 H        0.926     0.072     2.061     2.245
    89   1 H        0.926     0.022     2.704     2.571
    90   1 H        0.926     0.026     2.641     2.541
    91   1 H        0.926     0.026     2.649     2.545
    92   1 H        0.926     0.033     2.549     2.497

molecular dipole:
                 x           y           z       tot (Debye)
 q only:        1.050       0.276      -0.000
   full:        1.001       0.074      -0.000       2.552

 projected vibrational frequencies (cm⁻¹)
eigval :       -0.00    -0.00    -0.00    -0.00     0.00     0.00
eigval :      -20.01   -13.59     3.37    10.45    18.55    23.46
eigval :       32.04    37.48    46.46    62.36    74.93    81.67
eigval :       82.81    92.07    93.98   101.75   104.47   113.25
eigval :      121.94   128.22   134.52   140.12   151.44   177.77
eigval :      179.18   186.87   193.60   216.26   218.98   221.67
eigval :      228.94   233.39   239.17   240.32   253.06   265.10
eigval :      303.40   305.57   316.14   329.55   330.64   331.30
eigval :      342.08   346.63   347.05   363.71   364.52   374.14
eigval :      380.26   382.23   386.67   408.28   409.92   414.36
eigval :      432.97   434.35   445.83   445.90   450.58   452.00
eigval :      463.29   485.66   495.37   500.66   510.11   511.01
eigval :      515.96   527.64   538.44   544.99   547.31   547.83
eigval :      549.66   559.69   578.34   584.23   585.17   586.65
eigval :      597.29   610.85   628.19   645.76   653.33   661.62
eigval :      667.36   678.83   682.56   683.65   689.82   693.55
eigval :      700.02   701.96   713.30   729.30   739.53   746.65
eigval :      766.60   776.94   777.36   778.23   778.58   804.70
eigval :      809.58   819.49   820.31   831.65   831.96   847.66
eigval :      863.33   864.79   865.54   868.44   869.26   876.49
eigval :      889.78   903.95   912.12   912.89   914.48   915.26
eigval :      916.01   916.56   920.40   920.51   922.01   922.69
eigval :      922.70   926.05   927.86   936.61   937.59   955.21
eigval :      956.39   961.40  1000.03  1011.31  1011.97  1029.47
eigval :     1048.36  1075.40  1075.89  1076.54  1084.42  1090.44
eigval :     1095.44  1111.08  1111.39  1117.43  1117.98  1139.20
eigval :     1139.28  1141.08  1144.12  1157.93  1158.01  1160.29
eigval :     1168.35  1168.91  1185.16  1185.35  1185.77  1186.37
eigval :     1189.59  1190.49  1207.54  1222.21  1224.48  1241.04
eigval :     1242.39  1247.20  1247.38  1255.40  1265.65  1266.06
eigval :     1274.47  1275.99  1292.68  1292.96  1304.71  1308.97
eigval :     1311.86  1314.67  1323.63  1323.73  1325.40  1332.74
eigval :     1332.86  1338.47  1338.62  1343.91  1371.16  1394.36
eigval :     1396.03  1398.03  1398.52  1417.32  1418.03  1430.75
eigval :     1435.52  1436.43  1440.45  1440.49  1444.57  1451.75
eigval :     1476.95  1477.30  1479.85  1485.29  1485.31  1486.02
eigval :     1487.59  1488.08  1494.87  1495.20  1495.75  1496.70
eigval :     1501.70  1502.35  1502.42  1528.03  1543.69  1551.71
eigval :     1573.79  1573.89  1576.62  1586.22  1589.55  1590.38
eigval :     1590.48  1590.77  1600.49  1600.74  1603.29  3020.29
eigval :     3020.70  3022.77  3023.18  3038.28  3038.76  3040.37
eigval :     3040.54  3046.75  3047.19  3050.93  3050.98  3071.71
eigval :     3071.78  3071.85  3071.92  3078.54  3078.60  3078.74
eigval :     3078.81  3088.51  3088.60  3089.41  3089.74  3094.80
eigval :     3095.26  3095.44  3096.40  3096.82  3097.43  3098.08
eigval :     3107.32  3107.67  3110.96  3112.93  3113.54  3117.46

   temp. (K)  partition function   enthalpy   heat capacity  entropy
                                   cal/mol     cal/K/mol   cal/K/mol   J/K/mol
 298.15  VIB  0.104E+21            26070.136    167.372    161.307
         ROT  0.129E+09              888.752      2.981     40.097
         INT  0.135E+29            26958.889    170.353    201.404
         TR   0.184E+29             1481.254      4.968     45.552
         TOT                       28440.1425   175.3211   246.9559  1033.2635

       T/K    H(0)-H(T)+PV         H(T)/Eh          T*S/Eh         G(T)/Eh
   ------------------------------------------------------------------------
    298.15    0.453223E-01    0.760443E+00    0.117337E+00    0.643107E+00
   ------------------------------------------------------------------------

         :::::::::::::::::::::::::::::::::::::::::::::::::::::
         ::                  THERMODYNAMIC                  ::
         :::::::::::::::::::::::::::::::::::::::::::::::::::::
         :: total free energy        -141.884865244872 Eh   ::
         ::.................................................::
         :: total energy             -142.527971859954 Eh   ::
         :: zero point energy           0.715121086300 Eh   ::
         :: G(RRHO) w/o ZPVE           -0.072014471217 Eh   ::
         :: G(RRHO) contrib.            0.643106615082 Eh   ::
         :::::::::::::::::::::::::::::::::::::::::::::::::::::

           -------------------------------------------------
          | TOTAL ENERGY             -142.527971859954 Eh   |
          | TOTAL ENTHALPY           -141.767528521655 Eh   |
          | TOTAL FREE ENERGY        -141.884865244872 Eh   |
          | GRADIENT NORM               0.000057680990 Eh/α |
          | HOMO-LUMO GAP               0.755102523121 eV   |
           -------------------------------------------------

 * finished run on 2025/09/09 at 11:11:17.206
