   * xtb version 6.7.1 (edcfbbe) compiled by 'albert@albert-system' on 2024-07-22

   ID    Z sym.   atoms
    1    8 O      1
    2    6 C      2-34, 36-49, 51-56
    3    7 N      35, 50
    4    1 H      57-94

          program call               : xtb data2507/gas/HITPE/HITPE.xyz --gfn 2 --ohess vtight --parallel 40 --molden --ceasefiles --namespace data2507/gas/HITPE/HITPE_gas_S0_preOpt
          :  Hamiltonian                  GFN2-xTB          :
 * total energy  :  -142.7361225 Eh     change       -0.2286896E-08 Eh
 * total energy  :  -142.7491112 Eh     change       -0.1298869E-01 Eh
 * total energy  :  -142.7526221 Eh     change       -0.3510896E-02 Eh
 * total energy  :  -142.7538606 Eh     change       -0.1238488E-02 Eh
 * total energy  :  -142.7546722 Eh     change       -0.8116692E-03 Eh
 * total energy  :  -142.7552423 Eh     change       -0.5700508E-03 Eh
 * total energy  :  -142.7558872 Eh     change       -0.6448621E-03 Eh
 * total energy  :  -142.7567156 Eh     change       -0.8284374E-03 Eh
 * total energy  :  -142.7576858 Eh     change       -0.9702178E-03 Eh
 * total energy  :  -142.7586856 Eh     change       -0.9998151E-03 Eh
 * total energy  :  -142.7691538 Eh     change       -0.2062589E-06 Eh
 * total energy  :  -142.7691540 Eh     change       -0.1426273E-06 Eh
 * total energy  :  -142.7691541 Eh     change       -0.1554731E-06 Eh
 * total energy  :  -142.7691543 Eh     change       -0.1457803E-06 Eh
 * total energy  :  -142.7691544 Eh     change       -0.1247998E-06 Eh
 * total energy  :  -142.7691546 Eh     change       -0.1571539E-06 Eh
 * total energy  :  -142.7691547 Eh     change       -0.1857671E-06 Eh
 * total energy  :  -142.7691549 Eh     change       -0.1487104E-06 Eh
 * total energy  :  -142.7691550 Eh     change       -0.9549836E-07 Eh
   *** GEOMETRY OPTIMIZATION CONVERGED AFTER 165 ITERATIONS ***

 final structure:
================
94
 xtb: 6.7.1 (edcfbbe)
O           -4.03047259876470        2.03131061824827        2.83270298473117
C           -2.76530052002819        1.83363314583522        2.36730394774529
C           -1.67442796380202        2.47691850505407        2.93547634659383
C           -0.39180496394085        2.22187417749393        2.49150645605035
C           -0.16325328705598        1.30483587905777        1.46828082764274
C            1.19963370236862        1.01424299316086        1.00472292045222
C            2.25462148964026        0.90838990510122        1.90961908023852
C            3.53284246010039        0.62394538968475        1.47725668025834
C            3.80111629775769        0.44221103538135        0.12151927246165
C            5.16346066793323        0.15787031509560       -0.35484973800734
C            5.96025297755012       -0.76036016464054        0.23647927887622
C            7.38351572081061       -0.90968336358254       -0.10938474539585
C            8.21753088207703        0.20151863920852       -0.21771263535998
C            9.55637574525728        0.04599955864631       -0.52107384531381
C           10.08480434585789       -1.21900832466446       -0.72028834103527
C            9.26719741122826       -2.33063542480151       -0.60247600323572
C            7.92901388611961       -2.17899457863776       -0.29209558660066
C            5.46699739445540       -1.68389082721486        1.27171857043687
C            4.25966219303849       -2.36216594844459        1.11469323460453
C            3.81789879855061       -3.24094056939078        2.08489848808850
C            4.57390152846145       -3.45958658835384        3.22501489716606
C            5.78203226112796       -2.80148386439301        3.38421836844612
C            6.22934915114842       -1.92567350007110        2.41304217808298
C            5.59586452997224        0.94352249368070       -1.52274630804550
C            6.23224876207844        0.33588857497413       -2.60335858089104
C            6.61560907236789        1.08213483830578       -3.70104733460893
C            6.36939300961019        2.44487772304407       -3.73953161009506
C            5.72481077137640        3.05592694108019       -2.67694313759940
C            5.33401597515158        2.31108029066039       -1.58029529316986
C            2.75213306529335        0.57401179845762       -0.78689399276178
C            1.47124679373156        0.84357272577266       -0.35142234239367
C           -1.25992416935922        0.67280055187429        0.89268848715447
C           -2.55769471733623        0.93522447840177        1.31195585560499
C           -3.65779428847571        0.22494409918511        0.67238826930972
N           -3.64040285008240       -1.05584234800054        0.40962311181651
C           -4.83909353632896       -1.36051273427302       -0.16387259802540
C           -5.12037679035757       -2.71691737093527       -0.60878922494093
C           -6.01610941521640       -2.98822679008641       -1.64133433056469
C           -6.25269518688239       -4.29253296365272       -2.03269520873939
C           -5.59645828052420       -5.34140496209539       -1.40976160410415
C           -4.68850454095044       -5.07803101313043       -0.39684477274113
C           -4.44935693976777       -3.77703435376080       -0.00010934904914
C           -5.61247979033173       -0.21452133879869       -0.24645358792269
C           -6.95631444697750        0.00573024389943       -0.76486178088168
C           -7.21627121853649        1.03160081119367       -1.67181207838839
C           -8.49805543844299        1.23243975976649       -2.14884219282790
C           -9.53468706314876        0.41551062249984       -1.73000173807214
C           -9.28326369213499       -0.61020916084798       -0.83270095323829
C           -8.00493554036629       -0.81490752563665       -0.35086179990903
N           -4.83891973753814        0.79649538380657        0.28103955606471
C           -5.18603055730283        2.15332313487577        0.36537490500648
C           -4.30044566312860        3.11768004892472       -0.10322611358259
C           -4.63647469886576        4.45640814787411       -0.02042565388491
C           -5.85525998623562        4.83778156127648        0.51492761786086
C           -6.73786212558829        3.87503887203412        0.97661781552079
C           -6.40803079888448        2.53480109149134        0.90786391169333
H           -4.00954789864211        2.64837837599846        3.57390031202427
H           -1.83837916450405        3.17973217494006        3.74262545059625
H            0.43838573192472        2.74800076598643        2.93822685092760
H            2.06464425170295        1.02963538258124        2.96607939030144
H            4.33845058734816        0.54827866796152        2.19283624803898
H            7.81166019953928        1.18865474162813       -0.05136282904992
H           10.19236704906121        0.91583239997182       -0.59969985254203
H           11.13098682977231       -1.33817121228963       -0.96089584678898
H            9.67486204310383       -3.32012766986382       -0.75136798943071
H            7.29125185226349       -3.04718887400127       -0.20169345229873
H            3.67348733491467       -2.20503845023236        0.22129030047557
H            2.88025847973037       -3.75994911136004        1.94980078979816
H            4.22542216706232       -4.14470234950413        3.98379194425349
H            6.37907632864300       -2.97275954531965        4.26839540659921
H            7.17156668440648       -1.41084684708639        2.53967159584466
H            6.41493816665066       -0.72844414797146       -2.58260831218810
H            7.10660537592849        0.59802059507941       -4.53273712021292
H            6.67350851733963        3.02712971879786       -4.59691486714058
H            5.52451361184509        4.11741149579860       -2.70403416153226
H            4.83218196135777        2.78935072874263       -0.75068424449204
H            2.94771275713655        0.44845998291191       -1.84268501684061
H            0.67211393731360        0.94311174479257       -1.07129161214968
H           -1.12155387661028       -0.05986568704681        0.11290359882299
H           -6.51802030871488       -2.17642436978098       -2.14648353058269
H           -6.95058638939626       -4.49178732092501       -2.83351967988348
H           -5.78677903436124       -6.35919177893638       -1.71829907594783
H           -4.16621042062099       -5.89241855435362        0.08471366133908
H           -3.74169155608356       -3.55465032643510        0.78345171376843
H           -6.40901753804700        1.66409537757611       -2.01299667036981
H           -8.68742831888161        2.02909847773352       -2.85352425479648
H          -10.53522416385872        0.57540336156205       -2.10373729860893
H          -10.08858876231182       -1.25092624668263       -0.50440372430924
H           -7.80490398563062       -1.61176668165320        0.35048178493218
H           -3.35470549579940        2.81412052425096       -0.52798895914541
H           -3.94494275805350        5.20306301728284       -0.38193590514544
H           -6.11643439058122        5.88385558123296        0.57305796186073
H           -7.68760269071744        4.16922326489885        1.39787737001450
H           -7.08520320121947        1.78242315420785        1.28154144326643

          :  Hamiltonian                  GFN2-xTB          :
         :: gradient norm              0.000056873107 Eh/a0 ::
         :: HOMO-LUMO gap              2.490318552501 eV    ::
         :: SCC energy              -145.456813597153 Eh    ::
         :: -> dispersion             -0.135832434830 Eh    ::
         :: repulsion energy           2.687658605894 Eh    ::

    * Orbital Energies and Occupations

         #    Occupation            Energy/Eh            Energy/eV
      -------------------------------------------------------------
         1        2.0000           -0.7181596             -19.5421
       ...           ...                  ...                  ...
       121        2.0000           -0.4036979             -10.9852
       122        2.0000           -0.4028729             -10.9627
       123        2.0000           -0.4006121             -10.9012
       124        2.0000           -0.3992261             -10.8635
       125        2.0000           -0.3984912             -10.8435
       126        2.0000           -0.3976494             -10.8206
       127        2.0000           -0.3950384             -10.7495
       128        2.0000           -0.3908426             -10.6354
       129        2.0000           -0.3881854             -10.5631
       130        2.0000           -0.3795719             -10.3287
       131        2.0000           -0.3682002             -10.0192
       132        2.0000           -0.3589813              -9.7684
       133        2.0000           -0.3548481              -9.6559 (HOMO)
       134                         -0.2633305              -7.1656 (LUMO)
       135                         -0.2496701              -6.7939
       136                         -0.2379763              -6.4757
       137                         -0.2359396              -6.4202
       138                         -0.2329107              -6.3378
       139                         -0.2310081              -6.2861
       140                         -0.2234643              -6.0808
       141                         -0.2224707              -6.0537
       142                         -0.2221492              -6.0450
       143                         -0.2196288              -5.9764
       144                         -0.2173023              -5.9131
       ...                                ...                  ...
       262                          0.7150969              19.4588
      -------------------------------------------------------------
                  HL-Gap            0.0915175 Eh            2.4903 eV

     #   Z          covCN         q      C6AA      α(0)
     1   8 O        1.659    -0.396    20.775     6.153
     2   6 C        2.848     0.140    24.946     8.186
     3   6 C        2.916    -0.071    29.761     8.946
     4   6 C        2.925    -0.036    28.891     8.815
     5   6 C        2.974     0.003    27.963     8.674
     6   6 C        2.977     0.010    27.795     8.648
     7   6 C        2.923    -0.035    28.864     8.810
     8   6 C        2.922    -0.033    28.816     8.803
     9   6 C        2.979     0.014    27.702     8.633
    10   6 C        2.967    -0.006    28.175     8.707
    11   6 C        2.967    -0.006    28.176     8.707
    12   6 C        2.979     0.016    27.659     8.627
    13   6 C        2.924    -0.032    28.798     8.800
    14   6 C        2.919    -0.030    28.740     8.791
    15   6 C        2.920    -0.031    28.783     8.798
    16   6 C        2.918    -0.030    28.747     8.792
    17   6 C        2.925    -0.032    28.805     8.802
    18   6 C        2.978     0.015    27.671     8.629
    19   6 C        2.924    -0.032    28.791     8.799
    20   6 C        2.919    -0.029    28.729     8.790
    21   6 C        2.920    -0.031    28.776     8.797
    22   6 C        2.918    -0.030    28.753     8.793
    23   6 C        2.925    -0.033    28.816     8.803
    24   6 C        2.979     0.016    27.660     8.627
    25   6 C        2.924    -0.032    28.792     8.799
    26   6 C        2.919    -0.029    28.735     8.790
    27   6 C        2.920    -0.031    28.783     8.798
    28   6 C        2.918    -0.030    28.752     8.793
    29   6 C        2.925    -0.033    28.812     8.803
    30   6 C        2.923    -0.033    28.816     8.803
    31   6 C        2.923    -0.035    28.867     8.811
    32   6 C        2.934    -0.036    28.891     8.815
    33   6 C        2.971    -0.016    28.412     8.743
    34   6 C        3.167     0.130    24.839     8.144
    35   7 N        1.913    -0.291    28.392     7.900
    36   6 C        3.171     0.051    26.500     8.410
    37   6 C        2.973     0.011    27.766     8.643
    38   6 C        2.923    -0.038    28.937     8.822
    39   6 C        2.919    -0.031    28.768     8.796
    40   6 C        2.920    -0.033    28.822     8.804
    41   6 C        2.918    -0.030    28.753     8.793
    42   6 C        2.927    -0.030    28.757     8.794
    43   6 C        3.072     0.012    27.678     8.626
    44   6 C        2.972     0.010    27.784     8.646
    45   6 C        2.924    -0.034    28.843     8.807
    46   6 C        2.919    -0.030    28.739     8.791
    47   6 C        2.920    -0.032    28.788     8.799
    48   6 C        2.919    -0.029    28.715     8.787
    49   6 C        2.925    -0.032    28.804     8.801
    50   7 N        2.852    -0.026    21.750     6.927
    51   6 C        2.914     0.076    26.306     8.410
    52   6 C        2.923    -0.039    28.977     8.828
    53   6 C        2.920    -0.028    28.710     8.787
    54   6 C        2.919    -0.033    28.817     8.803
    55   6 C        2.921    -0.028    28.691     8.784
    56   6 C        2.922    -0.033    28.825     8.804
    57   1 H        0.805     0.300     0.719     1.332
    58   1 H        0.925     0.027     2.625     2.534
    59   1 H        0.926     0.039     2.467     2.456
    60   1 H        0.926     0.031     2.570     2.507
    61   1 H        0.926     0.030     2.593     2.518
    62   1 H        0.926     0.028     2.613     2.528
    63   1 H        0.926     0.029     2.607     2.525
    64   1 H        0.926     0.029     2.606     2.524
    65   1 H        0.926     0.029     2.603     2.523
    66   1 H        0.926     0.028     2.611     2.527
    67   1 H        0.926     0.030     2.591     2.517
    68   1 H        0.926     0.031     2.569     2.507
    69   1 H        0.926     0.029     2.598     2.521
    70   1 H        0.926     0.028     2.612     2.527
    71   1 H        0.926     0.027     2.628     2.535
    72   1 H        0.926     0.029     2.600     2.521
    73   1 H        0.926     0.029     2.601     2.522
    74   1 H        0.926     0.029     2.606     2.524
    75   1 H        0.926     0.028     2.613     2.528
    76   1 H        0.926     0.027     2.627     2.535
    77   1 H        0.926     0.029     2.594     2.519
    78   1 H        0.926     0.032     2.557     2.501
    79   1 H        0.926     0.057     2.237     2.339
    80   1 H        0.926     0.025     2.661     2.551
    81   1 H        0.926     0.025     2.659     2.550
    82   1 H        0.926     0.026     2.650     2.546
    83   1 H        0.926     0.028     2.619     2.531
    84   1 H        0.926     0.050     2.325     2.384
    85   1 H        0.926     0.024     2.674     2.557
    86   1 H        0.926     0.029     2.605     2.524
    87   1 H        0.926     0.030     2.590     2.517
    88   1 H        0.926     0.031     2.567     2.506
    89   1 H        0.926     0.034     2.532     2.489
    90   1 H        0.926     0.037     2.495     2.470
    91   1 H        0.926     0.036     2.501     2.473
    92   1 H        0.926     0.035     2.511     2.478
    93   1 H        0.926     0.037     2.490     2.468
    94   1 H        0.926     0.043     2.411     2.428

molecular dipole:
                 x           y           z       tot (Debye)
 q only:       -0.054       1.207       0.405
   full:       -0.306       1.673       0.520       4.520

 projected vibrational frequencies (cm⁻¹)
eigval :       -0.00    -0.00    -0.00     0.00     0.00     0.00
eigval :        7.54     7.90    13.96    19.39    22.41    28.29
eigval :       31.87    39.11    44.17    46.01    51.03    53.09
eigval :       56.05    56.92    65.63    69.07    72.28    74.59
eigval :       78.11    82.94    90.60   113.36   124.07   128.58
eigval :      135.80   153.78   167.71   185.44   195.74   212.53
eigval :      225.43   228.06   233.63   240.30   244.80   248.50
eigval :      254.05   262.75   268.99   287.95   311.54   344.24
eigval :      349.81   361.88   368.76   371.11   371.39   374.72
eigval :      375.88   376.75   379.25   382.41   398.45   403.82
eigval :      413.71   425.87   447.83   457.29   467.57   474.19
eigval :      481.89   495.22   507.30   512.46   538.12   545.02
eigval :      556.53   573.04   581.26   585.21   587.34   588.31
eigval :      589.90   590.74   595.01   605.42   613.20   626.56
eigval :      638.10   643.75   648.05   656.16   663.97   665.14
eigval :      670.26   672.69   675.05   678.15   679.43   687.99
eigval :      698.53   702.59   707.05   727.60   750.23   756.28
eigval :      760.36   761.97   762.66   764.48   785.45   808.43
eigval :      829.97   839.44   859.15   872.40   874.72   877.36
eigval :      877.80   878.00   878.04   878.43   885.13   888.75
eigval :      898.25   901.28   901.34   902.07   902.64   902.89
eigval :      909.37   919.67   927.25   929.47   929.66   929.88
eigval :      929.91   930.08   930.16   930.97   931.16   931.53
eigval :      931.97   932.07   932.20   940.21   943.19   957.09
eigval :      975.07   980.99   991.80  1000.52  1012.23  1025.04
eigval :     1032.65  1080.00  1082.09  1083.74  1084.07  1085.03
eigval :     1085.83  1087.56  1093.80  1118.43  1118.95  1121.26
eigval :     1121.79  1122.89  1124.08  1125.42  1143.39  1156.63
eigval :     1165.27  1173.94  1181.00  1181.90  1182.04  1182.06
eigval :     1182.14  1182.18  1192.31  1195.67  1198.92  1199.55
eigval :     1200.66  1201.24  1206.26  1213.42  1237.01  1242.42
eigval :     1266.71  1270.79  1274.16  1277.33  1281.07  1282.58
eigval :     1282.86  1282.98  1284.39  1292.15  1302.83  1312.42
eigval :     1315.99  1316.78  1318.15  1318.81  1319.50  1322.60
eigval :     1322.71  1333.11  1338.22  1365.29  1393.70  1401.86
eigval :     1423.63  1429.94  1430.71  1431.33  1431.99  1435.98
eigval :     1438.77  1454.00  1464.59  1469.23  1474.74  1476.59
eigval :     1483.70  1490.46  1501.37  1540.89  1557.49  1560.58
eigval :     1576.09  1578.15  1578.60  1578.81  1580.07  1582.04
eigval :     1586.23  1586.27  1592.26  1595.00  1596.95  1597.67
eigval :     1598.20  1600.20  1601.66  1614.89  3051.38  3067.05
eigval :     3068.38  3068.48  3069.64  3071.26  3071.44  3071.81
eigval :     3072.32  3073.01  3074.41  3075.13  3076.25  3078.09
eigval :     3079.09  3079.41  3079.95  3081.46  3082.03  3083.42
eigval :     3085.28  3085.59  3086.40  3086.95  3087.63  3088.34
eigval :     3089.25  3091.18  3091.87  3091.98  3092.37  3093.57
eigval :     3094.02  3095.81  3103.07  3103.96  3104.74  3519.46

   temp. (K)  partition function   enthalpy   heat capacity  entropy
                                   cal/mol     cal/K/mol   cal/K/mol   J/K/mol
 298.15  VIB  0.878E+23            27504.048    168.553    175.316
         ROT  0.157E+09              888.752      2.981     40.486
         INT  0.138E+32            28392.800    171.534    215.802
         TR   0.186E+29             1481.254      4.968     45.577
         TOT                       29874.0540   176.5018   261.3793  1093.6109

       T/K    H(0)-H(T)+PV         H(T)/Eh          T*S/Eh         G(T)/Eh
   ------------------------------------------------------------------------
    298.15    0.476073E-01    0.778631E+00    0.124190E+00    0.654441E+00
   ------------------------------------------------------------------------

         :::::::::::::::::::::::::::::::::::::::::::::::::::::
         ::                  THERMODYNAMIC                  ::
         :::::::::::::::::::::::::::::::::::::::::::::::::::::
         :: total free energy        -142.114714138674 Eh   ::
         ::.................................................::
         :: total energy             -142.769154991253 Eh   ::
         :: zero point energy           0.731023245260 Eh   ::
         :: G(RRHO) w/o ZPVE           -0.076582392681 Eh   ::
         :: G(RRHO) contrib.            0.654440852579 Eh   ::
         :::::::::::::::::::::::::::::::::::::::::::::::::::::

           -------------------------------------------------
          | TOTAL ENERGY             -142.769154991253 Eh   |
          | TOTAL ENTHALPY           -141.990524410562 Eh   |
          | TOTAL FREE ENERGY        -142.114714138674 Eh   |
          | GRADIENT NORM               0.000056826583 Eh/α |
          | HOMO-LUMO GAP               2.490319059389 eV   |
           -------------------------------------------------

 * finished run on 2025/07/20 at 20:26:29.633
