   * xtb version 6.7.1 (edcfbbe) compiled by 'albert@albert-system' on 2024-07-22

   ID    Z sym.   atoms
    1    8 O      1
    2    6 C      2-34, 36-49, 51-56
    3    7 N      35, 50
    4    1 H      57-94

          program call               : xtb data2507/gas/HITPE/HITPE_gas_T1_crest.xyz --gfn 2 --spinpol --tblite --uhf 2 --ohess vtight --parallel 40 --molden --ceasefiles --namespace data2507/gas/HITPE/HITPE_gas_T1_finalOpt
 * total energy  :  -142.7074045 Eh     change        0.4987373E-07 Eh
 * total energy  :  -142.7074400 Eh     change       -0.3544581E-04 Eh
 * total energy  :  -142.7074511 Eh     change       -0.1110960E-04 Eh
 * total energy  :  -142.7074547 Eh     change       -0.3648717E-05 Eh
 * total energy  :  -142.7074601 Eh     change       -0.5408196E-05 Eh
 * total energy  :  -142.7074625 Eh     change       -0.2374855E-05 Eh
 * total energy  :  -142.7074638 Eh     change       -0.1348323E-05 Eh
 * total energy  :  -142.7074651 Eh     change       -0.1263995E-05 Eh
 * total energy  :  -142.7074666 Eh     change       -0.1529905E-05 Eh
 * total energy  :  -142.7074685 Eh     change       -0.1864899E-05 Eh
 * total energy  :  -142.7075024 Eh     change       -0.7229500E-06 Eh
 * total energy  :  -142.7075030 Eh     change       -0.6467885E-06 Eh
 * total energy  :  -142.7075032 Eh     change       -0.1694574E-06 Eh
 * total energy  :  -142.7075041 Eh     change       -0.9318208E-06 Eh
 * total energy  :  -142.7075047 Eh     change       -0.6041323E-06 Eh
 * total energy  :  -142.7075054 Eh     change       -0.6827030E-06 Eh
 * total energy  :  -142.7075067 Eh     change       -0.1251890E-05 Eh
 * total energy  :  -142.7075074 Eh     change       -0.7661826E-06 Eh
 * total energy  :  -142.7075075 Eh     change       -0.2376265E-07 Eh
   *** GEOMETRY OPTIMIZATION CONVERGED AFTER 44 ITERATIONS ***

 final structure:
================
94
 xtb: 6.7.1 (edcfbbe)
O           -3.94365839872988        2.91095688480185        1.96513760664026
C           -2.65953562645966        2.62451059468740        1.61271530447760
C           -1.62436842525214        3.51913648058767        1.84831136366919
C           -0.32093198799351        3.19227810962705        1.53349005984298
C           -0.00806178298678        1.94505932403531        0.99187595180772
C            1.37601376661012        1.58301174361379        0.68931850406643
C            1.83385540426340        0.27111515463269        0.86330677839751
C            3.13429385381582       -0.06822640246757        0.59168467638660
C            4.06704634560590        0.89203247639443        0.14049465959937
C            5.40288442398223        0.51385210719627       -0.16386274518519
C            5.68595718278382       -0.90807039685426       -0.44769343013613
C            6.60522320529691       -1.58942923256841        0.41025116307534
C            6.82037726952689       -1.13057024832284        1.72485272563158
C            7.72632418325571       -1.75124245366855        2.55392144837091
C            8.46512901896925       -2.83663950061890        2.10178778252663
C            8.29025071209535       -3.28621695612944        0.80040273463025
C            7.37832713920493       -2.67936779262279       -0.03450782780008
C            5.03649825071038       -1.51274518334035       -1.56867421847455
C            4.55959880236785       -0.71512935550750       -2.62796978784911
C            3.90543103311262       -1.27672567551541       -3.70039978545826
C            3.68269619376212       -2.64650289751736       -3.75027274084427
C            4.11598371677001       -3.44666275576709       -2.70208662889423
C            4.78197146801340       -2.89695531022276       -1.62926801639969
C            6.50631088479563        1.42905414361060       -0.21407911423820
C            7.63048745507834        1.13934815787002       -1.00951281211278
C            8.71310349090026        1.98886295491569       -1.04416244114930
C            8.72535004600211        3.14382705099499       -0.27392939373104
C            7.64023732362538        3.43129851184268        0.54151735802152
C            6.54681489834401        2.59354144379312        0.57438426873585
C            3.58850770445181        2.20523472111374       -0.05973095535195
C            2.28365026289165        2.53410657580304        0.20898957738806
C           -1.05215603403714        1.05501200710392        0.75057349664176
C           -2.37150672356003        1.38302987753357        1.02845503193831
C           -3.41505230900683        0.40532114306604        0.74649803418375
N           -3.32872904469126       -0.86301843749672        1.05225260780529
C           -4.49658471662498       -1.44667958705428        0.65909768821471
C           -4.70387927589750       -2.87625023669171        0.83321530655827
C           -4.00638111525109       -3.53985361338055        1.84195004290556
C           -4.17884659748667       -4.89601682633781        2.03787748031022
C           -5.04540799590226       -5.61190411643186        1.22776473029975
C           -5.72688735205447       -4.96389200024176        0.21062792977524
C           -5.55693767812168       -3.60722973582223        0.00849333529350
C           -5.32224238518116       -0.48763680225660        0.09623459133295
C           -6.66224702483728       -0.57915052966911       -0.46859913649383
C           -6.95024160153033       -0.04218732644676       -1.72215483053376
C           -8.22920565828203       -0.12651360262077       -2.23983656207014
C           -9.23503152957613       -0.74632759112943       -1.51765899698054
C           -8.95506557959352       -1.28871414932241       -0.27351135271317
C           -7.67955971847956       -1.20575507266293        0.25033595534186
N           -4.61220415242408        0.69199005445418        0.14725007844713
C           -5.02696782500607        1.93777247337200       -0.34715451378087
C           -4.17825264666620        2.66286941655833       -1.17648602793144
C           -4.58048210360984        3.89315337037297       -1.66305775596824
C           -5.82809816514262        4.39813517339701       -1.33755089017626
C           -6.67359514332195        3.67171062394147       -0.51503440386870
C           -6.27799060290146        2.44561632178036       -0.01510947474618
H           -3.97955387494659        3.78275867120453        2.37663097590616
H           -1.84843003149128        4.47783033060602        2.29891683484818
H            0.46613340695788        3.89968413471507        1.74645142905074
H            1.15544541500933       -0.47855199216975        1.24251503339294
H            3.46966646229414       -1.08222359914240        0.75405358986591
H            6.24124731983755       -0.29359245302372        2.08717911602979
H            7.86387302571647       -1.39046089372997        3.56313958336139
H            9.17824567140894       -3.31935786873344        2.75300686423501
H            8.88060197730224       -4.11423017072425        0.43437226774970
H            7.28840608194757       -3.00855109319658       -1.05911893723804
H            4.73775217022391        0.35021466625446       -2.60116011757727
H            3.56209823256839       -0.64659648420292       -4.50835539089312
H            3.16551145482926       -3.08401100713144       -4.59093369234925
H            3.92172167204590       -4.50958384790702       -2.72215771966437
H            5.06967565184461       -3.52425000280646       -0.79864989510070
H            7.62427670185116        0.24687111907391       -1.61848716316496
H            9.55896096985326        1.75362004067489       -1.67403399367287
H            9.57749095363165        3.80635247206049       -0.29934430767746
H            7.65486676858298        4.31483905016260        1.16387597356368
H            5.73100918465024        2.80343149737966        1.25025755343650
H            4.24833117679350        2.94755963336602       -0.48390541764554
H            1.94158312235172        3.54026122027321        0.01250719723242
H           -0.85650244268356        0.08868627537965        0.31281197923520
H           -3.33204577509660       -2.96897996608119        2.46130999964687
H           -3.63694955194435       -5.39943329382838        2.82581229978054
H           -5.18407329176854       -6.67207853399994        1.38305544840279
H           -6.39243832613090       -5.52082998652346       -0.43353181266242
H           -6.07784540966098       -3.11491096190075       -0.79923636192127
H           -6.16648941868468        0.43086501515692       -2.29666785642606
H           -8.44044799642236        0.29177231601317       -3.21324175252707
H          -10.23363730221681       -0.80942218408277       -1.92403344835013
H           -9.73610205603125       -1.77499485370483        0.29249038642286
H           -7.45769048729535       -1.62456403574206        1.22101902497728
H           -3.20978377300437        2.25983859401827       -1.43476167524945
H           -3.91784772856745        4.45528655838117       -2.30438291677329
H           -6.14073545691222        5.35675677154628       -1.72376027012143
H           -7.64579220241594        4.06413194727993       -0.25647360968067
H           -6.92627623252621        1.88391495134878        0.63947485232757

 projected vibrational frequencies (cm⁻¹)
eigval :       -0.00    -0.00    -0.00    -0.00     0.00     0.00
eigval :        6.78     7.73     9.96    13.19    22.93    28.52
eigval :       31.90    35.02    39.04    44.84    47.26    51.63
eigval :       54.26    59.33    62.55    67.29    71.69    77.92
eigval :       85.09    90.76    97.35   114.80   127.97   129.59
eigval :      135.03   155.57   165.37   186.38   201.80   210.43
eigval :      221.91   227.85   232.23   237.80   246.41   249.09
eigval :      259.68   274.41   277.26   289.55   313.33   345.80
eigval :      353.21   359.22   364.31   365.91   369.28   370.98
eigval :      376.28   382.23   385.46   386.74   390.06   396.13
eigval :      406.75   424.07   434.86   453.88   459.11   472.57
eigval :      474.03   481.43   495.28   507.23   518.79   535.26
eigval :      540.02   570.93   579.23   583.79   585.62   587.06
eigval :      587.29   590.13   591.08   597.88   609.44   618.22
eigval :      629.71   641.17   645.47   655.52   656.93   660.45
eigval :      662.36   663.56   666.60   671.52   677.34   684.77
eigval :      694.13   698.83   706.93   726.23   746.54   748.28
eigval :      750.87   754.73   761.74   764.23   785.14   807.79
eigval :      825.05   832.88   850.21   855.97   858.81   867.58
eigval :      869.31   874.81   877.73   878.32   881.05   883.89
eigval :      892.62   898.24   898.70   901.18   901.97   904.32
eigval :      907.08   918.68   922.04   922.67   923.65   924.10
eigval :      924.96   925.31   927.25   929.29   929.85   930.69
eigval :      930.90   931.49   942.56   943.40   944.41   955.69
eigval :      971.61   975.17   982.82   991.19   998.87  1012.39
eigval :     1025.96  1080.35  1080.61  1081.56  1082.10  1082.31
eigval :     1083.18  1084.18  1093.18  1104.37  1118.63  1119.54
eigval :     1121.30  1121.49  1125.37  1126.39  1133.19  1147.81
eigval :     1157.75  1175.08  1179.75  1180.11  1180.27  1180.53
eigval :     1181.49  1181.84  1190.01  1191.87  1193.27  1195.24
eigval :     1198.20  1200.78  1209.55  1214.63  1241.53  1244.68
eigval :     1267.04  1270.04  1272.82  1275.16  1277.33  1279.59
eigval :     1282.30  1283.30  1286.67  1303.93  1306.10  1315.33
eigval :     1316.33  1319.42  1320.40  1322.21  1325.35  1328.25
eigval :     1330.06  1334.05  1335.23  1341.58  1365.93  1397.73
eigval :     1410.49  1420.13  1420.98  1428.06  1430.24  1432.05
eigval :     1434.96  1437.65  1438.48  1443.12  1452.59  1454.62
eigval :     1459.10  1480.29  1490.68  1491.42  1509.14  1541.02
eigval :     1542.79  1545.35  1547.48  1560.45  1560.76  1569.35
eigval :     1571.97  1576.87  1578.25  1580.37  1581.40  1585.77
eigval :     1594.77  1596.51  1597.72  1599.74  3051.35  3067.38
eigval :     3069.49  3069.73  3070.48  3071.33  3071.36  3071.74
eigval :     3071.77  3072.06  3072.08  3075.16  3078.27  3078.38
eigval :     3081.72  3082.18  3082.43  3082.93  3083.74  3083.91
eigval :     3084.93  3085.91  3087.80  3087.91  3088.56  3089.37
eigval :     3090.95  3091.75  3092.43  3092.70  3093.08  3094.35
eigval :     3094.57  3096.22  3103.35  3103.91  3106.25  3520.05

   temp. (K)  partition function   enthalpy   heat capacity  entropy
                                   cal/mol     cal/K/mol   cal/K/mol   J/K/mol
 298.15  VIB  0.233E+24            27622.245    169.239    176.172
         ROT  0.154E+09              888.752      2.981     40.442
         INT  0.359E+32            28510.997    172.219    216.614
         TR   0.186E+29             1481.254      4.968     45.577
         TOT                       29992.2510   177.1876   262.1911  1097.0075

       T/K    H(0)-H(T)+PV         H(T)/Eh          T*S/Eh         G(T)/Eh
   ------------------------------------------------------------------------
    298.15    0.477957E-01    0.776379E+00    0.124575E+00    0.651803E+00
   ------------------------------------------------------------------------

         :::::::::::::::::::::::::::::::::::::::::::::::::::::
         ::                  THERMODYNAMIC                  ::
         :::::::::::::::::::::::::::::::::::::::::::::::::::::
         :: total free energy        -142.055704127385 Eh   ::
         ::.................................................::
         :: total energy             -142.707507461034 Eh   ::
         :: zero point energy           0.728583087258 Eh   ::
         :: G(RRHO) w/o ZPVE           -0.076779753608 Eh   ::
         :: G(RRHO) contrib.            0.651803333649 Eh   ::
         :::::::::::::::::::::::::::::::::::::::::::::::::::::

           -------------------------------------------------
          | TOTAL ENERGY             -142.707507461034 Eh   |
          | TOTAL ENTHALPY           -141.931128679447 Eh   |
          | TOTAL FREE ENERGY        -142.055704127385 Eh   |
          | GRADIENT NORM               0.000062477654 Eh/α |
           -------------------------------------------------

 * finished run on 2025/07/20 at 20:37:04.873
