   * xtb version 6.7.1 (edcfbbe) compiled by 'albert@albert-system' on 2024-07-22

   ID    Z sym.   atoms
    1    8 O      1
    2    6 C      2-34, 36-49, 51-56
    3    7 N      35, 50
    4    1 H      57-94

          program call               : xtb data2507/gas/HITPE/HITPE_gas_S0_finalOpt.xtbopt.xyz --gfn 2 --spinpol --tblite --uhf 2 --ohess vtight --parallel 40 --molden --ceasefiles --namespace data2507/gas/HITPE/HITPE_gas_T1_preOpt
 * total energy  :  -142.6780218 Eh     change       -0.8638494E-08 Eh
 * total energy  :  -142.6888847 Eh     change       -0.1086291E-01 Eh
 * total energy  :  -142.6930564 Eh     change       -0.4171675E-02 Eh
 * total energy  :  -142.6945343 Eh     change       -0.1477925E-02 Eh
 * total energy  :  -142.6962970 Eh     change       -0.1762733E-02 Eh
 * total energy  :  -142.6977405 Eh     change       -0.1443450E-02 Eh
 * total energy  :  -142.6988751 Eh     change       -0.1134606E-02 Eh
 * total energy  :  -142.6995623 Eh     change       -0.6872070E-03 Eh
 * total energy  :  -142.6999985 Eh     change       -0.4362411E-03 Eh
 * total energy  :  -142.7003776 Eh     change       -0.3790752E-03 Eh
 * total energy  :  -142.7075083 Eh     change       -0.2206953E-06 Eh
 * total energy  :  -142.7075088 Eh     change       -0.4094932E-06 Eh
 * total energy  :  -142.7075090 Eh     change       -0.2266719E-06 Eh
 * total energy  :  -142.7075092 Eh     change       -0.1940757E-06 Eh
 * total energy  :  -142.7075093 Eh     change       -0.1074189E-06 Eh
 * total energy  :  -142.7075095 Eh     change       -0.2005164E-06 Eh
 * total energy  :  -142.7075096 Eh     change       -0.1296150E-06 Eh
 * total energy  :  -142.7075098 Eh     change       -0.1729288E-06 Eh
 * total energy  :  -142.7075099 Eh     change       -0.9202722E-07 Eh
   *** GEOMETRY OPTIMIZATION CONVERGED AFTER 139 ITERATIONS ***

 final structure:
================
94
 xtb: 6.7.1 (edcfbbe)
O           -3.94026237838780        2.96426016203667        1.89207341487835
C           -2.66014631146411        2.67604222716329        1.52669648727591
C           -1.63302478840537        3.59570339784388        1.69057042155852
C           -0.33193457845499        3.26965630175516        1.36526711470243
C           -0.01280984821653        1.99927432778893        0.88453809828546
C            1.36925792957869        1.63835965839519        0.57188523628986
C            1.84690521138532        0.34267182080407        0.80449027262760
C            3.14521375323763        0.00401641980554        0.52244901729466
C            4.05615759368678        0.94920662850198        0.00030118449596
C            5.38890120678358        0.56896330784323       -0.31491668369263
C            5.68065794773370       -0.86345364846268       -0.52887232280098
C            6.62954423777780       -1.48804287553398        0.34002214926540
C            6.87282109865873       -0.95671497019950        1.62199061719804
C            7.80665380136135       -1.52254016618736        2.45931646088885
C            8.54617626244112       -2.62318871633037        2.04697883250876
C            8.34343198674100       -3.14408258366929        0.77659848993370
C            7.40355045868319       -2.59247910440599       -0.06561487807522
C            5.00799050911514       -1.53495158579827       -1.59680755707126
C            4.49196506527078       -0.80111784063089       -2.68355926453883
C            3.81405775783614       -1.42684947365336       -3.70448603673728
C            3.60606967944298       -2.79950332913715       -3.67368123143224
C            4.07858650363732       -3.53701633784850       -2.59686625147753
C            4.76828477873875       -2.92300173337526       -1.57515064077724
C            6.48049426593054        1.49079825732520       -0.44172441700185
C            7.58912417373887        1.16803065430749       -1.24628442957924
C            8.66066957973628        2.02526141087084       -1.35497509387722
C            8.67734304603905        3.22239794455480       -0.65217289990671
C            7.60855194403859        3.54429356017813        0.17193576909555
C            6.52627960294135        2.69828268805126        0.27892286571859
C            3.55741414884025        2.24476438122090       -0.25743931989642
C            2.25477631551735        2.57294412481231        0.02285515143889
C           -1.04903901568349        1.08403773505526        0.71447472299576
C           -2.36677460522869        1.40867459616930        1.00402447721254
C           -3.39913964770080        0.40022725614438        0.80105344265756
N           -3.27829390962521       -0.84866264146840        1.16904727913395
C           -4.44369169612163       -1.47464410056737        0.83913497773460
C           -4.61425933549622       -2.89756499998526        1.09034029015590
C           -3.87092949633233       -3.49522770453065        2.10757665394631
C           -4.00532376767179       -4.84355091262471        2.37442375642782
C           -4.87920982739127       -5.61733658989763        1.62791372810020
C           -5.60682244642416       -5.03523144103803        0.60292401576327
C           -5.47502673009625       -3.68677878178812        0.32981700174539
C           -5.30401255565330       -0.56227027202695        0.25113059482457
C           -6.65597995243242       -0.71042246954265       -0.27166517354591
C           -6.98700422450383       -0.24969264058801       -1.54474546465624
C           -8.27614140476917       -0.38979153402920       -2.02366847370760
C           -9.24950198998953       -0.98985309068178       -1.24270995668053
C           -8.92683142223775       -1.45581290822437        0.02189299177043
C           -7.64091079300279       -1.31703218534804        0.50703638285922
N           -4.61763769032987        0.63206712107647        0.22148037970768
C           -5.07042320085310        1.84117083781939       -0.32760034995886
C           -4.25795029432532        2.53651445820698       -1.21659657028808
C           -4.69763831567326        3.73053262859994       -1.75794040745967
C           -5.94698100095917        4.22812643623751       -1.42769538364854
C           -6.75642470883704        3.53110436304169       -0.54565040810410
C           -6.32309280693729        2.34182307027048        0.00899378017988
H           -3.97957301577950        3.85646231542252        2.25689507682691
H           -1.86115305555667        4.57427283536261        2.09396235661756
H            0.44922972198129        3.99780371258564        1.52286538154156
H            1.18612427288335       -0.39357627706760        1.23728797620344
H            3.49627407424056       -0.99621373823854        0.73050779792649
H            6.29339834221168       -0.10738122009129        1.95381543475734
H            7.96562916435310       -1.10649864989556        3.44381207660106
H            9.28116446858239       -3.06280125326083        2.70436771361953
H            8.93381803043057       -3.98458069169648        0.44029345245814
H            7.29126673437379       -2.97735961785222       -1.06837807003362
H            4.65828612419880        0.26585103427502       -2.71969221200535
H            3.44037958309482       -0.84510503708684       -4.53494509303042
H            3.07021942152822       -3.28733893243375       -4.47397547105203
H            3.89635288496048       -4.60138234739095       -2.55378711794141
H            5.08670369086084       -3.50120459818732       -0.72046887744176
H            7.57907462182639        0.24239913988351       -1.80350054161613
H            9.49426959555057        1.76319790482853       -1.99057319553678
H            9.52059861464214        3.89144544724489       -0.73599815743885
H            7.62748280666566        4.46191977590077        0.74271834052032
H            5.72468609370593        2.93747480584853        0.96200600547834
H            4.19854841359809        2.97096573656233       -0.73481135211796
H            1.89638530449291        3.56361479625399       -0.21817148649072
H           -0.84919469801908        0.09809258651194        0.32507901744573
H           -3.19141597991557       -2.87988816226414        2.67664025624020
H           -3.42767722848287       -5.29555057513629        3.16810729349877
H           -4.98783024531496       -6.67144835603013        1.83852814549372
H           -6.27859929835988       -5.63765493392432        0.00805107541820
H           -6.03181620457159       -3.24652729367224       -0.48397802178904
H           -6.22851631265178        0.20722861747100       -2.16444422240472
H           -8.52074412033086       -0.03101812121933       -3.01288170652020
H          -10.25603383605890       -1.09705325014902       -1.61918273445371
H           -9.68249611001482       -1.92620115836705        0.63389764759725
H           -7.38564972936471       -1.67661160725065        1.49314352569684
H           -3.28806742153458        2.13889210500000       -1.47794128772688
H           -4.06304426759166        4.26977389939598       -2.44561347222859
H           -6.28898678926275        5.15814309531716       -1.85660667654368
H           -7.72983211392811        3.91803306610286       -0.28339114271515
H           -6.94316631692034        1.80394947260532        0.70932893729861

 projected vibrational frequencies (cm⁻¹)
eigval :       -0.00    -0.00    -0.00    -0.00     0.00     0.00
eigval :        6.73     7.53     9.92    12.93    22.74    28.51
eigval :       31.93    35.05    39.13    44.88    47.28    51.60
eigval :       54.20    59.40    62.59    67.40    71.48    77.86
eigval :       84.96    90.80    97.49   114.88   127.94   129.54
eigval :      135.17   155.82   165.33   186.46   201.82   210.51
eigval :      221.84   227.88   232.17   237.76   246.36   248.99
eigval :      259.58   274.39   277.20   289.46   313.35   345.83
eigval :      353.34   359.31   364.33   365.94   369.30   370.91
eigval :      376.19   382.19   385.51   386.77   390.20   396.18
eigval :      406.83   424.07   434.78   453.88   458.99   472.59
eigval :      474.12   481.40   495.22   507.31   518.78   535.28
eigval :      540.09   570.98   579.26   583.81   585.62   587.06
eigval :      587.29   590.12   591.08   597.90   609.49   618.23
eigval :      629.62   641.16   645.44   655.50   656.93   660.42
eigval :      662.34   663.52   666.56   671.47   677.38   684.63
eigval :      694.10   698.91   706.98   726.29   746.54   748.27
eigval :      750.90   754.65   761.71   764.21   785.13   807.83
eigval :      825.09   832.85   850.12   855.97   858.79   867.59
eigval :      869.29   874.81   877.67   878.29   881.05   883.87
eigval :      892.60   898.22   898.68   901.16   901.87   904.29
eigval :      907.13   918.63   922.09   922.68   923.64   924.21
eigval :      925.02   925.31   927.27   929.25   929.84   930.67
eigval :      930.89   931.52   942.58   943.41   944.53   955.67
eigval :      971.60   975.18   982.80   991.22   998.85  1012.58
eigval :     1026.05  1080.44  1080.51  1081.38  1082.01  1082.34
eigval :     1083.31  1084.23  1093.18  1104.11  1118.73  1119.65
eigval :     1121.32  1121.62  1125.31  1126.34  1133.19  1148.06
eigval :     1157.72  1175.12  1179.80  1180.17  1180.23  1180.36
eigval :     1181.32  1181.54  1190.08  1191.89  1193.24  1195.22
eigval :     1198.21  1200.60  1209.63  1214.57  1241.70  1244.72
eigval :     1267.11  1270.08  1272.83  1275.16  1277.32  1279.62
eigval :     1282.27  1283.26  1286.67  1304.05  1306.04  1315.28
eigval :     1316.30  1319.44  1320.40  1322.26  1325.37  1328.28
eigval :     1330.19  1334.10  1335.45  1341.55  1365.94  1397.62
eigval :     1410.50  1420.15  1420.85  1428.08  1429.60  1432.11
eigval :     1434.74  1437.64  1438.04  1443.15  1452.61  1454.64
eigval :     1459.00  1480.16  1490.59  1491.40  1509.09  1540.66
eigval :     1542.75  1545.34  1547.41  1560.38  1560.72  1569.38
eigval :     1572.02  1576.91  1578.22  1580.44  1581.42  1585.73
eigval :     1594.72  1596.53  1597.71  1599.75  3051.34  3067.41
eigval :     3069.54  3069.78  3070.52  3071.33  3071.35  3071.80
eigval :     3071.82  3072.13  3072.14  3075.17  3078.19  3078.48
eigval :     3081.57  3082.12  3082.50  3082.99  3083.76  3084.01
eigval :     3085.00  3085.95  3087.93  3087.95  3088.61  3089.33
eigval :     3090.98  3091.92  3092.46  3092.78  3093.12  3094.35
eigval :     3094.62  3096.08  3103.34  3104.02  3106.52  3519.95

   temp. (K)  partition function   enthalpy   heat capacity  entropy
                                   cal/mol     cal/K/mol   cal/K/mol   J/K/mol
 298.15  VIB  0.248E+24            27622.810    169.240    176.232
         ROT  0.153E+09              888.752      2.981     40.438
         INT  0.380E+32            28511.562    172.221    216.670
         TR   0.186E+29             1481.254      4.968     45.577
         TOT                       29992.8161   177.1889   262.2471  1097.2420

       T/K    H(0)-H(T)+PV         H(T)/Eh          T*S/Eh         G(T)/Eh
   ------------------------------------------------------------------------
    298.15    0.477966E-01    0.776378E+00    0.124602E+00    0.651776E+00
   ------------------------------------------------------------------------

         :::::::::::::::::::::::::::::::::::::::::::::::::::::
         ::                  THERMODYNAMIC                  ::
         :::::::::::::::::::::::::::::::::::::::::::::::::::::
         :: total free energy        -142.055734321667 Eh   ::
         ::.................................................::
         :: total energy             -142.707509926292 Eh   ::
         :: zero point energy           0.728581086361 Eh   ::
         :: G(RRHO) w/o ZPVE           -0.076805481736 Eh   ::
         :: G(RRHO) contrib.            0.651775604625 Eh   ::
         :::::::::::::::::::::::::::::::::::::::::::::::::::::

           -------------------------------------------------
          | TOTAL ENERGY             -142.707509926292 Eh   |
          | TOTAL ENTHALPY           -141.931132245135 Eh   |
          | TOTAL FREE ENERGY        -142.055734321667 Eh   |
          | GRADIENT NORM               0.000039789450 Eh/α |
           -------------------------------------------------

 * finished run on 2025/07/20 at 20:31:32.595
