   * xtb version 6.7.1 (edcfbbe) compiled by 'albert@albert-system' on 2024-07-22

   ID    Z sym.   atoms
    1    8 O      1
    2    6 C      2-34, 36-49, 51-56
    3    7 N      35, 50
    4    1 H      57-94

          program call               : xtb data2507/gas/HITPE/HITPE_gas_S0_crest.xyz --gfn 2 --ohess vtight --parallel 40 --molden --ceasefiles --namespace data2507/gas/HITPE/HITPE_gas_S0_finalOpt
          :  Hamiltonian                  GFN2-xTB          :
 * total energy  :  -142.7692849 Eh     change       -0.1947853E-08 Eh
 * total energy  :  -142.7692871 Eh     change       -0.2154655E-05 Eh
 * total energy  :  -142.7692902 Eh     change       -0.3119755E-05 Eh
 * total energy  :  -142.7692955 Eh     change       -0.5361833E-05 Eh
 * total energy  :  -142.7692996 Eh     change       -0.4034876E-05 Eh
 * total energy  :  -142.7693035 Eh     change       -0.3921508E-05 Eh
 * total energy  :  -142.7693086 Eh     change       -0.5100051E-05 Eh
 * total energy  :  -142.7693142 Eh     change       -0.5558434E-05 Eh
 * total energy  :  -142.7693187 Eh     change       -0.4552456E-05 Eh
 * total energy  :  -142.7693229 Eh     change       -0.4157027E-05 Eh
 * total energy  :  -142.7694102 Eh     change       -0.4443830E-06 Eh
 * total energy  :  -142.7694107 Eh     change       -0.5549875E-06 Eh
 * total energy  :  -142.7694113 Eh     change       -0.6257986E-06 Eh
 * total energy  :  -142.7694119 Eh     change       -0.6047786E-06 Eh
 * total energy  :  -142.7694125 Eh     change       -0.5520889E-06 Eh
 * total energy  :  -142.7694130 Eh     change       -0.5269411E-06 Eh
 * total energy  :  -142.7694136 Eh     change       -0.5593417E-06 Eh
 * total energy  :  -142.7694143 Eh     change       -0.6959635E-06 Eh
 * total energy  :  -142.7694143 Eh     change       -0.1927589E-08 Eh
   *** GEOMETRY OPTIMIZATION CONVERGED AFTER 68 ITERATIONS ***

 final structure:
================
94
 xtb: 6.7.1 (edcfbbe)
O           -3.96395067104406        3.20949746294502        1.47743192310972
C           -2.67268806414050        2.85320661084245        1.22868244265153
C           -1.62838760624636        3.75493500764266        1.37980156542641
C           -0.31977339826855        3.36406391163915        1.17379296275447
C           -0.01694065885617        2.04907208774163        0.82860816722241
C            1.37249803496902        1.61630479824090        0.63279030605116
C            1.79343527891768        0.36101244465126        1.07041446834202
C            3.09343507572485       -0.05562546317653        0.87740511898585
C            4.01722441994415        0.76757046631316        0.23492880879503
C            5.40832652637112        0.33733906665329        0.02598531739967
C            5.72181079027632       -0.89227263261739       -0.44025823393263
C            7.10449013526862       -1.39651989673189       -0.47253289984243
C            7.94694222793138       -1.25796122962405        0.62887550155005
C            9.23521465316331       -1.75575917604921        0.59263587422740
C            9.70339120011819       -2.39977667029502       -0.54104424859208
C            8.86992985269618       -2.55390257401514       -1.63634012897129
C            7.57834697810206       -2.06344182945621       -1.60074785829259
C            4.70280471952058       -1.82436997982469       -0.95117356406959
C            3.71087520927988       -1.39494156782493       -1.83091110694131
C            2.76848882918391       -2.28312832250269       -2.31215291246714
C            2.80202833729173       -3.61350156587532       -1.92722021053415
C            3.79377777702053       -4.05393258163907       -1.06683511063032
C            4.74122889833556       -3.16909128197388       -0.58752905679931
C            6.43145563090540        1.34340409220721        0.35587081311119
C            7.49589248015271        1.59853432955280       -0.50652620424886
C            8.43637294132040        2.56095597386057       -0.19331589944529
C            8.32984221848026        3.28472295330694        0.98312163392160
C            7.26834434569763        3.04813988621512        1.84060806500551
C            6.32209316420262        2.09088096969084        1.52700721506418
C            3.60435521051252        2.03243071108928       -0.18001323104292
C            2.30225561638452        2.44703912811775        0.01039781892641
C           -1.06690170242462        1.15070595624201        0.67132823722760
C           -2.38973606585403        1.53582306709522        0.84338320002075
C           -3.43831533526542        0.53925687795618        0.66708817019477
N           -3.37882068761153       -0.67141057001804        1.15752480736923
C           -4.53877902860450       -1.29816135395130        0.81058618306230
C           -4.76769719046404       -2.68572982504471        1.18379397570546
C           -4.11349097143227       -3.19756694058014        2.30386454444195
C           -4.30562381604174       -4.50978571032946        2.68907392573591
C           -5.14892298366514       -5.33292916700600        1.96037887908612
C           -5.78715137771642       -4.83775275562095        0.83504826902147
C           -5.59731495873269       -3.52587082770362        0.44354196877492
C           -5.33178136790667       -0.42597371558802        0.08345588622492
C           -6.64998522718704       -0.59265376031933       -0.51437396874901
C           -6.88353132929582       -0.24476955415838       -1.84370912771484
C           -8.14144784236701       -0.40152107687459       -2.39495732488636
C           -9.18020607816346       -0.90655910375637       -1.63120561305308
C           -8.95458810445379       -1.26036220719345       -0.31045032372079
C           -7.70035505730911       -1.10409098510201        0.24693054418282
N           -4.60957479032717        0.74371511962299       -0.01157196629828
C           -4.99110325161428        1.90647566236272       -0.69772680564538
C           -4.10380934862278        2.49760543630420       -1.59056744019316
C           -4.47381690826161        3.64536726171812       -2.26715202323546
C           -5.72723872904884        4.19922059113114       -2.06796372868380
C           -6.61101825913947        3.60587943270425       -1.18145433768076
C           -6.24800829912659        2.46428358638195       -0.49244385559452
H           -3.99665213957612        4.13214976191301        1.75714983986405
H           -1.84901321121170        4.77223213984896        1.67768024600641
H            0.47519216380178        4.08052440084633        1.31604174578837
H            1.09629074867993       -0.28305370354838        1.58525298120974
H            3.40602053655951       -1.02501593933672        1.23669007545944
H            7.58133490009689       -0.76730458399092        1.51900308413442
H            9.87707812830054       -1.64395110653186        1.45445462846592
H           10.71197636081643       -2.78526157958602       -0.56847279751857
H            9.22761114184931       -3.06045343300540       -2.52118955149530
H            6.92869627411683       -2.18329299908548       -2.45652176340062
H            3.68889589760792       -0.36121021890965       -2.14356681808251
H            2.00456935282556       -1.93679506111702       -2.99308584676671
H            2.06108757471753       -4.30496031327666       -2.30040255094244
H            3.82916452560249       -5.09173296503577       -0.76845559971306
H            5.51287694039227       -3.51343680964509        0.08678193262594
H            7.57581918166903        1.04477297178230       -1.43047543047142
H            9.25568909753309        2.74999192563838       -0.87170444294059
H            9.06828779356454        4.03403333448210        1.22779450393726
H            7.17694814275140        3.61338854531332        2.75696043643317
H            5.49463857036994        1.90561284846872        2.19762703849320
H            4.31141247432316        2.68452725854343       -0.67373996364802
H            1.99514244822336        3.41907366663050       -0.34780594064399
H           -0.87235722704074        0.12789137641489        0.38838973321564
H           -3.45660980230614       -2.54498586554915        2.85781894485394
H           -3.79732358761249       -4.89474993278144        3.56163301918609
H           -5.30290194175776       -6.35852013419063        2.26330935701679
H           -6.43417164103443       -5.48020954072246        0.25479695138424
H           -6.08411450995437       -3.15479788729939       -0.44611157487454
H           -6.07365546078281        0.13696842137153       -2.44908921159598
H           -8.31026176688540       -0.13059483063814       -3.42704944293667
H          -10.16211903714000       -1.02715664542374       -2.06435752365436
H           -9.76150586452125       -1.65648959540165        0.28855440498801
H           -7.52081201582394       -1.37622604044704        1.27677163420441
H           -3.13069475367183        2.05598252159244       -1.74894522082706
H           -3.78135486374662        4.10391853563613       -2.95753975720372
H           -6.01459182707513        5.09240740363534       -2.60229552720756
H           -7.58790218417139        4.03715933311206       -1.02115847709026
H           -6.92679189851050        2.00807392404080        0.21141150336744

          :  Hamiltonian                  GFN2-xTB          :
         :: gradient norm              0.000034692664 Eh/a0 ::
         :: HOMO-LUMO gap              2.488398154433 eV    ::
         :: SCC energy              -145.457105352700 Eh    ::
         :: -> dispersion             -0.135858774879 Eh    ::
         :: repulsion energy           2.687691074591 Eh    ::

    * Orbital Energies and Occupations

         #    Occupation            Energy/Eh            Energy/eV
      -------------------------------------------------------------
         1        2.0000           -0.7181273             -19.5412
       ...           ...                  ...                  ...
       121        2.0000           -0.4034143             -10.9775
       122        2.0000           -0.4028446             -10.9620
       123        2.0000           -0.4003662             -10.8945
       124        2.0000           -0.3992971             -10.8654
       125        2.0000           -0.3983106             -10.8386
       126        2.0000           -0.3974201             -10.8144
       127        2.0000           -0.3946894             -10.7400
       128        2.0000           -0.3909534             -10.6384
       129        2.0000           -0.3884013             -10.5689
       130        2.0000           -0.3796844             -10.3317
       131        2.0000           -0.3683212             -10.0225
       132        2.0000           -0.3590327              -9.7698
       133        2.0000           -0.3546343              -9.6501 (HOMO)
       134                         -0.2631873              -7.1617 (LUMO)
       135                         -0.2495154              -6.7897
       136                         -0.2382398              -6.4828
       137                         -0.2359060              -6.4193
       138                         -0.2329829              -6.3398
       139                         -0.2309301              -6.2839
       140                         -0.2232794              -6.0757
       141                         -0.2224170              -6.0523
       142                         -0.2220772              -6.0430
       143                         -0.2194327              -5.9711
       144                         -0.2171143              -5.9080
       ...                                ...                  ...
       262                          0.7150879              19.4585
      -------------------------------------------------------------
                  HL-Gap            0.0914469 Eh            2.4884 eV

     #   Z          covCN         q      C6AA      α(0)
     1   8 O        1.659    -0.396    20.773     6.153
     2   6 C        2.848     0.140    24.944     8.185
     3   6 C        2.916    -0.071    29.763     8.946
     4   6 C        2.925    -0.036    28.890     8.814
     5   6 C        2.974     0.002    27.970     8.675
     6   6 C        2.977     0.009    27.814     8.651
     7   6 C        2.923    -0.035    28.868     8.811
     8   6 C        2.922    -0.032    28.799     8.800
     9   6 C        2.979     0.013    27.709     8.635
    10   6 C        2.967    -0.006    28.177     8.707
    11   6 C        2.967    -0.006    28.173     8.706
    12   6 C        2.979     0.016    27.659     8.627
    13   6 C        2.924    -0.032    28.794     8.800
    14   6 C        2.919    -0.030    28.737     8.791
    15   6 C        2.920    -0.031    28.782     8.798
    16   6 C        2.918    -0.030    28.748     8.792
    17   6 C        2.925    -0.032    28.807     8.802
    18   6 C        2.979     0.015    27.668     8.628
    19   6 C        2.924    -0.032    28.797     8.800
    20   6 C        2.919    -0.029    28.729     8.790
    21   6 C        2.920    -0.031    28.764     8.795
    22   6 C        2.918    -0.030    28.737     8.791
    23   6 C        2.925    -0.032    28.804     8.801
    24   6 C        2.979     0.016    27.660     8.627
    25   6 C        2.924    -0.032    28.797     8.800
    26   6 C        2.919    -0.030    28.740     8.791
    27   6 C        2.920    -0.032    28.786     8.798
    28   6 C        2.918    -0.030    28.751     8.793
    29   6 C        2.925    -0.033    28.811     8.802
    30   6 C        2.923    -0.034    28.842     8.807
    31   6 C        2.923    -0.036    28.898     8.816
    32   6 C        2.934    -0.036    28.891     8.815
    33   6 C        2.971    -0.016    28.412     8.743
    34   6 C        3.168     0.130    24.833     8.142
    35   7 N        1.912    -0.291    28.398     7.901
    36   6 C        3.171     0.051    26.497     8.409
    37   6 C        2.973     0.011    27.765     8.643
    38   6 C        2.928    -0.030    28.756     8.794
    39   6 C        2.918    -0.030    28.753     8.793
    40   6 C        2.920    -0.033    28.822     8.804
    41   6 C        2.919    -0.031    28.768     8.795
    42   6 C        2.923    -0.038    28.935     8.821
    43   6 C        3.072     0.012    27.678     8.626
    44   6 C        2.972     0.010    27.785     8.646
    45   6 C        2.924    -0.034    28.843     8.807
    46   6 C        2.919    -0.030    28.740     8.791
    47   6 C        2.920    -0.032    28.788     8.799
    48   6 C        2.919    -0.029    28.715     8.787
    49   6 C        2.925    -0.032    28.805     8.802
    50   7 N        2.852    -0.026    21.750     6.927
    51   6 C        2.914     0.076    26.309     8.411
    52   6 C        2.923    -0.039    28.980     8.828
    53   6 C        2.920    -0.028    28.710     8.787
    54   6 C        2.919    -0.033    28.817     8.803
    55   6 C        2.921    -0.028    28.692     8.784
    56   6 C        2.922    -0.033    28.826     8.805
    57   1 H        0.805     0.301     0.719     1.332
    58   1 H        0.925     0.027     2.625     2.534
    59   1 H        0.926     0.039     2.461     2.453
    60   1 H        0.926     0.038     2.472     2.459
    61   1 H        0.926     0.031     2.573     2.509
    62   1 H        0.926     0.029     2.606     2.524
    63   1 H        0.926     0.029     2.604     2.523
    64   1 H        0.926     0.029     2.605     2.524
    65   1 H        0.926     0.029     2.606     2.525
    66   1 H        0.926     0.028     2.618     2.530
    67   1 H        0.926     0.028     2.617     2.530
    68   1 H        0.926     0.029     2.605     2.524
    69   1 H        0.926     0.030     2.587     2.515
    70   1 H        0.926     0.029     2.595     2.519
    71   1 H        0.926     0.028     2.618     2.530
    72   1 H        0.926     0.028     2.608     2.525
    73   1 H        0.926     0.029     2.607     2.525
    74   1 H        0.926     0.028     2.608     2.526
    75   1 H        0.926     0.028     2.610     2.526
    76   1 H        0.926     0.028     2.614     2.528
    77   1 H        0.926     0.028     2.618     2.530
    78   1 H        0.926     0.029     2.597     2.520
    79   1 H        0.926     0.056     2.247     2.344
    80   1 H        0.926     0.049     2.329     2.386
    81   1 H        0.926     0.028     2.619     2.531
    82   1 H        0.926     0.026     2.650     2.545
    83   1 H        0.926     0.025     2.659     2.550
    84   1 H        0.926     0.025     2.661     2.551
    85   1 H        0.926     0.024     2.674     2.557
    86   1 H        0.926     0.029     2.606     2.524
    87   1 H        0.926     0.030     2.590     2.517
    88   1 H        0.926     0.031     2.568     2.506
    89   1 H        0.926     0.034     2.533     2.489
    90   1 H        0.926     0.037     2.491     2.468
    91   1 H        0.926     0.036     2.502     2.474
    92   1 H        0.926     0.035     2.511     2.478
    93   1 H        0.926     0.037     2.490     2.468
    94   1 H        0.926     0.043     2.411     2.428

molecular dipole:
                 x           y           z       tot (Debye)
 q only:       -0.110       1.192      -0.337
   full:       -0.377       1.635      -0.509       4.456

 projected vibrational frequencies (cm⁻¹)
eigval :       -0.00    -0.00    -0.00    -0.00     0.00     0.00
eigval :        7.93     8.75     9.77    20.30    23.30    30.64
eigval :       32.93    37.43    43.27    46.01    52.44    52.63
eigval :       56.47    59.04    60.98    67.48    72.43    73.10
eigval :       80.65    82.88    89.60   116.22   126.43   129.25
eigval :      132.56   153.88   161.68   180.36   199.84   218.57
eigval :      226.28   231.77   235.84   238.48   244.23   248.49
eigval :      249.89   262.33   275.44   282.57   307.92   343.38
eigval :      353.76   363.54   368.73   371.11   372.16   375.54
eigval :      376.07   377.02   380.62   382.56   389.32   407.00
eigval :      422.95   424.39   447.09   459.61   466.96   474.31
eigval :      478.96   495.59   498.09   518.33   537.24   544.27
eigval :      557.61   572.40   582.47   585.13   587.36   588.52
eigval :      589.93   590.75   596.48   602.29   611.76   631.57
eigval :      639.31   642.41   648.27   655.98   663.64   665.16
eigval :      670.40   671.56   675.16   678.22   679.19   686.31
eigval :      699.49   703.29   707.01   727.70   750.34   756.16
eigval :      760.23   762.08   762.70   764.42   785.46   809.50
eigval :      828.99   840.19   859.09   873.43   874.92   877.29
eigval :      877.80   877.97   878.08   878.36   884.75   888.49
eigval :      898.45   901.25   901.30   902.14   902.44   902.97
eigval :      909.09   920.33   927.37   929.50   929.70   929.77
eigval :      929.93   930.07   930.99   931.09   931.15   931.50
eigval :      931.83   932.01   932.14   940.21   943.21   957.25
eigval :      975.07   980.98   991.86  1000.57  1012.34  1025.07
eigval :     1032.85  1080.03  1082.12  1083.78  1084.07  1085.01
eigval :     1085.88  1087.70  1093.92  1118.43  1118.83  1121.32
eigval :     1121.76  1122.80  1124.04  1125.53  1143.64  1157.02
eigval :     1165.45  1174.30  1181.03  1181.89  1182.05  1182.10
eigval :     1182.16  1182.20  1192.35  1195.58  1198.83  1199.53
eigval :     1200.86  1201.32  1206.52  1213.47  1238.73  1242.85
eigval :     1267.02  1270.99  1274.87  1277.46  1281.11  1282.59
eigval :     1282.75  1283.11  1284.43  1292.22  1302.88  1313.35
eigval :     1315.76  1316.54  1317.96  1319.07  1319.50  1322.41
eigval :     1322.74  1333.23  1338.24  1365.60  1394.47  1402.05
eigval :     1423.20  1429.94  1430.72  1431.34  1432.00  1435.97
eigval :     1438.86  1453.80  1464.85  1469.38  1474.79  1476.69
eigval :     1483.77  1490.54  1501.13  1541.31  1557.38  1560.63
eigval :     1576.02  1578.23  1578.59  1578.79  1580.13  1582.02
eigval :     1585.90  1586.27  1592.06  1595.08  1596.93  1597.68
eigval :     1598.23  1600.19  1601.68  1615.06  3051.59  3067.02
eigval :     3068.38  3068.97  3069.29  3070.02  3071.30  3071.77
eigval :     3072.37  3072.78  3072.87  3075.16  3078.03  3079.10
eigval :     3079.40  3080.01  3081.29  3081.50  3081.51  3082.02
eigval :     3083.34  3085.65  3086.10  3086.51  3087.71  3089.19
eigval :     3091.16  3091.69  3091.93  3092.17  3092.86  3093.26
eigval :     3094.05  3095.79  3103.03  3103.75  3104.60  3519.51

   temp. (K)  partition function   enthalpy   heat capacity  entropy
                                   cal/mol     cal/K/mol   cal/K/mol   J/K/mol
 298.15  VIB  0.958E+23            27503.206    168.526    175.426
         ROT  0.151E+09              888.752      2.981     40.403
         INT  0.144E+32            28391.958    171.507    215.830
         TR   0.186E+29             1481.254      4.968     45.577
         TOT                       29873.2119   176.4748   261.4065  1093.7250

       T/K    H(0)-H(T)+PV         H(T)/Eh          T*S/Eh         G(T)/Eh
   ------------------------------------------------------------------------
    298.15    0.476060E-01    0.778661E+00    0.124203E+00    0.654458E+00
   ------------------------------------------------------------------------

         :::::::::::::::::::::::::::::::::::::::::::::::::::::
         ::                  THERMODYNAMIC                  ::
         :::::::::::::::::::::::::::::::::::::::::::::::::::::
         :: total free energy        -142.114956185546 Eh   ::
         ::.................................................::
         :: total energy             -142.769414278108 Eh   ::
         :: zero point energy           0.731054784882 Eh   ::
         :: G(RRHO) w/o ZPVE           -0.076596692320 Eh   ::
         :: G(RRHO) contrib.            0.654458092562 Eh   ::
         :::::::::::::::::::::::::::::::::::::::::::::::::::::

           -------------------------------------------------
          | TOTAL ENERGY             -142.769414278108 Eh   |
          | TOTAL ENTHALPY           -141.990753499880 Eh   |
          | TOTAL FREE ENERGY        -142.114956185546 Eh   |
          | GRADIENT NORM               0.000034693887 Eh/α |
          | HOMO-LUMO GAP               2.488397778556 eV   |
           -------------------------------------------------

 * finished run on 2025/07/20 at 20:31:12.648
