   * xtb version 6.7.1 (edcfbbe) compiled by 'albert@albert-system' on 2024-07-22

   ID    Z sym.   atoms
    1    8 O      1, 3
    2   16 S      2
    3    6 C      4-7, 9-28, 30-45
    4    7 N      8, 29
    5    1 H      46-73

          program call               : xtb data2507/gas/ethylacetate/ethylacetate_gas_T1_crest.xyz --gfn 2 --spinpol --tblite --uhf 2 --ohess vtight --parallel 40 --molden --ceasefiles --namespace data2507/gas/ethylacetate/ethylacetate_gas_T1_finalOpt
 * total energy  :  -117.0469219 Eh     change       -0.1300127E-07 Eh
 * total energy  :  -117.0469382 Eh     change       -0.1624905E-04 Eh
 * total energy  :  -117.0469433 Eh     change       -0.5124331E-05 Eh
 * total energy  :  -117.0469446 Eh     change       -0.1312515E-05 Eh
 * total energy  :  -117.0469458 Eh     change       -0.1178353E-05 Eh
 * total energy  :  -117.0469471 Eh     change       -0.1273949E-05 Eh
 * total energy  :  -117.0469487 Eh     change       -0.1622638E-05 Eh
 * total energy  :  -117.0469506 Eh     change       -0.1953524E-05 Eh
 * total energy  :  -117.0469525 Eh     change       -0.1877795E-05 Eh
 * total energy  :  -117.0469539 Eh     change       -0.1421370E-05 Eh
 * total energy  :  -117.0469572 Eh     change       -0.7079609E-06 Eh
 * total energy  :  -117.0469579 Eh     change       -0.6495838E-06 Eh
 * total energy  :  -117.0469584 Eh     change       -0.5558012E-06 Eh
 * total energy  :  -117.0469589 Eh     change       -0.4521389E-06 Eh
 * total energy  :  -117.0469594 Eh     change       -0.4925805E-06 Eh
 * total energy  :  -117.0469597 Eh     change       -0.3277327E-06 Eh
 * total energy  :  -117.0469600 Eh     change       -0.2773597E-06 Eh
 * total energy  :  -117.0469602 Eh     change       -0.2337862E-06 Eh
 * total energy  :  -117.0469602 Eh     change       -0.1753575E-07 Eh
   *** GEOMETRY OPTIMIZATION CONVERGED AFTER 22 ITERATIONS ***

 final structure:
================
73
 xtb: 6.7.1 (edcfbbe)
O           -0.33332535885143       -5.18927554596151       -0.44905389841721
S           -0.35700830429058       -4.27161392336629        0.65829482701895
O           -0.45178112483446       -4.80277975800470        1.99170149976885
C           -1.64877255275421       -3.04077104042520        0.42022154789770
C           -1.86125310653031       -2.55498570162990       -0.85735908626257
C           -2.54946845168042       -1.36911083322149       -1.03002634405095
C           -2.99049249168735       -0.66536753027641        0.08832524624553
N           -3.51668177448921        0.65877053447200       -0.05458818463402
C           -2.59168270279874        1.62856063413632        0.30741596340920
C           -1.25177312827878        1.23145921932719        0.45268742035107
C           -0.29268965652820        2.03084791010244        1.02679515643194
C           -0.64293578546540        3.30275221584627        1.50839388255929
C           -1.90486975938883        3.76322451109542        1.29708922836464
C           -2.91086049444114        3.00413113933609        0.62307944379599
C           -4.06661374394498        3.67982568931916        0.26742252292482
C           -5.15730642109607        3.23501661497816       -0.50788510634863
C           -5.51359566809985        1.94550884294468       -0.87287221358776
C           -6.74475007244147        1.80226840466862       -1.58246249760573
C           -7.33598510962122        0.59879022444641       -1.81129586226329
C           -6.72674396516500       -0.56562333198309       -1.31785298425306
C           -5.50213855226850       -0.48328187433993       -0.69882949961769
C           -4.81629130814758        0.72843023682620       -0.52319956359074
C           -2.84108021935093       -1.19921783404358        1.36393674238613
C           -2.16432587549155       -2.39381911396362        1.52776542221392
C            0.99657338860917       -3.11496467968555        0.52480206815245
C            1.17297434803647       -2.18704123944408        1.53699681334647
C            2.04834663559142       -1.13811928181553        1.36964726100370
C            2.76854898119556       -0.99475509123224        0.17234855475933
N            3.58252223601748        0.08460296288469       -0.03365740058761
C            4.37799666505775        0.23505281776486       -1.19564826809877
C            5.41043878419746       -0.66011287386459       -1.44674892333573
C            6.16816544538729       -0.54560149205871       -2.59694940787144
C            5.89467908363184        0.46739147423926       -3.50392935492868
C            4.87643345352561        1.36410645441828       -3.25231395014067
C            4.11042903201452        1.27960423916235       -2.08744902884629
C            3.07450632463194        2.26829729534502       -1.83941652064352
C            2.71302728665191        2.75854301749726       -0.64687420392073
C            3.29251851066693        2.40392710567852        0.63828229362845
C            3.40358884787538        3.38007187955563        1.63108078623728
C            3.99308221348023        3.09817286475061        2.84647875174587
C            4.48761664099422        1.82760582526641        3.10015850880355
C            4.36936894003746        0.83992100119154        2.14010135767247
C            3.75741076866977        1.11474312345397        0.92353978369440
C            2.58042417297388       -1.95152037308584       -0.83834836631648
C            1.69449294238011       -2.99196622096837       -0.66304193450354
H           -1.46003446493251       -3.10083486013876       -1.69651121115581
H           -2.70655132944194       -0.95464832051824       -2.01437072091040
H           -0.93566302711379        0.25832335012963        0.11127291006230
H            0.71880569012526        1.66917489014234        1.11638136233078
H            0.09258593500134        3.90932889784144        2.01512805014502
H           -2.17776102512599        4.75880275008879        1.61596791634958
H           -4.11099522020732        4.72012249758378        0.56238236387949
H           -5.84626716852469        4.01226613075250       -0.81166680731062
H           -7.22593636265696        2.71087625546544       -1.91405707316960
H           -8.27458379592022        0.53594397441683       -2.34041196358701
H           -7.20786672032184       -1.52402605372166       -1.43078469054786
H           -5.05776312839004       -1.40003419279526       -0.34448639708681
H           -3.21744220019223       -0.65249798049631        2.21518309726627
H           -2.00550808897207       -2.82502457800136        2.50345758029943
H            0.61598079148021       -2.29810655561996        2.45377114285238
H            2.16319276033199       -0.40999939094155        2.15715482849891
H            5.59820952172641       -1.45593240016627       -0.74088357640036
H            6.96354519901249       -1.24904774042605       -2.79050135984996
H            6.47712386807204        0.55381184672310       -4.40872005929207
H            4.66707632548572        2.15554811627845       -3.95734669875543
H            2.63022004594296        2.69779731504549       -2.72807966015739
H            1.98752219427510        3.56105466967382       -0.61648693162823
H            3.02782245106293        4.37255597680343        1.42861478153753
H            4.07039565794254        3.86782556031465        3.59954452942004
H            4.95448643155137        1.60459370193084        4.04741738222050
H            4.73322469432802       -0.15898598004069        2.33154374859972
H            3.11369388848077       -1.85362167636665       -1.77110310288196
H            1.52944830639446       -3.72193821839550       -1.43988690401888

 projected vibrational frequencies (cm⁻¹)
eigval :       -0.00    -0.00    -0.00    -0.00    -0.00     0.00
eigval :        8.92    10.10    19.18    20.65    35.34    38.92
eigval :       50.00    52.89    58.87    63.21    67.72    88.96
eigval :       96.94    98.70   116.03   125.01   140.30   146.42
eigval :      155.22   159.97   188.68   197.34   217.03   230.61
eigval :      251.97   268.40   283.17   287.39   304.22   311.85
eigval :      314.52   318.04   321.47   335.32   351.41   358.21
eigval :      368.30   378.44   380.04   396.02   399.68   412.99
eigval :      425.48   427.78   441.12   446.07   448.99   461.32
eigval :      483.01   483.93   498.15   506.87   517.35   517.58
eigval :      532.91   536.11   553.40   554.80   561.26   581.66
eigval :      587.29   602.27   607.69   626.68   635.51   648.15
eigval :      655.40   662.71   672.80   680.85   686.07   697.52
eigval :      702.14   714.99   722.57   727.29   746.31   767.37
eigval :      770.77   782.54   787.05   792.46   798.29   805.60
eigval :      814.24   818.56   842.61   844.14   855.79   857.26
eigval :      859.46   870.37   882.68   884.37   888.03   891.54
eigval :      893.75   897.62   903.99   904.96   905.47   907.68
eigval :      909.27   914.87   916.98   920.09   921.44   922.69
eigval :      926.43   928.50   929.90   995.81  1000.97  1084.87
eigval :     1088.67  1091.08  1091.54  1093.93  1103.02  1108.55
eigval :     1110.58  1117.55  1129.54  1134.89  1136.39  1142.91
eigval :     1161.03  1166.82  1176.89  1178.90  1181.21  1182.08
eigval :     1184.34  1192.49  1195.05  1212.82  1214.11  1214.85
eigval :     1221.31  1233.44  1237.39  1238.74  1247.11  1254.45
eigval :     1259.21  1260.16  1271.97  1286.68  1309.56  1312.93
eigval :     1319.67  1324.25  1326.69  1343.04  1357.16  1368.02
eigval :     1370.27  1371.00  1385.25  1389.34  1394.89  1411.76
eigval :     1420.95  1438.54  1439.62  1440.14  1450.62  1462.79
eigval :     1465.99  1469.09  1473.85  1487.78  1493.62  1561.83
eigval :     1562.42  1563.91  1566.24  1568.54  1571.00  1574.84
eigval :     1576.93  1586.76  1587.60  1589.78  1644.74  3050.14
eigval :     3051.54  3063.08  3064.83  3073.18  3075.87  3078.77
eigval :     3079.05  3082.54  3083.63  3086.56  3089.31  3090.33
eigval :     3091.12  3093.24  3093.94  3096.38  3097.77  3097.80
eigval :     3098.79  3099.84  3100.82  3106.12  3106.77  3108.18
eigval :     3109.10  3109.29  3112.80

   temp. (K)  partition function   enthalpy   heat capacity  entropy
                                   cal/mol     cal/K/mol   cal/K/mol   J/K/mol
 298.15  VIB  0.340E+17            21349.019    136.037    132.497
         ROT  0.591E+08              888.752      2.981     38.542
         INT  0.201E+25            22237.771    139.018    171.039
         TR   0.142E+29             1481.254      4.968     45.042
         TOT                       23719.0249   143.9865   216.0808   904.0820

       T/K    H(0)-H(T)+PV         H(T)/Eh          T*S/Eh         G(T)/Eh
   ------------------------------------------------------------------------
    298.15    0.377987E-01    0.589053E+00    0.102667E+00    0.486386E+00
   ------------------------------------------------------------------------

         :::::::::::::::::::::::::::::::::::::::::::::::::::::
         ::                  THERMODYNAMIC                  ::
         :::::::::::::::::::::::::::::::::::::::::::::::::::::
         :: total free energy        -116.560573969285 Eh   ::
         ::.................................................::
         :: total energy             -117.046960224956 Eh   ::
         :: zero point energy           0.551254535728 Eh   ::
         :: G(RRHO) w/o ZPVE           -0.064868280057 Eh   ::
         :: G(RRHO) contrib.            0.486386255671 Eh   ::
         :::::::::::::::::::::::::::::::::::::::::::::::::::::

           -------------------------------------------------
          | TOTAL ENERGY             -117.046960224956 Eh   |
          | TOTAL ENTHALPY           -116.457907016985 Eh   |
          | TOTAL FREE ENERGY        -116.560573969285 Eh   |
          | GRADIENT NORM               0.000065594416 Eh/α |
           -------------------------------------------------

 * finished run on 2025/09/10 at 16:15:11.272
