   * xtb version 6.7.1 (edcfbbe) compiled by 'albert@albert-system' on 2024-07-22

   ID    Z sym.   atoms
    1    8 O      1, 3
    2   16 S      2
    3    6 C      4-7, 9-28, 30-45
    4    7 N      8, 29
    5    1 H      46-73

          program call               : xtb data2507/gas/ethylacetate/ethylacetate.xyz --gfn 2 --ohess vtight --parallel 40 --molden --ceasefiles --namespace data2507/gas/ethylacetate/ethylacetate_gas_S0_preOpt
          :  Hamiltonian                  GFN2-xTB          :
 * total energy  :  -117.0696179 Eh     change       -0.8884626E-09 Eh
 * total energy  :  -117.0823616 Eh     change       -0.1274374E-01 Eh
 * total energy  :  -117.0864369 Eh     change       -0.4075250E-02 Eh
 * total energy  :  -117.0875388 Eh     change       -0.1101941E-02 Eh
 * total energy  :  -117.0881868 Eh     change       -0.6479524E-03 Eh
 * total energy  :  -117.0885207 Eh     change       -0.3338742E-03 Eh
 * total energy  :  -117.0887650 Eh     change       -0.2443033E-03 Eh
 * total energy  :  -117.0889627 Eh     change       -0.1977353E-03 Eh
 * total energy  :  -117.0891443 Eh     change       -0.1816000E-03 Eh
 * total energy  :  -117.0893144 Eh     change       -0.1700733E-03 Eh
 * total energy  :  -117.0920979 Eh     change       -0.7337607E-06 Eh
 * total energy  :  -117.0920986 Eh     change       -0.7263702E-06 Eh
 * total energy  :  -117.0920993 Eh     change       -0.7226983E-06 Eh
 * total energy  :  -117.0921001 Eh     change       -0.7184828E-06 Eh
 * total energy  :  -117.0921008 Eh     change       -0.7180866E-06 Eh
 * total energy  :  -117.0921015 Eh     change       -0.7172814E-06 Eh
 * total energy  :  -117.0921022 Eh     change       -0.7201479E-06 Eh
 * total energy  :  -117.0921029 Eh     change       -0.7226427E-06 Eh
 * total energy  :  -117.0921029 Eh     change       -0.6781320E-08 Eh
   *** GEOMETRY OPTIMIZATION CONVERGED AFTER 540 ITERATIONS ***

 final structure:
================
73
 xtb: 6.7.1 (edcfbbe)
O           -0.00289558655215        5.08495285912877       -1.07505407989003
S           -0.03306008859816        3.88979940099345       -1.87427558824861
O           -0.08056907612761        4.01526300529337       -3.30506068222037
C           -1.37567417966320        2.82864096194329       -1.32799042394000
C           -2.07681250156986        2.06964050944395       -2.24249554653743
C           -2.99382436172348        1.13732588210665       -1.78723515747538
C           -3.19317424117788        0.95989275787034       -0.42297883883698
N           -4.10334314540438       -0.05905048318948       -0.02242942431533
C           -5.38220377149225        0.34848035551629        0.40680490900248
C           -5.55079843604469        1.61860349106447        0.95572725495180
C           -6.79347365163300        2.08619367515011        1.34624062659982
C           -7.91194099905830        1.29012102624529        1.19572403764507
C           -7.76581898256796        0.04356394146030        0.61903877824533
C           -6.52537205614045       -0.44619095032615        0.21347074043147
C           -6.52287902295128       -1.74348641611189       -0.44397425093458
C           -5.52878603224788       -2.62766402216563       -0.52927179398455
C           -4.18497167772353       -2.52591341864994        0.01627347788570
C           -3.51559645230679       -3.72355567494529        0.26223838903881
C           -2.21334836524610       -3.75723157109516        0.72202124347264
C           -1.54861649703627       -2.56389532684805        0.92671114819009
C           -2.19857797746538       -1.36285965659542        0.70124761458725
C           -3.51958149669796       -1.31210644447108        0.25681687838718
C           -2.48382337578213        1.74440665044933        0.48810499041300
C           -1.57398207262175        2.67945993036305        0.03167581290236
C            1.33592237729498        2.83011852249420       -1.39501522325110
C            1.98428100284911        3.05529653359070       -0.19680778234475
C            2.91555754303104        2.13812816160950        0.25772726290694
C            3.19197474449251        0.99614530065187       -0.49374431650542
N            4.08799045525275       -0.02408795640264       -0.06944374477492
C            3.51543342090456       -1.02730377189781        0.74016649476700
C            2.47396403771954       -0.68965453356495        1.60251937668491
C            1.82941150102926       -1.64276552379268        2.37150650792317
C            2.21193240176172       -2.96855188431411        2.29243178598767
C            3.23250998248890       -3.31902840660298        1.42965997893468
C            3.89842574942034       -2.37492081386824        0.64997694760154
C            4.93794318106808       -2.86394741815569       -0.24091274902695
C            5.99960342552605       -2.20029189862447       -0.70036709735468
C            6.38135403505166       -0.81849116561445       -0.45242872438529
C            7.73552258293986       -0.51083743918045       -0.57400175926225
C            8.21035551063994        0.77901459587938       -0.43770314200860
C            7.30774880075705        1.79934039353229       -0.20801785271313
C            5.95939925100491        1.51692693207897       -0.07708395037806
C            5.47182207228228        0.21499739868454       -0.16881678130093
C            2.53907040040001        0.79476947291856       -1.70649118256660
C            1.60459366836196        1.70950836410116       -2.15649366622839
H           -1.89558177235658        2.22237427096448       -3.29482399510267
H           -3.55288457308911        0.52809571708586       -2.48108852891824
H           -4.70507190326220        2.27758307246113        1.06343960865443
H           -6.87823698745900        3.07889931368593        1.76233202478847
H           -8.88611830399262        1.64161589964140        1.49872302945895
H           -8.63733642537099       -0.57638906041104        0.46323497883435
H           -7.48082596633128       -2.02109512196013       -0.86646761841111
H           -5.73518096667554       -3.57347703083152       -1.01503689768622
H           -4.03781997967987       -4.65054620561664        0.07209688579677
H           -1.71981012281600       -4.70082766226669        0.89682881944577
H           -0.51933978292131       -2.55605499520874        1.25313837223250
H           -1.64592984244782       -0.44996013999520        0.85753983439065
H           -2.62863517434569        1.60369525264530        1.54982282015873
H           -1.01295222189834        3.29729486959196        0.71530660501409
H            1.74733975615560        3.94640061639707        0.36373215199692
H            3.40545019553038        2.29552346189444        1.20805051357672
H            2.14418547974288        0.33513839717569        1.66955342155113
H            1.02668933950741       -1.34141553060033        3.02854703144416
H            1.71378077467421       -3.72220296638475        2.88327051700675
H            3.52759475539870       -4.35528830282166        1.34556526120319
H            4.84838610179761       -3.91360414872954       -0.49221588187932
H            6.71393951007761       -2.74869052296530       -1.30237963664301
H            8.42651703016609       -1.31279789035666       -0.79214432994773
H            9.26482708171009        0.98615958408243       -0.53577077381431
H            7.64415952111790        2.82262088281680       -0.13375046260866
H            5.27932271505934        2.33881303720352        0.07414148578262
H            2.76445267687731       -0.09209842162635       -2.27906530671443
H            1.08338298821515        1.57147927778831       -3.09056942701361

          :  Hamiltonian                  GFN2-xTB          :
         :: gradient norm              0.000081275178 Eh/a0 ::
         :: HOMO-LUMO gap              1.964889615549 eV    ::
         :: SCC energy              -119.157678442467 Eh    ::
         :: -> dispersion             -0.106912271080 Eh    ::
         :: repulsion energy           2.065575505577 Eh    ::

    * Orbital Energies and Occupations

         #    Occupation            Energy/Eh            Energy/eV
      -------------------------------------------------------------
         1        2.0000           -0.7730611             -21.0361
       ...           ...                  ...                  ...
        96        2.0000           -0.4248336             -11.5603
        97        2.0000           -0.4236075             -11.5269
        98        2.0000           -0.4215152             -11.4700
        99        2.0000           -0.4205667             -11.4442
       100        2.0000           -0.4141299             -11.2690
       101        2.0000           -0.4127998             -11.2329
       102        2.0000           -0.4091554             -11.1337
       103        2.0000           -0.4079812             -11.1017
       104        2.0000           -0.4071694             -11.0796
       105        2.0000           -0.3901624             -10.6169
       106        2.0000           -0.3887224             -10.5777
       107        2.0000           -0.3501766              -9.5288
       108        2.0000           -0.3485690              -9.4850 (HOMO)
       109                         -0.2763607              -7.5202 (LUMO)
       110                         -0.2697801              -7.3411
       111                         -0.2675155              -7.2795
       112                         -0.2572758              -7.0008
       113                         -0.2544056              -6.9227
       114                         -0.2530546              -6.8860
       115                         -0.2297527              -6.2519
       116                         -0.2282545              -6.2111
       117                         -0.2221690              -6.0455
       118                         -0.2203485              -5.9960
       119                         -0.2118260              -5.7641
       ...                                ...                  ...
       213                          1.2108241              32.9482
      -------------------------------------------------------------
                  HL-Gap            0.0722084 Eh            1.9649 eV

     #   Z          covCN         q      C6AA      α(0)
     1   8 O        0.860    -0.534    24.552     6.643
     2  16 S        3.821     0.950   108.092    17.498
     3   8 O        0.860    -0.534    24.543     6.642
     4   6 C        2.971    -0.079    29.961     8.979
     5   6 C        2.952    -0.026    28.644     8.778
     6   6 C        2.927    -0.035    28.863     8.811
     7   6 C        2.931     0.078    26.249     8.402
     8   7 N        2.747    -0.104    23.283     7.167
     9   6 C        2.914     0.065    26.535     8.447
    10   6 C        2.925    -0.058    29.452     8.900
    11   6 C        2.920    -0.030    28.759     8.794
    12   6 C        2.915    -0.039    28.971     8.826
    13   6 C        2.935    -0.036    28.904     8.817
    14   6 C        2.972    -0.000    28.026     8.684
    15   6 C        2.903    -0.037    28.923     8.818
    16   6 C        2.903    -0.038    28.948     8.822
    17   6 C        2.972     0.001    28.011     8.681
    18   6 C        2.934    -0.037    28.916     8.819
    19   6 C        2.915    -0.039    28.966     8.825
    20   6 C        2.920    -0.033    28.813     8.802
    21   6 C        2.925    -0.058    29.444     8.899
    22   6 C        2.919     0.065    26.546     8.449
    23   6 C        2.922    -0.035    28.862     8.810
    24   6 C        2.962    -0.031    28.779     8.799
    25   6 C        2.971    -0.079    29.963     8.979
    26   6 C        2.955    -0.029    28.727     8.791
    27   6 C        2.922    -0.035    28.881     8.813
    28   6 C        2.929     0.078    26.260     8.404
    29   7 N        2.748    -0.106    23.328     7.173
    30   6 C        2.921     0.065    26.545     8.449
    31   6 C        2.925    -0.057    29.418     8.895
    32   6 C        2.920    -0.031    28.781     8.797
    33   6 C        2.915    -0.038    28.955     8.824
    34   6 C        2.933    -0.037    28.913     8.818
    35   6 C        2.972     0.002    27.984     8.677
    36   6 C        2.902    -0.038    28.955     8.823
    37   6 C        2.903    -0.036    28.898     8.814
    38   6 C        2.972    -0.000    28.034     8.685
    39   6 C        2.934    -0.036    28.898     8.816
    40   6 C        2.915    -0.039    28.967     8.826
    41   6 C        2.920    -0.030    28.753     8.793
    42   6 C        2.924    -0.058    29.441     8.898
    43   6 C        2.913     0.066    26.530     8.446
    44   6 C        2.928    -0.035    28.868     8.811
    45   6 C        2.959    -0.028    28.698     8.787
    46   1 H        0.926     0.068     2.111     2.272
    47   1 H        0.926     0.060     2.194     2.316
    48   1 H        0.926     0.031     2.567     2.506
    49   1 H        0.926     0.032     2.553     2.499
    50   1 H        0.926     0.032     2.560     2.502
    51   1 H        0.926     0.034     2.535     2.490
    52   1 H        0.925     0.034     2.524     2.484
    53   1 H        0.925     0.034     2.531     2.488
    54   1 H        0.926     0.034     2.528     2.486
    55   1 H        0.926     0.031     2.569     2.506
    56   1 H        0.926     0.033     2.547     2.496
    57   1 H        0.926     0.024     2.666     2.553
    58   1 H        0.926     0.058     2.220     2.330
    59   1 H        0.926     0.056     2.251     2.346
    60   1 H        0.926     0.065     2.136     2.285
    61   1 H        0.926     0.059     2.215     2.327
    62   1 H        0.926     0.026     2.638     2.540
    63   1 H        0.926     0.031     2.574     2.509
    64   1 H        0.926     0.032     2.560     2.502
    65   1 H        0.926     0.034     2.524     2.484
    66   1 H        0.925     0.034     2.531     2.488
    67   1 H        0.925     0.035     2.519     2.482
    68   1 H        0.926     0.034     2.535     2.490
    69   1 H        0.926     0.032     2.558     2.501
    70   1 H        0.926     0.033     2.548     2.496
    71   1 H        0.926     0.032     2.553     2.499
    72   1 H        0.926     0.059     2.209     2.324
    73   1 H        0.926     0.059     2.216     2.328

molecular dipole:
                 x           y           z       tot (Debye)
 q only:        0.033      -2.087       0.821
   full:        0.080      -1.959       0.925       5.510

 projected vibrational frequencies (cm⁻¹)
eigval :       -0.00    -0.00    -0.00    -0.00     0.00     0.00
eigval :        8.04     8.72    17.43    21.62    28.11    31.63
eigval :       36.47    41.30    44.21    49.29    61.91    80.03
eigval :       81.95   104.46   109.60   123.88   145.75   148.12
eigval :      151.49   154.96   184.76   190.36   207.22   236.50
eigval :      241.88   270.64   280.35   284.58   301.31   302.19
eigval :      310.58   311.93   314.25   352.72   354.22   369.17
eigval :      377.63   385.18   390.65   399.21   408.14   420.56
eigval :      423.05   423.84   433.77   448.19   449.28   467.50
eigval :      483.91   497.91   499.10   520.10   523.28   536.81
eigval :      540.41   542.89   546.86   549.02   557.56   589.94
eigval :      591.12   603.64   605.37   630.66   637.69   670.37
eigval :      671.69   675.78   676.93   689.66   695.35   705.26
eigval :      710.37   710.46   719.28   763.20   764.81   775.17
eigval :      777.80   785.25   786.43   811.25   817.81   818.70
eigval :      819.34   857.97   858.46   864.94   865.29   868.47
eigval :      868.59   880.27   887.65   901.08   903.87   906.24
eigval :      906.47   908.05   908.18   909.13   910.15   918.05
eigval :      918.17   919.55   920.98   924.65   925.04   928.39
eigval :      928.88   949.61   951.25  1002.11  1005.51  1086.64
eigval :     1105.52  1107.94  1110.84  1111.60  1113.94  1115.50
eigval :     1117.26  1118.46  1118.94  1136.00  1136.29  1136.54
eigval :     1166.55  1170.23  1178.31  1179.24  1185.17  1186.85
eigval :     1191.98  1194.69  1214.73  1216.21  1217.50  1217.56
eigval :     1235.44  1236.36  1242.14  1243.72  1253.11  1255.40
eigval :     1257.56  1270.74  1272.49  1279.99  1282.10  1293.00
eigval :     1294.84  1311.85  1313.13  1317.38  1317.86  1336.12
eigval :     1337.09  1380.37  1381.60  1388.86  1390.53  1416.72
eigval :     1417.44  1435.21  1435.77  1458.34  1458.61  1463.75
eigval :     1464.20  1487.45  1488.55  1566.86  1567.23  1572.78
eigval :     1573.17  1573.64  1574.21  1578.01  1579.91  1580.90
eigval :     1581.24  1586.15  1586.41  1679.44  1682.75  3039.66
eigval :     3039.75  3054.78  3054.93  3073.45  3073.51  3073.96
eigval :     3074.51  3077.83  3078.91  3079.42  3083.06  3083.12
eigval :     3084.31  3093.91  3094.52  3095.06  3096.31  3097.45
eigval :     3097.58  3100.27  3102.66  3105.59  3106.55  3106.91
eigval :     3107.66  3119.63  3121.41

   temp. (K)  partition function   enthalpy   heat capacity  entropy
                                   cal/mol     cal/K/mol   cal/K/mol   J/K/mol
 298.15  VIB  0.236E+18            21361.680    133.540    133.231
         ROT  0.671E+08              888.752      2.981     38.794
         INT  0.158E+26            22250.432    136.521    172.025
         TR   0.142E+29             1481.254      4.968     45.042
         TOT                       23731.6864   141.4892   217.0672   908.2092

       T/K    H(0)-H(T)+PV         H(T)/Eh          T*S/Eh         G(T)/Eh
   ------------------------------------------------------------------------
    298.15    0.378188E-01    0.590818E+00    0.103136E+00    0.487682E+00
   ------------------------------------------------------------------------

         :::::::::::::::::::::::::::::::::::::::::::::::::::::
         ::                  THERMODYNAMIC                  ::
         :::::::::::::::::::::::::::::::::::::::::::::::::::::
         :: total free energy        -116.604420830462 Eh   ::
         ::.................................................::
         :: total energy             -117.092102936890 Eh   ::
         :: zero point energy           0.552998895168 Eh   ::
         :: G(RRHO) w/o ZPVE           -0.065316788741 Eh   ::
         :: G(RRHO) contrib.            0.487682106427 Eh   ::
         :::::::::::::::::::::::::::::::::::::::::::::::::::::

           -------------------------------------------------
          | TOTAL ENERGY             -117.092102936890 Eh   |
          | TOTAL ENTHALPY           -116.501285192173 Eh   |
          | TOTAL FREE ENERGY        -116.604420830462 Eh   |
          | GRADIENT NORM               0.000081274843 Eh/α |
          | HOMO-LUMO GAP               1.964889735580 eV   |
           -------------------------------------------------

 * finished run on 2025/09/10 at 16:00:53.267
