   * xtb version 6.7.1 (edcfbbe) compiled by 'albert@albert-system' on 2024-07-22

   ID    Z sym.   atoms
    1    8 O      1, 3
    2   16 S      2
    3    6 C      4-7, 9-28, 30-45
    4    7 N      8, 29
    5    1 H      46-73

          program call               : xtb data2507/gas/ethylacetate/ethylacetate_gas_S0_finalOpt.xtbopt.xyz --gfn 2 --spinpol --tblite --uhf 2 --ohess vtight --parallel 40 --molden --ceasefiles --namespace data2507/gas/ethylacetate/ethylacetate_gas_T1_preOpt
 * total energy  :  -117.0275432 Eh     change       -0.4605994E-08 Eh
 * total energy  :  -117.0328136 Eh     change       -0.5270379E-02 Eh
 * total energy  :  -117.0345608 Eh     change       -0.1747198E-02 Eh
 * total energy  :  -117.0350205 Eh     change       -0.4596840E-03 Eh
 * total energy  :  -117.0355445 Eh     change       -0.5239903E-03 Eh
 * total energy  :  -117.0360364 Eh     change       -0.4918996E-03 Eh
 * total energy  :  -117.0370264 Eh     change       -0.9900157E-03 Eh
 * total energy  :  -117.0379717 Eh     change       -0.9453084E-03 Eh
 * total energy  :  -117.0386682 Eh     change       -0.6965061E-03 Eh
 * total energy  :  -117.0401536 Eh     change       -0.1485430E-02 Eh
 * total energy  :  -117.0422883 Eh     change       -0.5410082E-06 Eh
 * total energy  :  -117.0422892 Eh     change       -0.9057616E-06 Eh
 * total energy  :  -117.0422905 Eh     change       -0.1308842E-05 Eh
 * total energy  :  -117.0422923 Eh     change       -0.1736167E-05 Eh
 * total energy  :  -117.0422942 Eh     change       -0.1930291E-05 Eh
 * total energy  :  -117.0422946 Eh     change       -0.3723713E-06 Eh
 * total energy  :  -117.0422951 Eh     change       -0.5714434E-06 Eh
 * total energy  :  -117.0422955 Eh     change       -0.3150538E-06 Eh
 * total energy  :  -117.0422955 Eh     change       -0.3523617E-07 Eh
   *** GEOMETRY OPTIMIZATION CONVERGED AFTER 71 ITERATIONS ***

 final structure:
================
73
 xtb: 6.7.1 (edcfbbe)
O           -0.02975081552015       -3.03009391710245        3.08533749266355
S           -0.03442874041663       -1.59122049414872        3.01730491993093
O           -0.07041552415356       -0.84530870763201        4.24908733651339
C           -1.42120700011446       -1.07126128319050        2.00553575034344
C           -2.09010407156959        0.10402671897789        2.29079011766620
C           -3.11910165062184        0.53156181425009        1.47892477181761
C           -3.49039564660600       -0.20023525639359        0.33760934890424
N           -4.54397559281055        0.20808869022601       -0.46427658095286
C           -4.91429301336861       -0.55684831913041       -1.58480685121186
C           -3.95164612262609       -0.83883660642457       -2.54170689339377
C           -4.21338493943985       -1.68646087814256       -3.60258030937442
C           -5.45556328889168       -2.33489527990471       -3.66934628430932
C           -6.42145135106940       -2.06653490392498       -2.74665294369705
C           -6.23330262297970       -1.11060753372141       -1.69974640952584
C           -7.29746749603832       -0.81322606876440       -0.86048132246456
C           -7.47350313138025        0.33615674701270       -0.03888070986738
C           -6.62194274684645        1.42200292165411        0.10664170037565
C           -7.14515650362087        2.65047017169067        0.61858407381484
C           -6.39610452458857        3.78631989413577        0.69082166594111
C           -5.05496650668451        3.77683738420779        0.27962404469693
C           -4.47926132546886        2.58294989246222       -0.11501876044530
C           -5.21705520751965        1.41147945134934       -0.18609039720873
C           -2.83406125790262       -1.42217485235913        0.10594489334144
C           -1.80718817917454       -1.84147640114553        0.92412765423421
C            1.35948027792791       -1.05281849018160        2.04108280205523
C            1.74484136354117        0.27526484008100        2.07924983630959
C            2.78478105665755        0.71425745516285        1.28979756094767
C            3.45383989038113       -0.17393798492902        0.43234279532660
N            4.50796101958683        0.25209376673484       -0.33208008851633
C            4.90237076173155        1.60964576933373       -0.40822736076361
C            4.02016686252600        2.56486953412067       -0.89887151291044
C            4.38230328085778        3.89825248056110       -0.93235364042542
C            5.63306846288352        4.28425616231820       -0.47464745981330
C            6.51825941802027        3.33642492751902       -0.00292282565136
C            6.18126986512495        1.98138008993012        0.02114522130331
C            7.16161026784439        1.01013248369527        0.47705665791445
C            7.32198066201204       -0.23336283581609        0.00691030934258
C            6.54825720789446       -0.85737016897681       -1.05331946291190
C            7.17617885392623       -1.74746646165511       -1.92717112560375
C            6.48905362135292       -2.32167461250743       -2.97721896928116
C            5.15037004656349       -2.02049564116146       -3.17746933988458
C            4.50356199877657       -1.15793626503396       -2.31262315969605
C            5.18752272589070       -0.59206623957215       -1.24333516213688
C            3.06468212896943       -1.52262912288299        0.43150340937197
C            2.02233970969171       -1.95054857479793        1.22433621909721
H           -1.80767180106455        0.66125469498986        3.17006452719874
H           -3.65477583510335        1.42764721944930        1.74635295482196
H           -2.98080139858742       -0.37087184550063       -2.45285524379225
H           -3.46817975962617       -1.85141786936957       -4.36419572031524
H           -5.64532356011212       -3.03889366192867       -4.46594901857421
H           -7.38728676392532       -2.54509642571295       -2.81492355276082
H           -8.16716711861655       -1.45047657053845       -0.94929363031255
H           -8.45597703324698        0.43805512021251        0.40233831966612
H           -8.18570581341931        2.66536676833165        0.90765905800130
H           -6.83466681598262        4.70466539322043        1.05200623414231
H           -4.47640887063120        4.68667066324046        0.27840585673279
H           -3.43317965129884        2.55351774022043       -0.38737967834172
H           -3.14674487563454       -2.05917732441514       -0.70522896290637
H           -1.31064535310260       -2.78271711337070        0.74900192266338
H            1.23346961534539        0.94838217005433        2.74914056660632
H            3.09910095186893        1.74495653000336        1.34314436137182
H            3.04216704282389        2.25254245411341       -1.23525284968936
H            3.68802597003005        4.63582558565296       -1.30553551565344
H            5.91499236174466        5.32624011635793       -0.48681374835617
H            7.49555601146717        3.63687372672422        0.34606420128134
H            7.87507551484024        1.38479531134881        1.19965147958087
H            8.15903699319768       -0.81741515561163        0.36717186541378
H            8.22134193050875       -1.97590648454810       -1.77665371469497
H            6.99443873472372       -3.00546838951320       -3.64232732252312
H            4.60997316369958       -2.46434834555548       -3.99979519205883
H            3.45628386434176       -0.92897625811372       -2.44641745191624
H            3.59650775989369       -2.23295149776382       -0.18209215131113
H            1.72038257058821       -2.98590166988752        1.23962020141805

 projected vibrational frequencies (cm⁻¹)
eigval :       -0.00    -0.00    -0.00     0.00     0.00     0.00
eigval :        1.68     5.87     7.28    28.11    35.56    38.45
eigval :       42.81    50.59    55.91    58.47    67.60    84.93
eigval :       99.89   103.20   124.12   132.32   138.66   142.23
eigval :      149.45   164.84   167.74   216.54   232.26   240.66
eigval :      254.17   259.91   277.71   297.77   301.56   308.42
eigval :      312.21   321.55   328.10   330.02   350.99   357.44
eigval :      372.62   374.04   377.67   379.50   407.71   417.79
eigval :      428.94   432.25   435.56   444.65   448.87   473.61
eigval :      476.98   478.82   497.17   507.48   508.26   517.16
eigval :      526.35   547.74   553.84   555.66   558.90   580.31
eigval :      587.16   603.76   607.66   623.25   635.55   656.35
eigval :      658.45   667.56   671.98   674.42   686.54   693.43
eigval :      705.25   715.11   716.23   724.32   744.83   763.64
eigval :      770.17   782.19   787.79   792.90   798.13   798.87
eigval :      806.65   818.65   840.37   843.34   851.91   857.72
eigval :      858.85   860.08   882.79   883.55   890.90   892.38
eigval :      903.33   905.23   907.29   907.53   910.56   911.87
eigval :      913.04   916.83   920.12   920.80   922.64   924.28
eigval :      928.37   928.72   929.30   993.94   999.05  1069.40
eigval :     1074.75  1087.21  1092.19  1092.46  1098.26  1104.41
eigval :     1120.58  1128.18  1131.27  1133.91  1134.39  1137.19
eigval :     1138.09  1171.83  1172.48  1177.20  1179.06  1182.11
eigval :     1185.13  1192.87  1199.70  1201.28  1212.40  1214.11
eigval :     1216.09  1233.65  1235.35  1238.01  1254.29  1257.06
eigval :     1260.02  1260.10  1275.57  1282.99  1286.62  1297.35
eigval :     1320.22  1324.69  1329.48  1342.29  1353.75  1354.45
eigval :     1363.51  1370.05  1374.38  1375.09  1393.26  1405.19
eigval :     1410.72  1420.64  1426.04  1440.18  1449.93  1450.51
eigval :     1466.53  1469.12  1474.23  1482.87  1491.57  1528.75
eigval :     1550.37  1559.50  1563.26  1564.15  1567.92  1568.52
eigval :     1576.90  1583.38  1586.81  1587.54  1645.80  3050.23
eigval :     3055.51  3063.46  3066.92  3067.78  3068.75  3076.10
eigval :     3076.74  3078.56  3078.97  3080.26  3081.40  3087.58
eigval :     3088.29  3089.05  3089.85  3095.47  3096.57  3098.59
eigval :     3099.52  3102.60  3102.73  3103.14  3103.60  3106.54
eigval :     3107.37  3115.01  3115.47

   temp. (K)  partition function   enthalpy   heat capacity  entropy
                                   cal/mol     cal/K/mol   cal/K/mol   J/K/mol
 298.15  VIB  0.706E+18            21379.578    135.887    135.284
         ROT  0.819E+08              888.752      2.981     39.192
         INT  0.579E+26            22268.330    138.868    174.475
         TR   0.142E+29             1481.254      4.968     45.042
         TOT                       23749.5840   143.8360   219.5173   918.4605

       T/K    H(0)-H(T)+PV         H(T)/Eh          T*S/Eh         G(T)/Eh
   ------------------------------------------------------------------------
    298.15    0.378474E-01    0.588325E+00    0.104300E+00    0.484025E+00
   ------------------------------------------------------------------------

         :::::::::::::::::::::::::::::::::::::::::::::::::::::
         ::                  THERMODYNAMIC                  ::
         :::::::::::::::::::::::::::::::::::::::::::::::::::::
         :: total free energy        -116.558270273680 Eh   ::
         ::.................................................::
         :: total energy             -117.042295520408 Eh   ::
         :: zero point energy           0.550477637742 Eh   ::
         :: G(RRHO) w/o ZPVE           -0.066452391014 Eh   ::
         :: G(RRHO) contrib.            0.484025246728 Eh   ::
         :::::::::::::::::::::::::::::::::::::::::::::::::::::

           -------------------------------------------------
          | TOTAL ENERGY             -117.042295520408 Eh   |
          | TOTAL ENTHALPY           -116.453970511481 Eh   |
          | TOTAL FREE ENERGY        -116.558270273680 Eh   |
          | GRADIENT NORM               0.000162970387 Eh/α |
           -------------------------------------------------

 * finished run on 2025/09/10 at 16:08:11.961
