   * xtb version 6.7.1 (edcfbbe) compiled by 'albert@albert-system' on 2024-07-22

   ID    Z sym.   atoms
    1    8 O      1, 3
    2   16 S      2
    3    6 C      4-7, 9-28, 30-45
    4    7 N      8, 29
    5    1 H      46-73

          program call               : xtb data2507/gas/ethylacetate/ethylacetate_gas_S0_crest.xyz --gfn 2 --ohess vtight --parallel 40 --molden --ceasefiles --namespace data2507/gas/ethylacetate/ethylacetate_gas_S0_finalOpt
          :  Hamiltonian                  GFN2-xTB          :
 * total energy  :  -117.1193310 Eh     change       -0.6530740E-09 Eh
 * total energy  :  -117.1193323 Eh     change       -0.1271523E-05 Eh
 * total energy  :  -117.1193331 Eh     change       -0.8103413E-06 Eh
 * total energy  :  -117.1193347 Eh     change       -0.1676813E-05 Eh
 * total energy  :  -117.1193360 Eh     change       -0.1237839E-05 Eh
 * total energy  :  -117.1193374 Eh     change       -0.1366211E-05 Eh
 * total energy  :  -117.1193385 Eh     change       -0.1125195E-05 Eh
 * total energy  :  -117.1193392 Eh     change       -0.7241834E-06 Eh
 * total energy  :  -117.1193398 Eh     change       -0.6115429E-06 Eh
 * total energy  :  -117.1193404 Eh     change       -0.6128330E-06 Eh
 * total energy  :  -117.1193591 Eh     change       -0.5372457E-06 Eh
 * total energy  :  -117.1193592 Eh     change       -0.1274810E-06 Eh
 * total energy  :  -117.1193593 Eh     change       -0.1659463E-06 Eh
 * total energy  :  -117.1193596 Eh     change       -0.2696505E-06 Eh
 * total energy  :  -117.1193599 Eh     change       -0.2646113E-06 Eh
 * total energy  :  -117.1193601 Eh     change       -0.2339526E-06 Eh
 * total energy  :  -117.1193603 Eh     change       -0.2024186E-06 Eh
 * total energy  :  -117.1193605 Eh     change       -0.1452195E-06 Eh
 * total energy  :  -117.1193606 Eh     change       -0.8799432E-07 Eh
   *** GEOMETRY OPTIMIZATION CONVERGED AFTER 53 ITERATIONS ***

 final structure:
================
73
 xtb: 6.7.1 (edcfbbe)
O            0.02869927745797       -3.08921956339557        3.07171540641591
S            0.00628869554254       -1.64858464516895        3.01420100092230
O           -0.01151517432593       -0.91749003015871        4.25700041096628
C           -1.39253086450349       -1.12796139594616        2.02965893546016
C           -2.07161886068405        0.03351443242039        2.34719329938026
C           -3.11829199416790        0.46001860803353        1.55837962045544
C           -3.49679778276337       -0.26957596242265        0.42154201631315
N           -4.55946687051704        0.13339501595580       -0.34807970958330
C           -4.94933930000087       -0.53730095515674       -1.53164495648609
C           -4.06489164866088       -0.64118186036898       -2.59885961388936
C           -4.42365240963069       -1.33484189261577       -3.73916998556804
C           -5.67394259296608       -1.92889799954954       -3.81990269316182
C           -6.56181897258027       -1.81270789970560       -2.76979089494786
C           -6.22779462329559       -1.10016505602762       -1.61633942878774
C           -7.21184535156344       -0.95879542917769       -0.55596919324418
C           -7.37624464852567        0.11004999851705        0.23326766691801
C           -6.60288658989057        1.33978310921765        0.18538202352415
C           -7.23276197608041        2.55609686134343        0.45676146505646
C           -6.54581857561083        3.75020396526230        0.37442852950194
C           -5.20523837717474        3.75552756420721        0.02011242149024
C           -4.55700481945135        2.56162362906433       -0.23381417941955
C           -5.24062666572440        1.35551007489735       -0.13422770039936
C           -2.81307150664441       -1.46084373338556        0.13409910495039
C           -1.76786282876545       -1.87751730718183        0.92982533729300
C            1.39925684007012       -1.09753133972278        2.03763244829728
C            1.74258172503786        0.24213969216825        2.03956068206409
C            2.78422653005112        0.68925847253484        1.25597219491456
C            3.49806700840647       -0.20350746770967        0.44184642469910
N            4.55795091910659        0.23163183088269       -0.31391537459692
C            4.90812680112539        1.59778802781696       -0.43037858137198
C            4.00220627136970        2.50708678534821       -0.96379743880366
C            4.32116323995371        3.84977116161504       -1.03824483111260
C            5.55279027677259        4.29211589362121       -0.57981449452473
C            6.46185304356816        3.39009406015055       -0.06552035904157
C            6.16835226647548        2.02656579289339        0.00124815035270
C            7.17375916049409        1.10456176629022        0.50299406803227
C            7.38176923931260       -0.14749204489576        0.07699944542483
C            6.64390998517398       -0.83114883325526       -0.97219378509335
C            7.31352686600982       -1.72705901008157       -1.80811249499227
C            6.66071665596942       -2.35888071415895       -2.84694183995241
C            5.31548873556913       -2.11033347855127       -3.07346233341457
C            4.62844406326790       -1.24206378610674       -2.24629256381765
C            5.27770671280438       -0.61820282694526       -1.18743686064348
C            3.15181914670613       -1.56239222055289        0.47729613752182
C            2.10715178122164       -1.99808369174208        1.26397310738613
H           -1.77809568742641        0.58014701999435        3.22956324981331
H           -3.66148914518987        1.35253674267716        1.82766504701219
H           -3.08739216388656       -0.18859108297041       -2.51617491319656
H           -3.72709382607959       -1.41981390947274       -4.55958966734125
H           -5.95351960853880       -2.48247141309469       -4.70358301231045
H           -7.53890077521766       -2.26905325119466       -2.83605401383217
H           -7.92430673727472       -1.77029887323928       -0.48160161814623
H           -8.21548630200181        0.12335168189833        0.91674216058587
H           -8.27922689591134        2.55276301219127        0.72551008422142
H           -7.05269408162002        4.67949692355338        0.58646146936736
H           -4.66453727613545        4.68735963030240       -0.04885610594853
H           -3.50823276109854        2.55049200971472       -0.49280249233413
H           -3.11888430287475       -2.06436796979812       -0.70642617200347
H           -1.24384389441973       -2.79702575901723        0.72138650083131
H            1.19675406620332        0.92063465290304        2.67613109192467
H            3.06440886095518        1.73093815004397        1.28205870798987
H            3.03924800780136        2.15179561375796       -1.30094503090647
H            3.60810970377826        4.55120982038549       -1.44450628487959
H            5.80112685379139        5.34179968494789       -0.62448919289578
H            7.42428905594058        3.73400593146323        0.28485604493672
H            7.86355478359537        1.52675424709394        1.22243417952808
H            8.23208885180249       -0.69146778274866        0.46775639206039
H            8.36362673476529       -1.91475724428348       -1.63667305901113
H            7.19794525780092       -3.04659657769091       -3.48246724309436
H            4.80145830016026       -2.59944634973285       -3.88706932315583
H            3.57594949454312       -1.05368209933157       -2.40079165640091
H            3.71789938128979       -2.27509500937632       -0.10213676019555
H            1.83641300980778       -3.04137857242712        1.30628105338203

          :  Hamiltonian                  GFN2-xTB          :
         :: gradient norm              0.000103348294 Eh/a0 ::
         :: HOMO-LUMO gap              2.223278433893 eV    ::
         :: SCC energy              -119.190556059785 Eh    ::
         :: -> dispersion             -0.104430093761 Eh    ::
         :: repulsion energy           2.071195505308 Eh    ::

    * Orbital Energies and Occupations

         #    Occupation            Energy/Eh            Energy/eV
      -------------------------------------------------------------
         1        2.0000           -0.7425591             -20.2061
       ...           ...                  ...                  ...
        96        2.0000           -0.4192386             -11.4081
        97        2.0000           -0.4179578             -11.3732
        98        2.0000           -0.4098348             -11.1522
        99        2.0000           -0.4093865             -11.1400
       100        2.0000           -0.4086404             -11.1197
       101        2.0000           -0.4083386             -11.1115
       102        2.0000           -0.4072000             -11.0805
       103        2.0000           -0.4069096             -11.0726
       104        2.0000           -0.3921130             -10.6699
       105        2.0000           -0.3916786             -10.6581
       106        2.0000           -0.3804627             -10.3529
       107        2.0000           -0.3586533              -9.7595
       108        2.0000           -0.3545082              -9.6467 (HOMO)
       109                         -0.2728042              -7.4234 (LUMO)
       110                         -0.2727934              -7.4231
       111                         -0.2454978              -6.6803
       112                         -0.2421953              -6.5905
       113                         -0.2327623              -6.3338
       114                         -0.2327087              -6.3323
       115                         -0.2306082              -6.2752
       116                         -0.2282723              -6.2116
       117                         -0.2250852              -6.1249
       118                         -0.2241338              -6.0990
       119                         -0.2238890              -6.0923
       ...                                ...                  ...
       213                          1.2180139              33.1438
      -------------------------------------------------------------
                  HL-Gap            0.0817040 Eh            2.2233 eV

     #   Z          covCN         q      C6AA      α(0)
     1   8 O        0.860    -0.547    24.843     6.683
     2  16 S        3.816     0.922   108.922    17.565
     3   8 O        0.860    -0.547    24.848     6.683
     4   6 C        2.969    -0.090    30.257     9.023
     5   6 C        2.954    -0.028    28.692     8.786
     6   6 C        2.924    -0.057    29.427     8.896
     7   6 C        2.914     0.071    26.414     8.428
     8   7 N        2.752    -0.079    22.777     7.088
     9   6 C        2.938     0.063    26.593     8.457
    10   6 C        2.920    -0.043    29.064     8.841
    11   6 C        2.919    -0.030    28.760     8.794
    12   6 C        2.917    -0.033    28.819     8.803
    13   6 C        2.928    -0.035    28.861     8.810
    14   6 C        2.973     0.006    27.873     8.660
    15   6 C        2.901    -0.034    28.851     8.807
    16   6 C        2.901    -0.034    28.848     8.807
    17   6 C        2.973     0.006    27.874     8.660
    18   6 C        2.928    -0.035    28.860     8.810
    19   6 C        2.917    -0.033    28.816     8.803
    20   6 C        2.919    -0.030    28.755     8.794
    21   6 C        2.920    -0.043    29.060     8.840
    22   6 C        2.938     0.063    26.593     8.458
    23   6 C        2.924    -0.057    29.424     8.895
    24   6 C        2.957    -0.029    28.720     8.790
    25   6 C        2.969    -0.090    30.257     9.023
    26   6 C        2.958    -0.029    28.721     8.790
    27   6 C        2.924    -0.057    29.422     8.895
    28   6 C        2.914     0.071    26.414     8.428
    29   7 N        2.752    -0.079    22.777     7.088
    30   6 C        2.938     0.063    26.592     8.457
    31   6 C        2.920    -0.043    29.064     8.841
    32   6 C        2.919    -0.030    28.761     8.794
    33   6 C        2.917    -0.033    28.819     8.803
    34   6 C        2.928    -0.035    28.861     8.810
    35   6 C        2.973     0.006    27.873     8.660
    36   6 C        2.901    -0.034    28.851     8.807
    37   6 C        2.901    -0.034    28.847     8.806
    38   6 C        2.973     0.006    27.874     8.660
    39   6 C        2.928    -0.035    28.860     8.810
    40   6 C        2.917    -0.033    28.815     8.803
    41   6 C        2.919    -0.030    28.755     8.794
    42   6 C        2.920    -0.043    29.060     8.840
    43   6 C        2.938     0.063    26.594     8.458
    44   6 C        2.924    -0.057    29.428     8.896
    45   6 C        2.954    -0.028    28.690     8.785
    46   1 H        0.926     0.056     2.251     2.346
    47   1 H        0.926     0.039     2.469     2.457
    48   1 H        0.926     0.038     2.470     2.458
    49   1 H        0.926     0.037     2.483     2.464
    50   1 H        0.926     0.038     2.479     2.462
    51   1 H        0.926     0.039     2.466     2.456
    52   1 H        0.925     0.040     2.447     2.446
    53   1 H        0.925     0.040     2.446     2.446
    54   1 H        0.926     0.039     2.466     2.456
    55   1 H        0.926     0.038     2.476     2.461
    56   1 H        0.926     0.038     2.476     2.460
    57   1 H        0.926     0.039     2.464     2.455
    58   1 H        0.926     0.038     2.478     2.462
    59   1 H        0.926     0.048     2.340     2.392
    60   1 H        0.926     0.048     2.351     2.398
    61   1 H        0.926     0.038     2.480     2.463
    62   1 H        0.926     0.038     2.471     2.458
    63   1 H        0.926     0.037     2.484     2.465
    64   1 H        0.926     0.038     2.480     2.463
    65   1 H        0.926     0.039     2.466     2.456
    66   1 H        0.925     0.040     2.448     2.446
    67   1 H        0.925     0.040     2.446     2.446
    68   1 H        0.926     0.039     2.466     2.456
    69   1 H        0.926     0.038     2.476     2.461
    70   1 H        0.926     0.038     2.475     2.460
    71   1 H        0.926     0.039     2.463     2.454
    72   1 H        0.926     0.039     2.467     2.456
    73   1 H        0.926     0.056     2.245     2.343

molecular dipole:
                 x           y           z       tot (Debye)
 q only:       -0.007       1.769      -3.247
   full:       -0.007       1.812      -3.325       9.625

 projected vibrational frequencies (cm⁻¹)
eigval :       -0.00    -0.00    -0.00     0.00     0.00     0.00
eigval :        2.50     6.36     7.39    26.46    32.71    41.17
eigval :       50.29    55.27    55.38    56.14    58.68    80.01
eigval :       99.63   101.32   121.05   122.97   135.66   140.85
eigval :      141.55   164.03   167.32   215.70   217.45   237.10
eigval :      259.29   259.74   279.60   297.78   303.93   310.89
eigval :      312.93   313.87   331.89   351.62   357.21   357.54
eigval :      371.81   375.86   377.40   379.27   406.93   417.11
eigval :      428.32   437.81   442.36   448.72   449.01   469.38
eigval :      479.53   500.66   504.12   516.90   517.06   530.05
eigval :      549.80   553.96   553.97   554.64   556.62   587.07
eigval :      587.47   607.01   608.37   623.81   638.10   658.26
eigval :      663.09   671.81   671.82   686.75   686.81   714.39
eigval :      715.08   715.10   728.84   770.24   770.39   782.00
eigval :      782.12   787.52   788.56   796.65   801.02   818.85
eigval :      818.96   858.42   859.14   860.00   860.40   882.64
eigval :      882.72   883.42   883.71   903.97   904.58   907.34
eigval :      907.40   910.37   910.99   916.55   917.37   919.84
eigval :      920.32   920.49   921.25   922.75   923.28   928.36
eigval :      928.46   929.25   929.35   997.01  1000.86  1085.84
eigval :     1092.12  1092.15  1092.38  1092.57  1103.97  1105.11
eigval :     1121.12  1127.24  1130.35  1133.44  1133.93  1135.57
eigval :     1177.45  1177.70  1179.37  1179.52  1182.34  1182.56
eigval :     1192.35  1195.20  1212.19  1212.62  1213.96  1214.02
eigval :     1229.67  1234.34  1234.54  1238.21  1238.36  1257.84
eigval :     1260.15  1260.23  1261.17  1286.65  1287.42  1320.13
eigval :     1320.17  1324.80  1324.83  1340.14  1341.15  1350.35
eigval :     1356.38  1370.35  1370.39  1408.36  1409.52  1420.78
eigval :     1420.89  1440.37  1440.49  1467.89  1467.97  1469.08
eigval :     1469.17  1489.49  1492.95  1563.55  1563.94  1565.36
eigval :     1565.46  1569.51  1571.07  1579.56  1582.68  1586.95
eigval :     1587.00  1588.17  1589.66  1648.68  1648.72  3049.40
eigval :     3049.41  3063.11  3063.15  3077.76  3077.78  3078.18
eigval :     3078.21  3079.93  3079.93  3080.98  3081.06  3088.43
eigval :     3088.43  3089.15  3089.32  3093.67  3093.91  3095.09
eigval :     3095.53  3097.81  3097.87  3098.52  3098.60  3104.79
eigval :     3105.25  3106.76  3106.85

   temp. (K)  partition function   enthalpy   heat capacity  entropy
                                   cal/mol     cal/K/mol   cal/K/mol   J/K/mol
 298.15  VIB  0.484E+18            21260.351    134.654    134.694
         ROT  0.827E+08              888.752      2.981     39.210
         INT  0.401E+26            22149.103    137.635    173.904
         TR   0.142E+29             1481.254      4.968     45.042
         TOT                       23630.3572   142.6030   218.9458   916.0691

       T/K    H(0)-H(T)+PV         H(T)/Eh          T*S/Eh         G(T)/Eh
   ------------------------------------------------------------------------
    298.15    0.376574E-01    0.590918E+00    0.104028E+00    0.486890E+00
   ------------------------------------------------------------------------

         :::::::::::::::::::::::::::::::::::::::::::::::::::::
         ::                  THERMODYNAMIC                  ::
         :::::::::::::::::::::::::::::::::::::::::::::::::::::
         :: total free energy        -116.632470575029 Eh   ::
         ::.................................................::
         :: total energy             -117.119360554480 Eh   ::
         :: zero point energy           0.553260813892 Eh   ::
         :: G(RRHO) w/o ZPVE           -0.066370834441 Eh   ::
         :: G(RRHO) contrib.            0.486889979451 Eh   ::
         :::::::::::::::::::::::::::::::::::::::::::::::::::::

           -------------------------------------------------
          | TOTAL ENERGY             -117.119360554480 Eh   |
          | TOTAL ENTHALPY           -116.528442369445 Eh   |
          | TOTAL FREE ENERGY        -116.632470575029 Eh   |
          | GRADIENT NORM               0.000103394379 Eh/α |
          | HOMO-LUMO GAP               2.223278842322 eV   |
           -------------------------------------------------

 * finished run on 2025/09/10 at 16:08:00.969
