   * xtb version 6.7.1 (edcfbbe) compiled by 'albert@albert-system' on 2024-07-22

   ID    Z sym.   atoms
    1    6 C      1-9, 11-15, 17, 19-22, 24-48
    2    7 N      10, 23
    3    8 O      16, 18
    4    1 H      49-84

          program call               : xtb data2507/toluene/DC-ACR/DC-ACR_toluene_S0_crest.xyz --gfn 2 --gbsa toluene --ohess vtight --parallel 40 --molden --ceasefiles --namespace data2507/toluene/DC-ACR/DC-ACR_toluene_S0_finalOpt
      * Solvation model:               GBSA
        Solvent                        toluene
        Solvent mass                       9.2140E+01 g/mol
          :  Hamiltonian                  GFN2-xTB          :
 * total energy  :  -126.6349605 Eh     change       -0.2194042E-08 Eh
 * total energy  :  -126.6350951 Eh     change       -0.1345450E-03 Eh
 * total energy  :  -126.6351570 Eh     change       -0.6192694E-04 Eh
 * total energy  :  -126.6351830 Eh     change       -0.2601862E-04 Eh
 * total energy  :  -126.6352124 Eh     change       -0.2936223E-04 Eh
 * total energy  :  -126.6352433 Eh     change       -0.3095591E-04 Eh
 * total energy  :  -126.6352789 Eh     change       -0.3557737E-04 Eh
 * total energy  :  -126.6352956 Eh     change       -0.1670710E-04 Eh
 * total energy  :  -126.6353264 Eh     change       -0.3076396E-04 Eh
 * total energy  :  -126.6353427 Eh     change       -0.1631879E-04 Eh
 * total energy  :  -126.6386942 Eh     change       -0.4747636E-06 Eh
 * total energy  :  -126.6386948 Eh     change       -0.5277665E-06 Eh
 * total energy  :  -126.6386953 Eh     change       -0.4771242E-06 Eh
 * total energy  :  -126.6386955 Eh     change       -0.2963128E-06 Eh
 * total energy  :  -126.6386958 Eh     change       -0.2092650E-06 Eh
 * total energy  :  -126.6386959 Eh     change       -0.1844259E-06 Eh
 * total energy  :  -126.6386961 Eh     change       -0.2062680E-06 Eh
 * total energy  :  -126.6386964 Eh     change       -0.2286817E-06 Eh
 * total energy  :  -126.6386964 Eh     change       -0.3988717E-08 Eh
   *** GEOMETRY OPTIMIZATION CONVERGED AFTER 380 ITERATIONS ***

 final structure:
================
84
 xtb: 6.7.1 (edcfbbe)
C            6.25034629012683        3.21155645904512        0.86819092970157
C            6.19009371328904        2.19428705321871       -0.28702090549808
C            7.33439350838246        2.45177108081089       -1.28533880706300
C            6.35196688221512        0.79751253996799        0.28261302129354
C            7.51047535205361        0.47672552342156        0.97853103487870
C            7.73439623767332       -0.78721719207498        1.49194818016235
C            6.78674984394075       -1.77492197333793        1.29157282430047
C            5.62739884107135       -1.48391164461291        0.60323547922471
C            5.38487986738112       -0.19816812496229        0.11050792616657
N            4.20727408085435        0.06496123106380       -0.58085344448482
C            3.25957027482685       -0.96887608662362       -0.75702133398256
C            3.07461735065673       -1.53922761098358       -2.01636938129115
C            2.13670440169702       -2.53367838031667       -2.19153268379529
C            1.34739450425673       -2.95891533691887       -1.11876488456279
C            0.29773312487244       -3.96374095058255       -1.35302182844468
O            0.19240884656089       -4.61488151248021       -2.37543073254984
C           -0.70659284935668       -4.11663103413123       -0.20865935686401
O           -0.67003773255875       -5.07833004677179        0.53759665575771
C           -1.66239266495831       -3.00879822020196       -0.08474211884605
C           -1.76950117225190       -2.02371034982695       -1.07201571287972
C           -2.62166784497942       -0.95597126370882       -0.89682147811907
C           -3.38375244608374       -0.84300077833702        0.26847071206493
N           -4.21632294410418        0.27571521647519        0.46408272562773
C           -3.64140281251133        1.54106288232367        0.57752663706284
C           -2.25072806773023        1.68490157147178        0.53386173861818
C           -1.65695719506677        2.92643529880969        0.62691953731770
C           -2.44211028664728        4.05411553761928        0.78617824820000
C           -3.81334685396789        3.91062833180692        0.88066762444310
C           -4.43678260476345        2.67210687137385        0.78882227238016
C           -5.94082799399314        2.58903222043338        0.96316118161410
C           -6.61816696232849        3.46336902429173       -0.10905932460705
C           -6.29504712099392        3.09993813465627        2.37259463597492
C           -6.44828441763517        1.16805175838571        0.81494136964239
C           -7.81215137416424        0.92029589950971        0.91077523335727
C           -8.34510437465941       -0.34191089465444        0.73002268564057
C           -7.50033481713809       -1.39139729235586        0.41513121463211
C           -6.14165296173254       -1.17393165900240        0.32150595749748
C           -5.59455215932574        0.09222260264074        0.55272699759566
C           -3.30348078048968       -1.84187171396554        1.24127577238270
C           -2.45471326547487       -2.91167960982117        1.06426702482287
C            1.54438847588582       -2.39297319036598        0.14405588357513
C            2.49971551677212       -1.41545994380109        0.32437214189945
C            3.93658289198033        1.32122313176214       -1.11313994174621
C            2.70170585069214        1.56335906391824       -1.72302740537721
C            2.40664071657023        2.79571455807505       -2.26790305715528
C            3.33771029102573        3.81687508465411       -2.20354117831550
C            4.54468434848108        3.59048365014111       -1.56849148845650
C            4.86592116044953        2.36078405811801       -1.00781789322405
H            5.43490048704140        3.02890454829676        1.56612085401648
H            7.18904991238427        3.12890670631729        1.40851331075066
H            6.16158896101255        4.22814299265767        0.49584880014149
H            8.30138853053153        2.36556342676412       -0.79784918042690
H            7.25665519158480        3.44697516820904       -1.71415289402928
H            7.29179134875937        1.72448363781505       -2.09449565046076
H            8.26726087408350        1.23229385359819        1.12448122113555
H            8.64520161578259       -1.00095355413901        2.03071620091744
H            6.94819622570684       -2.77540029091078        1.66525523512187
H            4.90420142535272       -2.26740581077253        0.43706860453573
H            3.67249982621005       -1.19486478914719       -2.84685310048409
H            1.98587121448213       -2.99255749772716       -3.15751767347767
H           -1.19607619903486       -2.10769980742146       -1.98289209793461
H           -2.70717337105995       -0.19559335757807       -1.65860677357498
H           -1.62128981812654        0.81443931467487        0.43574554897219
H           -0.58088425981388        3.00711635648045        0.58146733314112
H           -1.99166739504737        5.03275002345405        0.85458911906470
H           -4.41314136770595        4.79400672614290        1.03698936428781
H           -7.69853563971619        3.44693982505305        0.00132268195643
H           -6.28650386085106        4.49502571052414       -0.03531430538651
H           -6.36898418416494        3.09199132178818       -1.10173740772767
H           -5.80263526570436        2.48542036045251        3.12447186695120
H           -7.36729058917150        3.05539808971760        2.54161309003306
H           -5.97090294434886        4.12832466558291        2.50504320243126
H           -8.48407096654965        1.73584460520476        1.13017926827833
H           -9.40949853628687       -0.49995616543188        0.81662502681148
H           -7.89544587573543       -2.38047223361783        0.23608205874943
H           -5.49717833501037       -1.99674589680430        0.05366125439585
H           -3.90139052456834       -1.75957905740120        2.13655631046294
H           -2.36498793904122       -3.68052115644496        1.81746483403098
H            0.95105791551834       -2.72562384839537        0.98255082403077
H            2.65734064649215       -0.97693380842534        1.29836468691059
H            1.96177281097501        0.77898678771676       -1.76427035303487
H            1.44640756015848        2.95619147631294       -2.73571309593975
H            3.12287330035564        4.78435578586875       -2.63170444075117
H            5.25439097384813        4.40139460201314       -1.50836985082232

          :  Hamiltonian                  GFN2-xTB          :
         :: gradient norm              0.000046377466 Eh/a0 ::
         :: HOMO-LUMO gap              1.083833366665 eV    ::
         :: SCC energy              -128.830866459104 Eh    ::
         :: -> dispersion             -0.116360344827 Eh    ::
         :: -> Gsolv                  -0.054781435660 Eh    ::
         :: repulsion energy           2.192170077985 Eh    ::

    * Orbital Energies and Occupations

         #    Occupation            Energy/Eh            Energy/eV
      -------------------------------------------------------------
         1        2.0000           -0.7330820             -19.9482
       ...           ...                  ...                  ...
       105        2.0000           -0.4123599             -11.2209
       106        2.0000           -0.4116869             -11.2026
       107        2.0000           -0.4103946             -11.1674
       108        2.0000           -0.4098281             -11.1520
       109        2.0000           -0.4074907             -11.0884
       110        2.0000           -0.4066256             -11.0648
       111        2.0000           -0.4010940             -10.9143
       112        2.0000           -0.4005667             -10.9000
       113        2.0000           -0.3957002             -10.7676
       114        2.0000           -0.3951730             -10.7532
       115        2.0000           -0.3909562             -10.6385
       116        2.0000           -0.3532985              -9.6137
       117        2.0000           -0.3516700              -9.5694 (HOMO)
       118                         -0.3118398              -8.4856 (LUMO)
       119                         -0.2995224              -8.1504
       120                         -0.2519935              -6.8571
       121                         -0.2497888              -6.7971
       122                         -0.2289135              -6.2291
       123                         -0.2284638              -6.2168
       124                         -0.2274339              -6.1888
       125                         -0.2229462              -6.0667
       126                         -0.2219308              -6.0390
       127                         -0.2218673              -6.0373
       128                         -0.2210906              -6.0162
       ...                                ...                  ...
       228                          0.6746079              18.3570
      -------------------------------------------------------------
                  HL-Gap            0.0398301 Eh            1.0838 eV

     #   Z          covCN         q      C6AA      α(0)
     1   6 C        3.761    -0.105    22.544     6.769
     2   6 C        3.909     0.021    20.158     6.382
     3   6 C        3.761    -0.104    22.537     6.768
     4   6 C        2.979    -0.012    28.297     8.726
     5   6 C        2.928    -0.037    28.908     8.817
     6   6 C        2.917    -0.044    29.098     8.846
     7   6 C        2.919    -0.034    28.839     8.806
     8   6 C        2.924    -0.059    29.473     8.903
     9   6 C        2.926     0.057    26.726     8.478
    10   7 N        2.753    -0.065    22.501     7.045
    11   6 C        2.927     0.083    26.147     8.386
    12   6 C        2.919    -0.033    28.834     8.806
    13   6 C        2.922    -0.012    28.321     8.727
    14   6 C        2.972    -0.015    28.393     8.740
    15   6 C        2.821     0.214    23.479     7.939
    16   8 O        0.857    -0.384    21.356     6.196
    17   6 C        2.821     0.213    23.507     7.944
    18   8 O        0.857    -0.388    21.448     6.209
    19   6 C        2.972    -0.018    28.446     8.749
    20   6 C        2.919    -0.022    28.565     8.764
    21   6 C        2.919    -0.035    28.865     8.810
    22   6 C        2.927     0.081    26.183     8.392
    23   7 N        2.752    -0.060    22.404     7.030
    24   6 C        2.925     0.056    26.745     8.481
    25   6 C        2.924    -0.059    29.462     8.901
    26   6 C        2.919    -0.033    28.828     8.805
    27   6 C        2.917    -0.043    29.069     8.841
    28   6 C        2.928    -0.036    28.902     8.817
    29   6 C        2.979    -0.010    28.269     8.721
    30   6 C        3.909     0.022    20.155     6.381
    31   6 C        3.761    -0.105    22.552     6.770
    32   6 C        3.761    -0.104    22.542     6.768
    33   6 C        2.979    -0.010    28.271     8.722
    34   6 C        2.928    -0.036    28.903     8.817
    35   6 C        2.917    -0.043    29.070     8.841
    36   6 C        2.919    -0.033    28.832     8.805
    37   6 C        2.924    -0.058    29.444     8.899
    38   6 C        2.926     0.056    26.740     8.480
    39   6 C        2.918    -0.035    28.871     8.811
    40   6 C        2.922    -0.013    28.334     8.729
    41   6 C        2.920    -0.021    28.539     8.760
    42   6 C        2.919    -0.033    28.831     8.805
    43   6 C        2.927     0.057    26.731     8.479
    44   6 C        2.924    -0.059    29.468     8.902
    45   6 C        2.919    -0.034    28.835     8.806
    46   6 C        2.917    -0.044    29.095     8.845
    47   6 C        2.928    -0.036    28.905     8.817
    48   6 C        2.979    -0.011    28.292     8.725
    49   1 H        0.925     0.031     2.568     2.506
    50   1 H        0.925     0.043     2.411     2.428
    51   1 H        0.925     0.043     2.407     2.426
    52   1 H        0.925     0.043     2.413     2.429
    53   1 H        0.925     0.043     2.407     2.426
    54   1 H        0.925     0.031     2.571     2.508
    55   1 H        0.926     0.036     2.505     2.475
    56   1 H        0.926     0.028     2.611     2.527
    57   1 H        0.926     0.028     2.611     2.527
    58   1 H        0.926     0.025     2.664     2.552
    59   1 H        0.926     0.063     2.167     2.302
    60   1 H        0.926     0.066     2.132     2.283
    61   1 H        0.926     0.045     2.383     2.414
    62   1 H        0.926     0.061     2.185     2.312
    63   1 H        0.926     0.027     2.625     2.534
    64   1 H        0.926     0.031     2.574     2.509
    65   1 H        0.926     0.030     2.586     2.515
    66   1 H        0.926     0.037     2.489     2.467
    67   1 H        0.925     0.043     2.404     2.425
    68   1 H        0.925     0.044     2.398     2.422
    69   1 H        0.925     0.032     2.565     2.505
    70   1 H        0.925     0.032     2.563     2.504
    71   1 H        0.925     0.044     2.402     2.424
    72   1 H        0.925     0.044     2.402     2.423
    73   1 H        0.926     0.037     2.490     2.467
    74   1 H        0.926     0.030     2.593     2.518
    75   1 H        0.926     0.030     2.591     2.517
    76   1 H        0.926     0.027     2.628     2.535
    77   1 H        0.926     0.062     2.176     2.307
    78   1 H        0.926     0.065     2.146     2.291
    79   1 H        0.926     0.047     2.358     2.401
    80   1 H        0.926     0.062     2.178     2.308
    81   1 H        0.926     0.025     2.661     2.551
    82   1 H        0.926     0.030     2.585     2.514
    83   1 H        0.926     0.029     2.603     2.523
    84   1 H        0.926     0.036     2.508     2.476

molecular dipole:
                 x           y           z       tot (Debye)
 q only:       -0.024       3.335       0.562
   full:       -0.022       3.174       0.539       8.183

 projected vibrational frequencies (cm⁻¹)
eigval :       -0.00    -0.00    -0.00     0.00     0.00     0.00
eigval :        8.38    13.48    15.97    22.39    28.35    28.93
eigval :       36.08    46.93    55.46    60.64    61.71    87.29
eigval :       98.00   102.20   106.43   110.55   112.86   127.32
eigval :      135.19   141.99   142.62   162.51   169.85   194.97
eigval :      201.29   201.88   208.23   221.84   222.36   235.33
eigval :      237.91   246.99   258.18   296.28   300.21   314.33
eigval :      319.29   332.53   334.14   337.07   344.07   347.71
eigval :      353.76   355.02   365.29   373.04   379.01   380.43
eigval :      392.56   402.06   409.68   409.98   452.70   455.34
eigval :      476.20   479.60   485.92   492.88   495.72   501.32
eigval :      515.84   516.49   548.40   548.69   557.15   564.00
eigval :      576.32   578.51   588.49   590.12   601.69   606.44
eigval :      623.33   647.38   647.95   677.81   679.22   684.37
eigval :      685.28   695.63   696.49   698.08   712.32   742.60
eigval :      745.52   758.66   776.37   777.67   778.28   779.29
eigval :      816.77   820.79   827.50   829.46   864.97   866.67
eigval :      867.47   868.86   869.67   871.12   873.56   912.97
eigval :      913.63   914.09   914.67   915.19   915.49   915.75
eigval :      920.01   921.68   922.17   922.72   923.63   928.38
eigval :      929.28   932.99   934.51   938.20   939.66   956.94
eigval :      957.31   995.89  1013.94  1014.06  1014.41  1039.19
eigval :     1075.59  1075.96  1083.34  1083.91  1113.22  1114.70
eigval :     1118.73  1118.97  1124.18  1128.82  1139.39  1140.39
eigval :     1158.05  1158.15  1167.83  1171.02  1173.87  1178.73
eigval :     1184.83  1185.39  1187.21  1188.21  1195.06  1199.78
eigval :     1220.52  1233.83  1244.86  1247.45  1248.41  1249.16
eigval :     1254.82  1259.04  1266.89  1268.03  1293.51  1293.68
eigval :     1310.41  1312.26  1313.63  1315.08  1324.97  1326.65
eigval :     1330.39  1330.93  1331.76  1331.95  1399.57  1400.02
eigval :     1402.63  1406.96  1418.15  1418.46  1433.06  1434.18
eigval :     1435.91  1437.52  1464.25  1465.58  1473.34  1474.91
eigval :     1486.09  1486.37  1486.52  1488.12  1491.12  1492.57
eigval :     1496.01  1496.55  1501.72  1503.24  1544.34  1548.71
eigval :     1565.81  1570.47  1573.47  1573.99  1588.46  1589.30
eigval :     1589.97  1590.06  1599.03  1599.39  1662.33  1686.90
eigval :     3021.45  3021.71  3024.03  3024.32  3040.14  3041.12
eigval :     3042.60  3043.88  3048.61  3049.31  3052.90  3054.48
eigval :     3074.26  3074.96  3076.00  3076.11  3081.20  3082.09
eigval :     3082.83  3083.64  3085.48  3087.14  3087.66  3088.24
eigval :     3091.82  3092.39  3093.12  3094.03  3096.97  3097.73
eigval :     3097.93  3098.51  3099.06  3099.82  3100.77  3103.46

   temp. (K)  partition function   enthalpy   heat capacity  entropy
                                   cal/mol     cal/K/mol   cal/K/mol   J/K/mol
 298.15  VIB  0.616E+19            24323.330    151.962    150.938
         ROT  0.869E+08              888.752      2.981     39.309
         INT  0.535E+27            25212.082    154.943    190.246
         TR   0.151E+29             1481.254      4.968     45.159
         TOT                       26693.3361   159.9113   235.4054   984.9360

       T/K    H(0)-H(T)+PV         H(T)/Eh          T*S/Eh         G(T)/Eh
   ------------------------------------------------------------------------
    298.15    0.425385E-01    0.705327E+00    0.111849E+00    0.593479E+00
   ------------------------------------------------------------------------

         :::::::::::::::::::::::::::::::::::::::::::::::::::::
         ::                  THERMODYNAMIC                  ::
         :::::::::::::::::::::::::::::::::::::::::::::::::::::
         :: total free energy        -126.045217816361 Eh   ::
         ::.................................................::
         :: total energy             -126.638696377159 Eh   ::
         :: zero point energy           0.662788702159 Eh   ::
         :: G(RRHO) w/o ZPVE           -0.069310141361 Eh   ::
         :: G(RRHO) contrib.            0.593478560798 Eh   ::
         :::::::::::::::::::::::::::::::::::::::::::::::::::::

           -------------------------------------------------
          | TOTAL ENERGY             -126.638696377159 Eh   |
          | TOTAL ENTHALPY           -125.933369136307 Eh   |
          | TOTAL FREE ENERGY        -126.045217816361 Eh   |
          | GRADIENT NORM               0.000046359874 Eh/α |
          | HOMO-LUMO GAP               1.083832859396 eV   |
           -------------------------------------------------

 * finished run on 2025/09/12 at 11:46:43.896
