   * xtb version 6.7.1 (edcfbbe) compiled by 'albert@albert-system' on 2024-07-22

   ID    Z sym.   atoms
    1    6 C      1-9, 11-15, 17, 19-22, 24-48
    2    7 N      10, 23
    3    8 O      16, 18
    4    1 H      49-84

          program call               : xtb data2507/toluene/DC-ACR/DC-ACR_toluene_S0_finalOpt.xtbopt.xyz --gfn 2 --uhf 2 --gbsa toluene --ohess vtight --parallel 40 --molden --ceasefiles --namespace data2507/toluene/DC-ACR/DC-ACR_toluene_T1_preOpt
      * Solvation model:               GBSA
        Solvent                        toluene
        Solvent mass                       9.2140E+01 g/mol
          :  Hamiltonian                  GFN2-xTB          :
 * total energy  :  -126.5762291 Eh     change       -0.6211252E-08 Eh
 * total energy  :  -126.5803166 Eh     change       -0.4087475E-02 Eh
 * total energy  :  -126.5821524 Eh     change       -0.1835800E-02 Eh
 * total energy  :  -126.5828841 Eh     change       -0.7317103E-03 Eh
 * total energy  :  -126.5842594 Eh     change       -0.1375302E-02 Eh
 * total energy  :  -126.5852552 Eh     change       -0.9958757E-03 Eh
 * total energy  :  -126.5860342 Eh     change       -0.7789838E-03 Eh
 * total energy  :  -126.5863808 Eh     change       -0.3465646E-03 Eh
 * total energy  :  -126.5868293 Eh     change       -0.4485410E-03 Eh
 * total energy  :  -126.5870529 Eh     change       -0.2235542E-03 Eh
 * total energy  :  -126.5893083 Eh     change       -0.9105838E-06 Eh
 * total energy  :  -126.5893091 Eh     change       -0.7129776E-06 Eh
 * total energy  :  -126.5893097 Eh     change       -0.6169607E-06 Eh
 * total energy  :  -126.5893103 Eh     change       -0.6251209E-06 Eh
 * total energy  :  -126.5893110 Eh     change       -0.7335925E-06 Eh
 * total energy  :  -126.5893118 Eh     change       -0.7940071E-06 Eh
 * total energy  :  -126.5893126 Eh     change       -0.7655771E-06 Eh
 * total energy  :  -126.5893133 Eh     change       -0.7299887E-06 Eh
 * total energy  :  -126.5893133 Eh     change       -0.4962416E-08 Eh
   *** GEOMETRY OPTIMIZATION CONVERGED AFTER 122 ITERATIONS ***

 final structure:
================
84
 xtb: 6.7.1 (edcfbbe)
C            5.78499235973109        3.42470283913885        0.41083917433382
C            5.59424226952162        2.36799233747930       -0.69518469557346
C            6.45712219564558        2.72271318330638       -1.92225621944696
C            6.03842140776965        1.02212270993801       -0.16097060212441
C            7.34593102260642        0.85189956108481        0.27405329347638
C            7.79914804887163       -0.35288135886417        0.77968196272914
C            6.92833540520958       -1.42864285685699        0.86608847180420
C            5.62584302607435       -1.29084648382458        0.44123061483042
C            5.16598786468081       -0.07452534912866       -0.08310248503553
N            3.85671816876533        0.03107949780725       -0.50796769415301
C            3.00850013976113       -1.11155843067206       -0.42440659759204
C            3.03965014058073       -2.08162000865299       -1.42276012023463
C            2.21527867674760       -3.18226407196396       -1.33555462813452
C            1.32553161731763       -3.33044600657743       -0.26366991312487
C            0.50161890869480       -4.54577101412039       -0.18958404211997
O            0.89385926026595       -5.61956267329972       -0.69844692495576
C           -0.76832007519506       -4.47976955102109        0.55849742221831
O           -1.22774823413874       -5.48835390204816        1.13880096263740
C           -1.51299055013186       -3.21150505530124        0.54790152196965
C           -1.46937533772543       -2.32809180829287       -0.53711697430012
C           -2.22967632928893       -1.17808611011811       -0.53401208312600
C           -3.05517082082849       -0.88702287520994        0.54941197679074
N           -3.83431561005037        0.30577745143394        0.55107635359897
C           -3.22458691811673        1.50222379164255        0.87490156120860
C           -1.86093476789478        1.51772592655600        1.20026279691592
C           -1.22284968163588        2.69628203791950        1.51595675612252
C           -1.93448173892218        3.88617958415888        1.51784910968075
C           -3.28382979215135        3.87304982117107        1.21552276005044
C           -3.95461209874680        2.70049883076783        0.89397676231509
C           -5.43646741190590        2.74519480658114        0.58633700999606
C           -5.66248100370990        3.67729126679666       -0.62048147731358
C           -6.18141336028910        3.28711533801785        1.82228990649054
C           -5.98665531235700        1.37492251147383        0.25025959038103
C           -7.33240561066498        1.23204377727038       -0.06021376053660
C           -7.88258004497575        0.00649110525348       -0.38848589987673
C           -7.07265181323825       -1.11847705394400       -0.42243906645647
C           -5.73447710455483       -1.00838269229658       -0.11710038226369
C           -5.17673873823722        0.22875639449848        0.23540535439819
C           -3.12881542297425       -1.77153413195741        1.62238854832110
C           -2.37523858474404       -2.92509359080549        1.61380527823077
C            1.32815660142086       -2.36436153384549        0.74950296676974
C            2.15699354135386       -1.26578222112837        0.66666143514151
C            3.34163487011751        1.20861302864932       -1.01257713229821
C            2.00606167491450        1.25158192210350       -1.43668019580685
C            1.46102543690424        2.41224567348763       -1.93825260925823
C            2.24025983212081        3.55541955932916       -2.03053392125883
C            3.56148346455760        3.51413583908169       -1.62408311522747
C            4.13905674449056        2.35886344088877       -1.11398240393111
H            5.17276516028186        3.17295453723537        1.27480893122346
H            6.82293601807387        3.46935970904800        0.72659860465498
H            5.49393862450333        4.40931741249318        0.05738537779878
H            7.50964574980935        2.75462670526650       -1.65701643677135
H            6.17671346850105        3.69214219994563       -2.32324056096438
H            6.32094592415968        1.97502664226378       -2.70151281012101
H            8.03571085279155        1.67956957393211        0.21997747819673
H            8.82273348213938       -0.45169850493163        1.10712665366645
H            7.26320991135511       -2.37419132019808        1.26511734408056
H            4.94873848005436       -2.12761370759856        0.51301899713701
H            3.71401605240530       -1.96756314666511       -2.25859867382067
H            2.23201169493715       -3.94954116408248       -2.09561124240403
H           -0.85334999255993       -2.56219649156359       -1.39185401416689
H           -2.19937932470336       -0.50154648613933       -1.37533997490961
H           -1.30945521901902        0.59147840996134        1.20651102221895
H           -0.17141994609071        2.68693900905692        1.75981772492436
H           -1.44348826117989        4.81600595757901        1.76052234427786
H           -3.82513030483705        4.80596798627703        1.23298058085996
H           -6.71737563042204        3.73434557491659       -0.87140431256114
H           -5.30915514502822        4.68087340688789       -0.40354177401242
H           -5.12236471532008        3.30092841356370       -1.48724825843530
H           -6.04432072916943        2.61205996992389        2.66502990110386
H           -7.24513421287425        3.37545810432907        1.62266320864469
H           -5.80422410679693        4.26642865209830        2.10142569478586
H           -7.97516533560896        2.09831619701433       -0.04788426738160
H           -8.93346495426399       -0.07050144081220       -0.62176974180594
H           -7.48243271285414       -2.08127113844093       -0.68797060436960
H           -5.10636658726328       -1.88470680753185       -0.15033122361363
H           -3.78187966291338       -1.55028478675277        2.45369565745929
H           -2.42743743017765       -3.62783289327450        2.43239208149420
H            0.69255877165500       -2.49268202919124        1.61219140464188
H            2.16055865723643       -0.52479926931175        1.45237848773981
H            1.40277791547921        0.36057539282412       -1.36987057788042
H            0.42934442081149        2.42562622111049       -2.25537510545206
H            1.82319287168645        4.47075632719110       -2.42136869838750
H            4.15558832311081        4.41039485261415       -1.71039207740840

          :  Hamiltonian                  GFN2-xTB          :
         :: gradient norm              0.000063632395 Eh/a0 ::
         :: HOMO-LUMO gap              1.077963523708 eV    ::
         :: SCC energy              -128.769556929788 Eh    ::
         :: -> dispersion             -0.118364104910 Eh    ::
         :: -> Gsolv                  -0.075275213728 Eh    ::
         :: repulsion energy           2.180243605004 Eh    ::

    * Orbital Energies and Occupations

         #    Occupation            Energy/Eh            Energy/eV
      -------------------------------------------------------------
         1        2.0000           -0.6860144             -18.6674
       ...           ...                  ...                  ...
       106        2.0000           -0.4173414             -11.3564
       107        2.0000           -0.4170603             -11.3488
       108        2.0000           -0.4153936             -11.3034
       109        2.0000           -0.4140078             -11.2657
       110        2.0000           -0.4114608             -11.1964
       111        2.0000           -0.4113242             -11.1927
       112        2.0000           -0.4061116             -11.0509
       113        2.0000           -0.4056800             -11.0391
       114        2.0000           -0.4052113             -11.0264
       115        1.7602           -0.3626360              -9.8678
       116        1.6325           -0.3620556              -9.8520
       117        1.6073           -0.3619541              -9.8493
       118        1.0000           -0.3035876              -8.2610 (HOMO)
       119                         -0.2639732              -7.1831 (LUMO)
       120                         -0.2420060              -6.5853
       121                         -0.2398687              -6.5272
       122                         -0.2397574              -6.5241
       123                         -0.2368255              -6.4444
       124                         -0.2321165              -6.3162
       125                         -0.2320946              -6.3156
       126                         -0.2310090              -6.2861
       127                         -0.2307579              -6.2792
       128                         -0.2259726              -6.1490
       129                         -0.2050817              -5.5806
       ...                                ...                  ...
       228                          0.6655087              18.1094
      -------------------------------------------------------------
                  HL-Gap            0.0396144 Eh            1.0780 eV

     #   Z          covCN         q      C6AA      α(0)
     1   6 C        3.761    -0.107    22.601     6.777
     2   6 C        3.909     0.024    20.118     6.375
     3   6 C        3.761    -0.107    22.595     6.776
     4   6 C        2.978    -0.003    28.099     8.695
     5   6 C        2.926    -0.033    28.829     8.805
     6   6 C        2.917    -0.034    28.845     8.807
     7   6 C        2.918    -0.028    28.709     8.786
     8   6 C        2.923    -0.050    29.237     8.867
     9   6 C        2.929     0.060    26.651     8.466
    10   7 N        2.754    -0.028    21.790     6.933
    11   6 C        2.929     0.057    26.714     8.476
    12   6 C        2.917    -0.037    28.913     8.817
    13   6 C        2.924    -0.023    28.569     8.765
    14   6 C        2.970    -0.010    28.269     8.721
    15   6 C        2.825     0.167    24.404     8.095
    16   8 O        0.857    -0.476    23.261     6.466
    17   6 C        2.825     0.167    24.395     8.093
    18   8 O        0.857    -0.475    23.247     6.464
    19   6 C        2.970    -0.010    28.263     8.720
    20   6 C        2.920    -0.033    28.815     8.803
    21   6 C        2.918    -0.037    28.909     8.817
    22   6 C        2.929     0.057    26.712     8.476
    23   7 N        2.754    -0.028    21.785     6.932
    24   6 C        2.929     0.060    26.661     8.468
    25   6 C        2.923    -0.050    29.247     8.869
    26   6 C        2.918    -0.028    28.698     8.785
    27   6 C        2.917    -0.034    28.843     8.807
    28   6 C        2.926    -0.033    28.824     8.805
    29   6 C        2.978    -0.003    28.095     8.695
    30   6 C        3.909     0.024    20.119     6.375
    31   6 C        3.761    -0.108    22.602     6.777
    32   6 C        3.761    -0.107    22.596     6.776
    33   6 C        2.978    -0.003    28.097     8.695
    34   6 C        2.926    -0.033    28.829     8.805
    35   6 C        2.917    -0.034    28.844     8.807
    36   6 C        2.918    -0.028    28.710     8.787
    37   6 C        2.923    -0.050    29.239     8.867
    38   6 C        2.929     0.060    26.653     8.467
    39   6 C        2.917    -0.037    28.912     8.817
    40   6 C        2.924    -0.023    28.569     8.765
    41   6 C        2.920    -0.033    28.822     8.804
    42   6 C        2.918    -0.037    28.911     8.817
    43   6 C        2.929     0.060    26.659     8.467
    44   6 C        2.923    -0.050    29.244     8.868
    45   6 C        2.918    -0.028    28.698     8.785
    46   6 C        2.917    -0.034    28.842     8.807
    47   6 C        2.926    -0.033    28.823     8.804
    48   6 C        2.978    -0.003    28.097     8.695
    49   1 H        0.925     0.036     2.497     2.471
    50   1 H        0.925     0.050     2.322     2.383
    51   1 H        0.925     0.051     2.306     2.375
    52   1 H        0.925     0.050     2.321     2.383
    53   1 H        0.925     0.051     2.311     2.377
    54   1 H        0.925     0.036     2.508     2.477
    55   1 H        0.926     0.048     2.340     2.392
    56   1 H        0.926     0.041     2.437     2.441
    57   1 H        0.926     0.038     2.478     2.461
    58   1 H        0.926     0.035     2.522     2.484
    59   1 H        0.926     0.051     2.305     2.374
    60   1 H        0.926     0.045     2.380     2.412
    61   1 H        0.926     0.035     2.515     2.480
    62   1 H        0.926     0.052     2.293     2.368
    63   1 H        0.926     0.037     2.494     2.469
    64   1 H        0.926     0.040     2.449     2.447
    65   1 H        0.926     0.042     2.417     2.431
    66   1 H        0.926     0.048     2.342     2.393
    67   1 H        0.925     0.050     2.323     2.384
    68   1 H        0.925     0.051     2.304     2.374
    69   1 H        0.925     0.036     2.497     2.471
    70   1 H        0.925     0.036     2.507     2.476
    71   1 H        0.925     0.050     2.320     2.382
    72   1 H        0.925     0.051     2.312     2.378
    73   1 H        0.926     0.048     2.339     2.392
    74   1 H        0.926     0.041     2.437     2.441
    75   1 H        0.926     0.038     2.477     2.461
    76   1 H        0.926     0.035     2.519     2.482
    77   1 H        0.926     0.051     2.303     2.373
    78   1 H        0.926     0.045     2.381     2.413
    79   1 H        0.926     0.035     2.513     2.479
    80   1 H        0.926     0.052     2.298     2.370
    81   1 H        0.926     0.036     2.498     2.472
    82   1 H        0.926     0.040     2.449     2.447
    83   1 H        0.926     0.042     2.418     2.432
    84   1 H        0.926     0.048     2.343     2.393

molecular dipole:
                 x           y           z       tot (Debye)
 q only:        0.256       8.628      -0.295
   full:        0.246       8.279      -0.281      21.064

 projected vibrational frequencies (cm⁻¹)
eigval :       -0.00    -0.00    -0.00     0.00     0.00     0.00
eigval :        4.07     7.87    15.51    19.95    30.44    30.79
eigval :       37.36    50.28    55.44    63.10    65.23    82.36
eigval :       95.37    96.99   100.61   107.32   115.16   121.93
eigval :      122.68   123.39   157.88   160.90   170.02   188.61
eigval :      191.09   204.98   211.53   217.05   217.69   233.69
eigval :      235.16   257.65   272.17   300.42   303.95   313.28
eigval :      317.64   326.54   326.59   339.31   340.82   346.43
eigval :      369.05   372.41   376.74   379.43   384.13   385.12
eigval :      403.60   404.91   411.27   411.81   448.21   449.68
eigval :      455.85   470.03   484.22   498.71   505.48   506.13
eigval :      508.68   512.21   542.62   543.12   550.16   552.28
eigval :      560.76   577.83   582.78   589.84   597.97   602.48
eigval :      607.77   631.65   642.95   655.08   670.70   686.90
eigval :      687.20   696.36   697.72   699.97   700.27   700.89
eigval :      734.80   755.63   773.78   774.45   777.90   779.84
eigval :      806.19   807.86   825.37   825.78   858.56   859.51
eigval :      869.02   869.42   870.76   871.79   873.67   904.64
eigval :      907.13   911.27   913.92   913.98   914.86   915.52
eigval :      916.70   917.26   917.55   919.62   922.31   925.11
eigval :      926.75   930.72   932.69   935.43   936.92   954.75
eigval :      955.62   997.00  1010.77  1010.96  1012.52  1061.94
eigval :     1073.23  1073.36  1082.43  1083.40  1105.45  1107.05
eigval :     1111.77  1113.04  1124.64  1126.63  1137.48  1137.67
eigval :     1147.80  1148.09  1163.43  1166.99  1167.04  1168.29
eigval :     1182.01  1182.96  1183.16  1184.34  1190.36  1193.33
eigval :     1213.57  1221.64  1237.12  1240.22  1242.04  1243.02
eigval :     1255.85  1257.92  1258.47  1260.29  1291.80  1291.85
eigval :     1306.91  1307.83  1310.57  1312.64  1316.09  1317.45
eigval :     1326.99  1327.07  1332.90  1333.19  1393.71  1394.83
eigval :     1395.62  1399.46  1413.61  1414.28  1420.40  1420.75
eigval :     1422.44  1428.81  1429.93  1452.78  1455.17  1455.47
eigval :     1461.97  1476.49  1478.34  1481.36  1481.38  1481.83
eigval :     1482.23  1491.84  1492.19  1496.16  1496.49  1529.62
eigval :     1530.89  1533.83  1553.78  1554.04  1564.83  1568.51
eigval :     1569.49  1576.49  1577.75  1578.05  1587.57  1588.98
eigval :     3025.29  3025.92  3027.95  3028.36  3046.84  3047.41
eigval :     3049.03  3049.30  3054.03  3054.51  3057.67  3058.13
eigval :     3080.72  3081.45  3082.12  3082.75  3083.03  3083.92
eigval :     3083.98  3085.80  3089.83  3090.35  3091.23  3091.33
eigval :     3091.68  3092.35  3094.01  3095.64  3099.82  3099.90
eigval :     3100.81  3101.39  3105.70  3107.36  3112.39  3113.66

   temp. (K)  partition function   enthalpy   heat capacity  entropy
                                   cal/mol     cal/K/mol   cal/K/mol   J/K/mol
 298.15  VIB  0.251E+20            24435.283    152.865    153.119
         ROT  0.794E+08              888.752      2.981     39.129
         INT  0.200E+28            25324.035    155.846    192.247
         TR   0.151E+29             1481.254      4.968     45.159
         TOT                       26805.2889   160.8144   237.4062   993.3076

       T/K    H(0)-H(T)+PV         H(T)/Eh          T*S/Eh         G(T)/Eh
   ------------------------------------------------------------------------
    298.15    0.427169E-01    0.703046E+00    0.112799E+00    0.590247E+00
   ------------------------------------------------------------------------

         :::::::::::::::::::::::::::::::::::::::::::::::::::::
         ::                  THERMODYNAMIC                  ::
         :::::::::::::::::::::::::::::::::::::::::::::::::::::
         :: total free energy        -125.999066714645 Eh   ::
         ::.................................................::
         :: total energy             -126.589313321691 Eh   ::
         :: zero point energy           0.660329018761 Eh   ::
         :: G(RRHO) w/o ZPVE           -0.070082411716 Eh   ::
         :: G(RRHO) contrib.            0.590246607045 Eh   ::
         :::::::::::::::::::::::::::::::::::::::::::::::::::::

           -------------------------------------------------
          | TOTAL ENERGY             -126.589313321691 Eh   |
          | TOTAL ENTHALPY           -125.886267356070 Eh   |
          | TOTAL FREE ENERGY        -125.999066714645 Eh   |
          | GRADIENT NORM               0.000063670304 Eh/α |
          | HOMO-LUMO GAP               1.077962967162 eV   |
           -------------------------------------------------

 * finished run on 2025/09/12 at 11:47:00.961
