   * xtb version 6.7.1 (edcfbbe) compiled by 'albert@albert-system' on 2024-07-22

   ID    Z sym.   atoms
    1    6 C      1-9, 11-15, 17, 19-22, 24-48
    2    7 N      10, 23
    3    8 O      16, 18
    4    1 H      49-84

          program call               : xtb data2507/toluene/DC-ACR/DC-ACR.xyz --gfn 2 --gbsa toluene --ohess vtight --parallel 40 --molden --ceasefiles --namespace data2507/toluene/DC-ACR/DC-ACR_toluene_S0_preOpt
      * Solvation model:               GBSA
        Solvent                        toluene
        Solvent mass                       9.2140E+01 g/mol
          :  Hamiltonian                  GFN2-xTB          :
 * total energy  :  -126.6106488 Eh     change       -0.1169184E-08 Eh
 * total energy  :  -126.6284706 Eh     change       -0.1782174E-01 Eh
 * total energy  :  -126.6343641 Eh     change       -0.5893468E-02 Eh
 * total energy  :  -126.6354278 Eh     change       -0.1063722E-02 Eh
 * total energy  :  -126.6360803 Eh     change       -0.6524828E-03 Eh
 * total energy  :  -126.6363087 Eh     change       -0.2284605E-03 Eh
 * total energy  :  -126.6364300 Eh     change       -0.1212404E-03 Eh
 * total energy  :  -126.6365091 Eh     change       -0.7915887E-04 Eh
 * total energy  :  -126.6365596 Eh     change       -0.5043556E-04 Eh
 * total energy  :  -126.6366141 Eh     change       -0.5453974E-04 Eh
 * total energy  :  -126.6392038 Eh     change       -0.6034331E-06 Eh
 * total energy  :  -126.6392043 Eh     change       -0.5741016E-06 Eh
 * total energy  :  -126.6392049 Eh     change       -0.5813915E-06 Eh
 * total energy  :  -126.6392056 Eh     change       -0.6450923E-06 Eh
 * total energy  :  -126.6392063 Eh     change       -0.7187265E-06 Eh
 * total energy  :  -126.6392070 Eh     change       -0.7494410E-06 Eh
 * total energy  :  -126.6392077 Eh     change       -0.6602321E-06 Eh
 * total energy  :  -126.6392083 Eh     change       -0.6150476E-06 Eh
 * total energy  :  -126.6392083 Eh     change       -0.3523198E-08 Eh
   *** GEOMETRY OPTIMIZATION CONVERGED AFTER 185 ITERATIONS ***

 final structure:
================
84
 xtb: 6.7.1 (edcfbbe)
C            7.88298839150723        2.01852304115672        1.48974690077216
C            7.33199833193109        1.46096208804070        0.16366150947029
C            8.18597043288616        1.95354379625277       -1.02003670340567
C            7.39389516850345       -0.05328346645610        0.21508484401615
C            8.62253867784388       -0.67553172694673        0.39867562287814
C            8.74448767188174       -2.04833142623228        0.50194281546146
C            7.60515776248151       -2.83118026782679        0.45018673990861
C            6.37323358901830       -2.23902805666131        0.26620452226346
C            6.25170731341433       -0.85405670796368        0.11469775687781
N            4.99471452998368       -0.28605706420409       -0.08166447047476
C            3.87111914695943       -1.12888967129349       -0.20383154424558
C            3.75237072173672       -1.98698942926539       -1.29904243640735
C            2.65462421885402       -2.81000593305903       -1.41483914944131
C            1.65509248898641       -2.80389583523756       -0.43554381064281
C            0.50215019220695       -3.69901841574409       -0.58330953540602
O            0.33053481822317       -4.43842787323954       -1.53725958429780
C           -0.49855919787957       -3.70156381526339        0.57302275648003
O           -0.32468879584211       -4.44231421685713        1.52550801763611
C           -1.65374554429362       -2.80892185864470        0.42756307524989
C           -1.77879859278774       -1.94794767988072       -0.66723010872079
C           -2.87455969586945       -1.11914627984249       -0.77517243415887
C           -3.87230066285427       -1.13662191727776        0.20185466252623
N           -4.99623006334696       -0.29364927378089        0.08301866181666
C           -4.82441367743746        1.08635721518178        0.16323002739060
C           -3.55869379475880        1.61497138550559        0.43589632079624
C           -3.35542831049589        2.97706594758918        0.51119135621299
C           -4.41908014224639        3.84269962099768        0.32995976944884
C           -5.67950728597775        3.32210840917376        0.10557959748522
C           -5.91249686123824        1.95457787326674        0.02819345063611
C           -7.33136374507163        1.45583198214455       -0.16426619526709
C           -7.87894212304237        2.01398298752332       -1.49148129436685
C           -8.18725327715998        1.94938658212444        1.01767006336367
C           -7.39481998741325       -0.05839118673281       -0.21542160916186
C           -8.62401289897579       -0.67929733525735       -0.39979433146250
C           -8.74756744440485       -2.05205951059330       -0.50168930636658
C           -7.60932106573962       -2.83631344787330       -0.44752671829391
C           -6.37679785110710       -2.24550503863719       -0.26315607102530
C           -6.25366739073115       -0.86049084208786       -0.11347879738020
C           -3.75026248302454       -1.99539178596457        1.29612563030842
C           -2.65122168612787       -2.81714206527535        1.40891432292472
C            1.77655180187613       -1.94321387435304        0.65988787093787
C            2.87099553810458       -1.11304700253930        0.77079280147573
C            4.82385814274768        1.09427456747811       -0.15906396671926
C            3.55800197441994        1.62472301407726       -0.42748592846339
C            3.35598809963878        2.98715363302872       -0.50011301585009
C            4.42109988347417        3.85139600628052       -0.32087331594358
C            5.68154074505679        3.32908507680680       -0.10069118144497
C            5.91318637747518        1.96120652875366       -0.02542744830896
H            7.27560945296604        1.66443794768169        2.32107443643427
H            8.90737010110358        1.69541909744592        1.65138369328053
H            7.86541445187284        3.10468890782707        1.49031292043930
H            9.21601816861738        1.62398915254762       -0.91769208250684
H            8.18042068857711        3.03825949707212       -1.07814521549230
H            7.78947651793388        1.55737163132755       -1.95349037219379
H            9.51557195518281       -0.07340696349627        0.46673780494990
H            9.71578354498792       -2.49924805848189        0.63850393241570
H            7.66950116128922       -3.90385160799587        0.55843861681621
H            5.49214805039940       -2.86138852941899        0.25054858481295
H            4.52565811337513       -1.99455850723798       -2.05264235844300
H            2.54174993481161       -3.47182443248687       -2.26079659772371
H           -1.02062378013727       -1.94044118323737       -1.43607583731265
H           -2.97593104533363       -0.45592567759710       -1.62115089179663
H           -2.72433839758584        0.95145403931062        0.60117533006414
H           -2.36622123044211        3.35790101319282        0.71823363132832
H           -4.27344622440242        4.91123531758717        0.37934584103895
H           -6.50605267294107        4.00670176421721       -0.00765257586821
H           -8.90329109478871        1.69184575180909       -1.65530451243710
H           -7.86031408552394        3.10013779380530       -1.49183382692459
H           -7.27016859296135        1.65945069889242       -2.32159746063420
H           -7.79335342544552        1.55233318494884        1.95185311258659
H           -9.21756822636437        1.62143089061994        0.91300919859324
H           -8.18021804093935        3.03407072599021        1.07612535228499
H           -9.51620170631632       -0.07612296949271       -0.46964063422833
H           -9.71928049344060       -2.50190059535725       -0.63881986345576
H           -7.67500749054976       -3.90906488194313       -0.55416934948925
H           -5.49652805168419       -2.86896990164978       -0.24571196383720
H           -4.52168398038357       -2.00413363112266        2.05161707712830
H           -2.53551859283940       -3.47924515675818        2.25426706573343
H            1.01661342802464       -1.93700074277232        1.42700410523211
H            2.96965515197709       -0.45038420877243        1.61753266368683
H            2.72239463615346        0.96249960903533       -0.59154243161941
H            2.36655164455174        3.36935660511459       -0.70350658180172
H            4.27653090125451        4.92015587239116       -0.36848389121809
H            6.50920578755342        4.01259279632422        0.01088394108532

          :  Hamiltonian                  GFN2-xTB          :
         :: gradient norm              0.000045930068 Eh/a0 ::
         :: HOMO-LUMO gap              1.272280244031 eV    ::
         :: SCC energy              -128.830837366856 Eh    ::
         :: -> dispersion             -0.114984175682 Eh    ::
         :: -> Gsolv                  -0.054701885161 Eh    ::
         :: repulsion energy           2.191629055657 Eh    ::

    * Orbital Energies and Occupations

         #    Occupation            Energy/Eh            Energy/eV
      -------------------------------------------------------------
         1        2.0000           -0.7311507             -19.8956
       ...           ...                  ...                  ...
       105        2.0000           -0.4121105             -11.2141
       106        2.0000           -0.4120764             -11.2132
       107        2.0000           -0.4102294             -11.1629
       108        2.0000           -0.4101116             -11.1597
       109        2.0000           -0.4072312             -11.0813
       110        2.0000           -0.4071982             -11.0804
       111        2.0000           -0.4009100             -10.9093
       112        2.0000           -0.4008782             -10.9085
       113        2.0000           -0.3955061             -10.7623
       114        2.0000           -0.3954881             -10.7618
       115        2.0000           -0.3901613             -10.6168
       116        2.0000           -0.3529486              -9.6042
       117        2.0000           -0.3525955              -9.5946 (HOMO)
       118                         -0.3058401              -8.3223 (LUMO)
       119                         -0.3046851              -8.2909
       120                         -0.2501034              -6.8057
       121                         -0.2495269              -6.7900
       122                         -0.2281453              -6.2081
       123                         -0.2281300              -6.2077
       124                         -0.2239180              -6.0931
       125                         -0.2233865              -6.0787
       126                         -0.2215911              -6.0298
       127                         -0.2215793              -6.0295
       128                         -0.2202102              -5.9922
       ...                                ...                  ...
       228                          0.6740840              18.3428
      -------------------------------------------------------------
                  HL-Gap            0.0467555 Eh            1.2723 eV

     #   Z          covCN         q      C6AA      α(0)
     1   6 C        3.761    -0.105    22.546     6.769
     2   6 C        3.909     0.021    20.156     6.381
     3   6 C        3.761    -0.105    22.545     6.769
     4   6 C        2.979    -0.011    28.277     8.723
     5   6 C        2.928    -0.036    28.905     8.817
     6   6 C        2.917    -0.043    29.077     8.842
     7   6 C        2.920    -0.033    28.833     8.805
     8   6 C        2.924    -0.058    29.453     8.900
     9   6 C        2.926     0.056    26.735     8.479
    10   7 N        2.752    -0.062    22.434     7.035
    11   6 C        2.926     0.082    26.165     8.388
    12   6 C        2.918    -0.035    28.861     8.810
    13   6 C        2.922    -0.012    28.326     8.728
    14   6 C        2.971    -0.016    28.401     8.742
    15   6 C        2.821     0.213    23.503     7.944
    16   8 O        0.857    -0.392    21.526     6.220
    17   6 C        2.821     0.213    23.503     7.944
    18   8 O        0.857    -0.392    21.525     6.220
    19   6 C        2.971    -0.016    28.401     8.742
    20   6 C        2.919    -0.020    28.511     8.756
    21   6 C        2.919    -0.034    28.853     8.809
    22   6 C        2.927     0.082    26.164     8.388
    23   7 N        2.753    -0.062    22.435     7.035
    24   6 C        2.926     0.056    26.738     8.480
    25   6 C        2.924    -0.059    29.463     8.901
    26   6 C        2.920    -0.034    28.837     8.806
    27   6 C        2.917    -0.044    29.081     8.843
    28   6 C        2.928    -0.036    28.904     8.817
    29   6 C        2.979    -0.011    28.276     8.723
    30   6 C        3.909     0.021    20.156     6.381
    31   6 C        3.761    -0.105    22.546     6.769
    32   6 C        3.761    -0.105    22.546     6.769
    33   6 C        2.979    -0.011    28.278     8.723
    34   6 C        2.928    -0.036    28.906     8.817
    35   6 C        2.917    -0.043    29.078     8.843
    36   6 C        2.920    -0.033    28.833     8.805
    37   6 C        2.924    -0.058    29.454     8.900
    38   6 C        2.926     0.056    26.735     8.479
    39   6 C        2.918    -0.035    28.861     8.810
    40   6 C        2.922    -0.012    28.326     8.728
    41   6 C        2.919    -0.020    28.511     8.756
    42   6 C        2.919    -0.034    28.854     8.809
    43   6 C        2.926     0.056    26.738     8.480
    44   6 C        2.924    -0.059    29.464     8.901
    45   6 C        2.920    -0.034    28.837     8.806
    46   6 C        2.917    -0.044    29.081     8.843
    47   6 C        2.928    -0.036    28.904     8.817
    48   6 C        2.979    -0.011    28.276     8.722
    49   1 H        0.925     0.031     2.568     2.506
    50   1 H        0.925     0.043     2.406     2.426
    51   1 H        0.925     0.044     2.399     2.422
    52   1 H        0.925     0.043     2.403     2.424
    53   1 H        0.925     0.044     2.403     2.424
    54   1 H        0.925     0.032     2.564     2.504
    55   1 H        0.926     0.037     2.491     2.468
    56   1 H        0.926     0.029     2.596     2.519
    57   1 H        0.926     0.029     2.597     2.520
    58   1 H        0.926     0.026     2.641     2.541
    59   1 H        0.926     0.062     2.179     2.308
    60   1 H        0.926     0.065     2.139     2.287
    61   1 H        0.926     0.047     2.362     2.403
    62   1 H        0.926     0.061     2.189     2.314
    63   1 H        0.926     0.027     2.628     2.535
    64   1 H        0.926     0.030     2.581     2.512
    65   1 H        0.926     0.030     2.593     2.518
    66   1 H        0.926     0.037     2.495     2.470
    67   1 H        0.925     0.043     2.406     2.426
    68   1 H        0.925     0.044     2.400     2.422
    69   1 H        0.925     0.031     2.568     2.506
    70   1 H        0.925     0.032     2.564     2.504
    71   1 H        0.925     0.043     2.403     2.424
    72   1 H        0.925     0.043     2.403     2.424
    73   1 H        0.926     0.037     2.491     2.468
    74   1 H        0.926     0.029     2.596     2.520
    75   1 H        0.926     0.029     2.598     2.520
    76   1 H        0.926     0.026     2.640     2.541
    77   1 H        0.926     0.062     2.179     2.308
    78   1 H        0.926     0.065     2.139     2.287
    79   1 H        0.926     0.047     2.363     2.404
    80   1 H        0.926     0.061     2.189     2.313
    81   1 H        0.926     0.027     2.626     2.534
    82   1 H        0.926     0.030     2.581     2.512
    83   1 H        0.926     0.030     2.593     2.518
    84   1 H        0.926     0.037     2.495     2.470

molecular dipole:
                 x           y           z       tot (Debye)
 q only:        0.001       2.904       0.003
   full:        0.000       2.769       0.003       7.039

 projected vibrational frequencies (cm⁻¹)
eigval :       -0.00    -0.00    -0.00     0.00     0.00     0.00
eigval :        3.01     9.72    12.80    24.07    24.65    31.40
eigval :       33.79    52.89    57.78    60.76    60.89    91.29
eigval :       97.03   104.13   104.68   108.57   110.87   132.88
eigval :      136.81   138.19   138.79   158.64   171.87   198.88
eigval :      199.44   206.05   207.00   222.55   222.71   237.71
eigval :      238.16   251.87   254.88   295.27   300.30   310.44
eigval :      319.21   333.51   333.64   336.84   343.91   350.92
eigval :      355.62   355.82   369.76   369.85   379.52   380.26
eigval :      391.53   401.50   409.70   409.74   453.72   453.79
eigval :      475.34   479.93   489.32   493.58   498.15   500.03
eigval :      515.77   515.94   548.45   548.50   557.62   563.36
eigval :      578.08   578.23   588.91   589.85   603.26   607.04
eigval :      625.47   646.13   656.46   675.01   678.40   683.93
eigval :      684.11   695.33   695.54   697.44   715.32   739.06
eigval :      745.22   759.69   777.86   777.96   778.97   779.12
eigval :      814.43   820.43   826.89   829.15   862.52   862.67
eigval :      864.43   869.59   869.92   871.18   871.29   913.62
eigval :      913.69   914.04   914.25   915.11   915.61   915.71
eigval :      919.63   919.84   922.76   922.78   924.30   924.39
eigval :      929.67   929.81   932.73   939.46   940.28   960.10
eigval :      960.30   997.75  1013.08  1014.67  1014.83  1045.38
eigval :     1075.91  1076.00  1084.47  1084.63  1114.21  1114.24
eigval :     1118.84  1118.91  1125.88  1126.04  1140.21  1140.29
eigval :     1158.57  1158.60  1167.09  1170.90  1173.75  1177.31
eigval :     1185.30  1185.46  1186.92  1187.76  1195.09  1200.42
eigval :     1222.24  1238.88  1245.31  1248.06  1248.21  1250.67
eigval :     1255.80  1255.94  1266.25  1266.51  1293.64  1293.69
eigval :     1309.66  1312.38  1313.21  1313.46  1326.74  1326.87
eigval :     1329.99  1330.27  1331.18  1331.28  1401.69  1401.84
eigval :     1405.08  1405.66  1420.06  1420.29  1433.45  1433.55
eigval :     1436.15  1436.22  1464.21  1464.66  1473.10  1473.37
eigval :     1486.58  1486.62  1487.80  1487.93  1490.73  1491.19
eigval :     1497.39  1497.46  1502.00  1502.14  1545.04  1545.83
eigval :     1565.87  1567.17  1573.80  1573.83  1588.77  1588.81
eigval :     1589.93  1590.03  1599.07  1599.08  1657.13  1673.81
eigval :     3022.59  3022.64  3025.08  3025.12  3041.44  3041.52
eigval :     3043.36  3043.40  3049.99  3050.06  3053.88  3053.89
eigval :     3074.67  3074.70  3075.23  3075.36  3082.49  3082.51
eigval :     3082.85  3082.97  3085.17  3086.12  3087.98  3088.10
eigval :     3093.02  3093.03  3094.02  3094.11  3097.21  3097.47
eigval :     3098.41  3098.65  3101.05  3101.09  3102.04  3102.17

   temp. (K)  partition function   enthalpy   heat capacity  entropy
                                   cal/mol     cal/K/mol   cal/K/mol   J/K/mol
 298.15  VIB  0.258E+20            24323.345    152.047    152.370
         ROT  0.503E+08              888.752      2.981     38.223
         INT  0.130E+28            25212.097    155.027    190.593
         TR   0.151E+29             1481.254      4.968     45.159
         TOT                       26693.3511   159.9956   235.7521   986.3868

       T/K    H(0)-H(T)+PV         H(T)/Eh          T*S/Eh         G(T)/Eh
   ------------------------------------------------------------------------
    298.15    0.425386E-01    0.705340E+00    0.112013E+00    0.593326E+00
   ------------------------------------------------------------------------

         :::::::::::::::::::::::::::::::::::::::::::::::::::::
         ::                  THERMODYNAMIC                  ::
         :::::::::::::::::::::::::::::::::::::::::::::::::::::
         :: total free energy        -126.045882074181 Eh   ::
         ::.................................................::
         :: total energy             -126.639208308381 Eh   ::
         :: zero point energy           0.662801108057 Eh   ::
         :: G(RRHO) w/o ZPVE           -0.069474873857 Eh   ::
         :: G(RRHO) contrib.            0.593326234200 Eh   ::
         :::::::::::::::::::::::::::::::::::::::::::::::::::::

           -------------------------------------------------
          | TOTAL ENERGY             -126.639208308381 Eh   |
          | TOTAL ENTHALPY           -125.933868637632 Eh   |
          | TOTAL FREE ENERGY        -126.045882074181 Eh   |
          | GRADIENT NORM               0.000045920034 Eh/α |
          | HOMO-LUMO GAP               1.272280953673 eV   |
           -------------------------------------------------

 * finished run on 2025/09/12 at 11:38:53.723
