   * xtb version 6.7.1 (edcfbbe) compiled by 'albert@albert-system' on 2024-07-22

   ID    Z sym.   atoms
    1    6 C      1-9, 11-15, 17, 19-22, 24-48
    2    7 N      10, 23
    3    8 O      16, 18
    4    1 H      49-84

          program call               : xtb data2507/toluene/DC-ACR/DC-ACR_toluene_T1_crest.xyz --gfn 2 --uhf 2 --gbsa toluene --ohess vtight --parallel 40 --molden --ceasefiles --namespace data2507/toluene/DC-ACR/DC-ACR_toluene_T1_finalOpt
      * Solvation model:               GBSA
        Solvent                        toluene
        Solvent mass                       9.2140E+01 g/mol
          :  Hamiltonian                  GFN2-xTB          :
 * total energy  :  -126.5872827 Eh     change       -0.6549499E-09 Eh
 * total energy  :  -126.5876586 Eh     change       -0.3758959E-03 Eh
 * total energy  :  -126.5877920 Eh     change       -0.1334067E-03 Eh
 * total energy  :  -126.5878290 Eh     change       -0.3698625E-04 Eh
 * total energy  :  -126.5878721 Eh     change       -0.4309879E-04 Eh
 * total energy  :  -126.5879031 Eh     change       -0.3105633E-04 Eh
 * total energy  :  -126.5879290 Eh     change       -0.2587153E-04 Eh
 * total energy  :  -126.5879491 Eh     change       -0.2014520E-04 Eh
 * total energy  :  -126.5879622 Eh     change       -0.1301079E-04 Eh
 * total energy  :  -126.5879858 Eh     change       -0.2368015E-04 Eh
 * total energy  :  -126.5892001 Eh     change       -0.2924830E-06 Eh
 * total energy  :  -126.5892004 Eh     change       -0.3044004E-06 Eh
 * total energy  :  -126.5892007 Eh     change       -0.3244510E-06 Eh
 * total energy  :  -126.5892011 Eh     change       -0.3557300E-06 Eh
 * total energy  :  -126.5892015 Eh     change       -0.4080856E-06 Eh
 * total energy  :  -126.5892020 Eh     change       -0.4822506E-06 Eh
 * total energy  :  -126.5892025 Eh     change       -0.5707434E-06 Eh
 * total energy  :  -126.5892032 Eh     change       -0.6515176E-06 Eh
 * total energy  :  -126.5892032 Eh     change       -0.1776968E-08 Eh
   *** GEOMETRY OPTIMIZATION CONVERGED AFTER 94 ITERATIONS ***

 final structure:
================
84
 xtb: 6.7.1 (edcfbbe)
C            4.45896408128671        3.77434385554134        0.69836610051503
C            4.46499551653599        2.78126240325303       -0.48043359905263
C            5.17502083984248        3.40676784205089       -1.69732213699229
C            5.22205158957457        1.53822107847171       -0.06098539833122
C            6.55270466279650        1.63879518492779        0.32256025598686
C            7.28347178781481        0.53689392966147        0.72819556049945
C            6.67724183514852       -0.70975052173694        0.76534962776372
C            5.35854296597757       -0.84104663179053        0.39145363123848
C            4.61878950313668        0.27129455297911       -0.03368108315463
N            3.30078653851203        0.10738713985857       -0.40926356986069
C            2.70840543048911       -1.18668775222161       -0.34401358636746
C            2.90799320952900       -2.10957371098969       -1.36664706057233
C            2.27151280079597       -3.33255036257271       -1.32168976630853
C            1.39967243641246       -3.64474182159695       -0.27395218341209
C            0.67359300587576       -4.92749059812862       -0.28763073511068
O            1.20066092232005       -5.97114214257246       -0.73257354391606
C           -0.68763909113854       -4.92673839356250        0.27666622210207
O           -1.21691754673591       -5.97032104966872        0.71912461588965
C           -1.41084882812610       -3.64234925575917        0.26608711555474
C           -1.27588307067456       -2.73430586375870       -0.79047946185067
C           -1.91635445524387       -1.51493083403965       -0.74939025453353
C           -2.71297389901031       -1.18104730150108        0.34248105214335
N           -3.30134839498459        0.11467510448948        0.41100883892445
C           -2.51473577954626        1.17012046043090        0.83056450150921
C           -1.19280408376007        0.93055697146288        1.23133566016595
C           -0.38309647838906        1.96438378039855        1.64398202405940
C           -0.87491857333049        3.25968423295241        1.66748157172284
C           -2.18279141868164        3.49793743153790        1.28727392983914
C           -3.02565829425661        2.47635457823387        0.87032227864297
C           -4.45571634802819        2.79271761999201        0.48523355284316
C           -4.44569842021378        3.78684328237174       -0.69265080302804
C           -5.16360818333185        3.41982883859899        1.70254011546173
C           -5.21736774102640        1.55293393870139        0.06445029924596
C           -6.54758054600753        1.65887801327361       -0.31918669185117
C           -7.28243989931319        0.56010371104736       -0.72591270202180
C           -6.68092237427748       -0.68879044497795       -0.76409283186398
C           -5.36271829750883       -0.82535610925762       -0.39035056698145
C           -4.61879294291113        0.28381244961694        0.03578446188292
C           -2.91480159473541       -2.10587169848942        1.36291668544897
C           -2.28163391850947       -3.33045235075512        1.31478233213629
C            1.26674163831604       -2.73881751576543        0.78469242614725
C            1.91048980128490       -1.52106225126220        0.74675750183491
C            2.51791865069816        1.16627187898505       -0.82714940531349
C            1.19493612416326        0.93211501367060       -1.22763179882002
C            0.38887037881580        1.96947444964925       -1.63852218341744
C            0.88547408838316        3.26297731482000       -1.66061151516427
C            2.19439530839117        3.49589989289048       -1.28070817018644
C            3.03364437676840        2.47066488408729       -0.86541522784585
H            3.97094185065582        3.32518870509391        1.56119193688709
H            5.47256490816479        4.04368370351691        0.97976296372845
H            3.92562870351800        4.68252711930784        0.43422924198129
H            6.20411778509181        3.65659783282860       -1.45722239497947
H            4.66923153024385        4.31358461575820       -2.01509229284660
H            5.17653092894401        2.70362680986229       -2.52815670261323
H            7.03849411931493        2.60192833448619        0.30825220922797
H            8.31668773406934        0.64972916266396        1.01867977576109
H            7.23104029044505       -1.57899896961889        1.08661181474471
H            4.88603102405589       -1.81031541223404        0.42652512100171
H            3.55183303749208       -1.85866361378077       -2.19660041298581
H            2.40834332217369       -4.05711222823462       -2.11101529720799
H           -0.67213634234063       -2.99612582682465       -1.64583605636185
H           -1.80239879638277       -0.81094741880165       -1.56000469043835
H           -0.80887189161540       -0.07693253960954        1.21476751511781
H            0.63211984035337        1.76110749173416        1.94735385222466
H           -0.24588759733803        4.07693715630002        1.98456896565366
H           -2.55309664957925        4.51052870921356        1.32045256553937
H           -5.45819147250445        4.06117638698708       -0.97320260760477
H           -3.90796463884845        4.69227739849468       -0.42798625813643
H           -3.96029945429886        3.33623742414486       -1.55619719362583
H           -5.16679177802085        2.71644802897705        2.53316217836834
H           -6.19209315029939        3.67256093003704        1.46287222026794
H           -4.65522520784231        4.32516316309541        2.02039817780333
H           -7.02974596506126        2.62382635771516       -0.30407724047871
H           -8.31516175841464        0.67707676055826       -1.01651078088029
H           -7.23799997713976       -1.55566183537930       -1.08611443775670
H           -4.89383329199847       -1.79634869855797       -0.42632212081655
H           -3.55764392681201       -1.85523263963334        2.19372097996567
H           -2.42013675908185       -4.05656785547096        2.10239192633449
H            0.66203326385119       -3.00104922415060        1.63924385456476
H            1.79814929665165       -0.81880615550301        1.55907797266313
H            0.80725537431109       -0.07395385049299       -1.21216853029640
H           -0.62723202836435        1.77032267355963       -1.94163165894399
H            0.25927935236376        4.08291645039720       -1.97637476051524
H            2.56845212505343        4.50714969866104       -1.31277778144782

          :  Hamiltonian                  GFN2-xTB          :
         :: gradient norm              0.000038167397 Eh/a0 ::
         :: HOMO-LUMO gap              1.158365904596 eV    ::
         :: SCC energy              -128.771084240239 Eh    ::
         :: -> dispersion             -0.126449055393 Eh    ::
         :: -> Gsolv                  -0.071968303323 Eh    ::
         :: repulsion energy           2.181881056528 Eh    ::

    * Orbital Energies and Occupations

         #    Occupation            Energy/Eh            Energy/eV
      -------------------------------------------------------------
         1        2.0000           -0.6860008             -18.6670
       ...           ...                  ...                  ...
       106        2.0000           -0.4181628             -11.3788
       107        2.0000           -0.4172131             -11.3529
       108        2.0000           -0.4154603             -11.3053
       109        2.0000           -0.4149312             -11.2909
       110        2.0000           -0.4133193             -11.2470
       111        2.0000           -0.4104472             -11.1688
       112        2.0000           -0.4068714             -11.0715
       113        2.0000           -0.4043476             -11.0029
       114        2.0000           -0.4030623             -10.9679
       115        1.7679           -0.3629530              -9.8765
       116        1.6774           -0.3625210              -9.8647
       117        1.5546           -0.3620245              -9.8512
       118        1.0000           -0.3040293              -8.2731 (HOMO)
       119                         -0.2614600              -7.1147 (LUMO)
       120                         -0.2432729              -6.6198
       121                         -0.2409018              -6.5553
       122                         -0.2394623              -6.5161
       123                         -0.2378765              -6.4729
       124                         -0.2326502              -6.3307
       125                         -0.2322847              -6.3208
       126                         -0.2314291              -6.2975
       127                         -0.2310096              -6.2861
       128                         -0.2293857              -6.2419
       129                         -0.2058943              -5.6027
       ...                                ...                  ...
       228                          0.6673817              18.1604
      -------------------------------------------------------------
                  HL-Gap            0.0425693 Eh            1.1584 eV

     #   Z          covCN         q      C6AA      α(0)
     1   6 C        3.761    -0.107    22.597     6.777
     2   6 C        3.909     0.024    20.116     6.375
     3   6 C        3.761    -0.108    22.602     6.777
     4   6 C        2.978    -0.003    28.100     8.695
     5   6 C        2.926    -0.033    28.826     8.805
     6   6 C        2.917    -0.034    28.845     8.807
     7   6 C        2.918    -0.028    28.708     8.786
     8   6 C        2.923    -0.050    29.241     8.868
     9   6 C        2.928     0.060    26.655     8.467
    10   7 N        2.755    -0.028    21.777     6.931
    11   6 C        2.929     0.058    26.709     8.475
    12   6 C        2.918    -0.037    28.918     8.818
    13   6 C        2.923    -0.023    28.569     8.765
    14   6 C        2.971    -0.009    28.233     8.716
    15   6 C        2.825     0.165    24.427     8.098
    16   8 O        0.857    -0.476    23.250     6.465
    17   6 C        2.825     0.165    24.427     8.098
    18   8 O        0.857    -0.476    23.250     6.465
    19   6 C        2.971    -0.009    28.233     8.716
    20   6 C        2.921    -0.033    28.821     8.804
    21   6 C        2.919    -0.037    28.915     8.818
    22   6 C        2.929     0.058    26.709     8.475
    23   7 N        2.755    -0.028    21.777     6.931
    24   6 C        2.930     0.060    26.664     8.468
    25   6 C        2.923    -0.050    29.240     8.868
    26   6 C        2.919    -0.027    28.670     8.781
    27   6 C        2.917    -0.034    28.837     8.806
    28   6 C        2.926    -0.033    28.815     8.803
    29   6 C        2.978    -0.003    28.090     8.694
    30   6 C        3.909     0.024    20.116     6.375
    31   6 C        3.761    -0.107    22.597     6.777
    32   6 C        3.761    -0.108    22.602     6.777
    33   6 C        2.978    -0.003    28.100     8.695
    34   6 C        2.926    -0.033    28.826     8.805
    35   6 C        2.917    -0.034    28.845     8.807
    36   6 C        2.918    -0.028    28.708     8.786
    37   6 C        2.923    -0.050    29.241     8.868
    38   6 C        2.928     0.060    26.655     8.467
    39   6 C        2.918    -0.037    28.918     8.818
    40   6 C        2.923    -0.023    28.570     8.765
    41   6 C        2.921    -0.033    28.822     8.804
    42   6 C        2.919    -0.037    28.915     8.818
    43   6 C        2.930     0.060    26.663     8.468
    44   6 C        2.923    -0.050    29.240     8.868
    45   6 C        2.919    -0.027    28.670     8.781
    46   6 C        2.917    -0.034    28.837     8.806
    47   6 C        2.926    -0.033    28.815     8.803
    48   6 C        2.978    -0.003    28.090     8.694
    49   1 H        0.925     0.036     2.497     2.471
    50   1 H        0.925     0.050     2.323     2.383
    51   1 H        0.925     0.052     2.300     2.372
    52   1 H        0.925     0.050     2.321     2.382
    53   1 H        0.925     0.051     2.307     2.375
    54   1 H        0.925     0.036     2.508     2.476
    55   1 H        0.926     0.048     2.340     2.392
    56   1 H        0.926     0.041     2.439     2.442
    57   1 H        0.926     0.038     2.475     2.460
    58   1 H        0.926     0.035     2.513     2.479
    59   1 H        0.926     0.053     2.285     2.364
    60   1 H        0.926     0.044     2.391     2.418
    61   1 H        0.926     0.034     2.525     2.485
    62   1 H        0.926     0.052     2.291     2.367
    63   1 H        0.926     0.035     2.511     2.478
    64   1 H        0.926     0.035     2.513     2.479
    65   1 H        0.926     0.043     2.406     2.426
    66   1 H        0.926     0.050     2.325     2.385
    67   1 H        0.925     0.050     2.323     2.383
    68   1 H        0.925     0.052     2.300     2.372
    69   1 H        0.925     0.036     2.497     2.471
    70   1 H        0.925     0.036     2.508     2.476
    71   1 H        0.925     0.050     2.321     2.382
    72   1 H        0.925     0.051     2.307     2.375
    73   1 H        0.926     0.048     2.340     2.392
    74   1 H        0.926     0.041     2.439     2.442
    75   1 H        0.926     0.038     2.475     2.460
    76   1 H        0.926     0.035     2.513     2.479
    77   1 H        0.926     0.053     2.285     2.364
    78   1 H        0.926     0.044     2.391     2.418
    79   1 H        0.926     0.034     2.526     2.485
    80   1 H        0.926     0.052     2.291     2.367
    81   1 H        0.926     0.035     2.511     2.478
    82   1 H        0.926     0.035     2.513     2.479
    83   1 H        0.926     0.043     2.406     2.426
    84   1 H        0.926     0.050     2.325     2.385

molecular dipole:
                 x           y           z       tot (Debye)
 q only:        0.013       9.252       0.010
   full:        0.012       8.855       0.010      22.506

 projected vibrational frequencies (cm⁻¹)
eigval :       -0.00    -0.00    -0.00     0.00     0.00     0.00
eigval :       10.65    15.11    24.94    30.07    31.79    34.41
eigval :       44.92    52.53    59.40    66.87    74.69    86.24
eigval :       95.75    98.26   101.11   108.69   118.30   128.44
eigval :      150.99   151.28   156.49   164.12   179.40   208.11
eigval :      209.85   210.83   211.71   219.07   219.21   234.21
eigval :      235.58   252.57   270.98   301.03   304.89   308.57
eigval :      315.38   326.73   326.98   340.90   341.68   348.11
eigval :      374.41   374.71   379.71   380.43   387.24   389.15
eigval :      403.32   406.34   410.97   413.04   449.98   451.26
eigval :      451.78   473.72   484.38   500.69   505.98   506.11
eigval :      509.97   513.80   543.34   543.49   548.11   552.96
eigval :      561.76   579.04   583.57   590.35   600.08   601.23
eigval :      607.87   630.82   645.18   654.28   670.65   687.50
eigval :      687.55   696.79   698.28   699.50   700.73   700.80
eigval :      734.98   755.72   776.77   779.92   781.21   781.59
eigval :      808.24   808.66   826.04   826.51   858.87   860.70
eigval :      869.38   871.02   874.21   874.28   875.19   907.57
eigval :      908.72   911.61   914.54   914.82   917.02   918.11
eigval :      919.17   919.37   920.00   920.51   926.99   928.14
eigval :      930.75   930.88   933.26   937.76   938.72   959.51
eigval :      959.66   997.13  1012.61  1012.72  1013.06  1058.90
eigval :     1073.85  1074.16  1084.10  1084.77  1106.43  1107.56
eigval :     1113.33  1113.64  1123.85  1124.81  1139.72  1139.99
eigval :     1149.02  1149.04  1165.52  1166.46  1168.48  1170.43
eigval :     1184.53  1184.56  1186.69  1187.98  1191.41  1191.94
eigval :     1214.42  1218.05  1238.05  1240.13  1242.93  1243.53
eigval :     1256.06  1256.39  1260.43  1261.11  1292.47  1292.63
eigval :     1307.20  1308.58  1309.52  1312.70  1317.26  1318.16
eigval :     1327.59  1327.69  1333.64  1334.02  1394.23  1397.65
eigval :     1397.90  1398.82  1416.48  1416.64  1421.41  1421.53
eigval :     1426.58  1429.87  1432.51  1453.85  1456.47  1456.57
eigval :     1462.58  1477.20  1479.13  1481.93  1482.02  1484.67
eigval :     1484.75  1492.41  1492.52  1498.88  1498.98  1532.32
eigval :     1534.39  1538.58  1554.88  1555.00  1565.59  1569.27
eigval :     1570.28  1577.75  1578.41  1578.50  1588.20  1589.53
eigval :     3028.66  3028.69  3030.66  3030.81  3048.00  3048.03
eigval :     3049.76  3049.83  3055.02  3055.06  3058.30  3058.49
eigval :     3080.90  3081.10  3083.14  3083.24  3085.12  3085.46
eigval :     3087.08  3087.37  3090.62  3090.65  3090.94  3091.47
eigval :     3093.06  3093.27  3096.40  3096.86  3100.11  3100.21
eigval :     3102.01  3102.61  3104.43  3104.77  3109.72  3111.61

   temp. (K)  partition function   enthalpy   heat capacity  entropy
                                   cal/mol     cal/K/mol   cal/K/mol   J/K/mol
 298.15  VIB  0.684E+18            24178.774    153.175    148.855
         ROT  0.329E+08              888.752      2.981     37.379
         INT  0.225E+26            25067.527    156.156    186.234
         TR   0.151E+29             1481.254      4.968     45.159
         TOT                       26548.7807   161.1238   231.3928   968.1474

       T/K    H(0)-H(T)+PV         H(T)/Eh          T*S/Eh         G(T)/Eh
   ------------------------------------------------------------------------
    298.15    0.423082E-01    0.703599E+00    0.109942E+00    0.593657E+00
   ------------------------------------------------------------------------

         :::::::::::::::::::::::::::::::::::::::::::::::::::::
         ::                  THERMODYNAMIC                  ::
         :::::::::::::::::::::::::::::::::::::::::::::::::::::
         :: total free energy        -125.995546612956 Eh   ::
         ::.................................................::
         :: total energy             -126.589203181628 Eh   ::
         :: zero point energy           0.661290575566 Eh   ::
         :: G(RRHO) w/o ZPVE           -0.067634006893 Eh   ::
         :: G(RRHO) contrib.            0.593656568672 Eh   ::
         :::::::::::::::::::::::::::::::::::::::::::::::::::::

           -------------------------------------------------
          | TOTAL ENERGY             -126.589203181628 Eh   |
          | TOTAL ENTHALPY           -125.885604430976 Eh   |
          | TOTAL FREE ENERGY        -125.995546612956 Eh   |
          | GRADIENT NORM               0.000037386516 Eh/α |
          | HOMO-LUMO GAP               1.158370723210 eV   |
           -------------------------------------------------

 * finished run on 2025/09/12 at 11:56:11.554
