   * xtb version 6.7.1 (edcfbbe) compiled by 'albert@albert-system' on 2024-07-22

   ID    Z sym.   atoms
    1    6 C      1-17, 19-34, 36-49
    2    7 N      18, 35
    3    1 H      50-81

          program call               : xtb data2507/gas/-ph-pCzAnBzt/-ph-pCzAnBzt_gas_S0_crest.xyz --gfn 2 --ohess vtight --parallel 40 --molden --ceasefiles --namespace data2507/gas/-ph-pCzAnBzt/-ph-pCzAnBzt_gas_S0_finalOpt
          :  Hamiltonian                  GFN2-xTB          :
 * total energy  :  -122.8218579 Eh     change       -0.1351495E-08 Eh
 * total energy  :  -122.8218593 Eh     change       -0.1399895E-05 Eh
 * total energy  :  -122.8218607 Eh     change       -0.1357665E-05 Eh
 * total energy  :  -122.8218623 Eh     change       -0.1630463E-05 Eh
 * total energy  :  -122.8218633 Eh     change       -0.1031449E-05 Eh
 * total energy  :  -122.8218644 Eh     change       -0.1107426E-05 Eh
 * total energy  :  -122.8218657 Eh     change       -0.1322976E-05 Eh
 * total energy  :  -122.8218671 Eh     change       -0.1346580E-05 Eh
 * total energy  :  -122.8218685 Eh     change       -0.1450635E-05 Eh
 * total energy  :  -122.8218698 Eh     change       -0.1225143E-05 Eh
 * total energy  :  -122.8218788 Eh     change       -0.3172860E-06 Eh
 * total energy  :  -122.8218791 Eh     change       -0.3528080E-06 Eh
 * total energy  :  -122.8218795 Eh     change       -0.3668922E-06 Eh
 * total energy  :  -122.8218798 Eh     change       -0.3409405E-06 Eh
 * total energy  :  -122.8218802 Eh     change       -0.3200163E-06 Eh
 * total energy  :  -122.8218805 Eh     change       -0.2986308E-06 Eh
 * total energy  :  -122.8218807 Eh     change       -0.2738766E-06 Eh
 * total energy  :  -122.8218810 Eh     change       -0.2756094E-06 Eh
 * total energy  :  -122.8218810 Eh     change       -0.1510116E-08 Eh
   *** GEOMETRY OPTIMIZATION CONVERGED AFTER 44 ITERATIONS ***

 final structure:
================
81
 xtb: 6.7.1 (edcfbbe)
C           -1.24686947478338       -2.20605675848214       -1.51412975791783
C           -0.57794190394901       -1.11714332512477       -0.72870911787821
C            0.80868167572122       -1.06072468500455       -0.69341446383908
C            1.48612199822810       -0.06396209521592       -0.00766749942372
C            2.96732950500078       -0.04742798502089       -0.00707751699275
C            3.67150567723118       -0.71108520670443        1.00424622239902
C            2.99573632443384       -1.40749432956088        2.04047825392776
C            3.68504267049384       -2.06392651608423        3.01236794951210
C            5.09450177775746       -2.07326858952635        2.99869067730818
C            5.77938554726527       -1.41545616626303        2.02376728344909
C            5.10069260307189       -0.69891570799636        1.00295325003169
C            5.78783968391342       -0.01012118033439       -0.00720763556016
C            7.26456980711951        0.01075893534718       -0.00684338019155
C            7.97963706771726       -0.66206319177480       -0.99618898165438
C            9.35919631138804       -0.64754383625221       -1.00069675975543
C           10.04749804394175        0.05129721696523       -0.00772066405405
C           11.46038102832569        0.07214007447550       -0.00854034192180
N           12.60693018354443        0.08911349918967       -0.00963986789235
C            9.33977592663680        0.72962681814165        0.98577747885714
C            7.96034450893482        0.70395773893092        0.98212798867650
C            5.08270323212342        0.66003845794225       -1.01758909728244
C            5.74231024227187        1.39727600401479       -2.03619409928891
C            5.04038269702578        2.04253764595840       -3.00737705253664
C            3.63167016857072        1.99741063483468       -3.02025346421650
C            2.95997332000731        1.31723033695644       -2.05235876029105
C            3.65373676426121        0.63393919091814       -1.01922716881945
C            0.76597711876187        0.92612214941785        0.66504568423233
C            1.48517129366547        2.01372120991548        1.40299249317164
C           -0.61606262558689        0.87362580372248        0.62605537148847
C           -1.30043759702748       -0.13378500490411       -0.04935315057916
C           -2.77455908180817       -0.10855260068196       -0.03258330808307
C           -3.51462342930567       -1.19981039949869        0.41377697213982
C           -4.89405356387328       -1.15310794154379        0.44645705828779
C           -5.56553587547558       -0.01221030535914        0.01624576401248
N           -6.96605053072152        0.03199395856986        0.03207621636007
C           -7.73744890938371        1.03435866251807        0.58535800270491
C           -7.34586658267931        2.16896651713053        1.28157850465108
C           -8.33558536091692        3.00655031279853        1.75876768256051
C           -9.68553891404951        2.72521344263930        1.56004095482122
C          -10.08172202081160        1.58573034563242        0.88914561993447
C           -9.10530061811694        0.72805075115939        0.39992902642180
C           -9.15137034064739       -0.52101804549533       -0.30693555154238
C          -10.18873661855264       -1.31174442485322       -0.78331037958645
C           -9.87773314997683       -2.47419625043310       -1.45969967927753
C           -8.55211971801072       -2.84417097451853       -1.67609144538625
C           -7.50297630199254       -2.07439324470422       -1.21180342294243
C           -7.80932541739449       -0.91683256945468       -0.51067124315522
C           -4.83313816731357        1.08457125026731       -0.42914053663501
C           -3.45362748219385        1.03634091504422       -0.44116228020430
H           -2.23499932174303       -1.89996106100307       -1.84897991955536
H           -0.64432238826472       -2.46687636514605       -2.38190664216791
H           -1.35583621651691       -3.10397884019037       -0.90525405209803
H            1.38235431780913       -1.81120914386703       -1.21991687267018
H            1.91543487266690       -1.40640016349148        2.03650823740807
H            3.16022874739383       -2.58927002326123        3.79661471172753
H            5.62676898224259       -2.61242570662465        3.76851891727816
H            6.85921247566275       -1.43651315870279        2.01275179284335
H            7.44182448805235       -1.20399037911450       -1.76051580254619
H            9.91275341749836       -1.17216317071527       -1.76564999116766
H            9.87825574867197        1.27028323238885        1.75032756479684
H            7.40754205102371        1.23021461420624        1.74674184432488
H            6.82127266213262        1.44520305329815       -2.02608922371815
H            5.55829374988882        2.59867139554918       -3.77490943619439
H            3.09293747560891        2.51374468646022       -3.80102630136216
H            1.88018297763930        1.28640088227755       -2.04998778270605
H            2.13136153332134        2.57035659083813        0.72443656435243
H            2.11599786393660        1.58970894019531        2.18408270843796
H            0.77957906356684        2.70321084949522        1.85958929403125
H           -1.18908176738912        1.62816616271226        1.14720416698553
H           -3.00207661507300       -2.08312270255097        0.76394022795749
H           -5.45971613906808       -1.99436913967908        0.81850693728091
H           -6.30286301512999        2.38651332352226        1.45629203855275
H           -8.05636005191533        3.89785376181131        2.30133545724412
H          -10.42878804788539        3.40677287049166        1.94633494498784
H          -11.12793934987863        1.35918475751425        0.74883747413916
H          -11.21572729492346       -1.01658658798172       -0.62921858352174
H          -10.66948222821788       -3.10454464847414       -1.83646709108010
H           -8.33959545481477       -3.75146603894178       -2.22236866942941
H           -6.47905802454649       -2.36077497718576       -1.39992810276487
H           -5.35202332787684        1.96497574969903       -0.77800396638706
H           -2.89025847561863        1.88763798817208       -0.79509651860756

          :  Hamiltonian                  GFN2-xTB          :
         :: gradient norm              0.000028944707 Eh/a0 ::
         :: HOMO-LUMO gap              1.957334834988 eV    ::
         :: SCC energy              -125.212683500440 Eh    ::
         :: -> dispersion             -0.114308436337 Eh    ::
         :: repulsion energy           2.390802498196 Eh    ::

    * Orbital Energies and Occupations

         #    Occupation            Energy/Eh            Energy/eV
      -------------------------------------------------------------
         1        2.0000           -0.6747327             -18.3604
       ...           ...                  ...                  ...
       103        2.0000           -0.4172519             -11.3540
       104        2.0000           -0.4136697             -11.2565
       105        2.0000           -0.4134734             -11.2512
       106        2.0000           -0.4130935             -11.2408
       107        2.0000           -0.4101397             -11.1605
       108        2.0000           -0.4080545             -11.1037
       109        2.0000           -0.4064265             -11.0594
       110        2.0000           -0.4034092             -10.9773
       111        2.0000           -0.3983338             -10.8392
       112        2.0000           -0.3866132             -10.5203
       113        2.0000           -0.3768156             -10.2537
       114        2.0000           -0.3664743              -9.9723
       115        2.0000           -0.3603656              -9.8060 (HOMO)
       116                         -0.2884348              -7.8487 (LUMO)
       117                         -0.2707751              -7.3682
       118                         -0.2488244              -6.7709
       119                         -0.2443891              -6.6502
       120                         -0.2413218              -6.5667
       121                         -0.2381572              -6.4806
       122                         -0.2327516              -6.3335
       123                         -0.2275771              -6.1927
       124                         -0.2225240              -6.0552
       125                         -0.2200832              -5.9888
       126                         -0.2136007              -5.8124
       ...                                ...                  ...
       228                          1.1718290              31.8871
      -------------------------------------------------------------
                  HL-Gap            0.0719307 Eh            1.9573 eV

     #   Z          covCN         q      C6AA      α(0)
     1   6 C        3.758    -0.106    22.577     6.774
     2   6 C        2.967     0.008    27.831     8.653
     3   6 C        2.929    -0.045    29.128     8.851
     4   6 C        2.982     0.002    27.985     8.678
     5   6 C        2.979     0.000    28.012     8.682
     6   6 C        2.985     0.007    27.868     8.660
     7   6 C        2.918    -0.033    28.828     8.805
     8   6 C        2.914    -0.030    28.748     8.792
     9   6 C        2.915    -0.029    28.724     8.789
    10   6 C        2.917    -0.035    28.878     8.812
    11   6 C        2.983     0.006    27.870     8.660
    12   6 C        2.977    -0.010    28.269     8.721
    13   6 C        2.977     0.025    27.442     8.593
    14   6 C        2.923    -0.029    28.728     8.790
    15   6 C        2.925    -0.021    28.530     8.759
    16   6 C        2.974     0.016    27.640     8.624
    17   6 C        1.912     0.111    28.357     8.600
    18   7 N        0.911    -0.236    26.182     7.400
    19   6 C        2.925    -0.021    28.531     8.760
    20   6 C        2.923    -0.029    28.730     8.790
    21   6 C        2.983     0.006    27.870     8.660
    22   6 C        2.917    -0.035    28.880     8.812
    23   6 C        2.915    -0.029    28.724     8.789
    24   6 C        2.914    -0.030    28.749     8.792
    25   6 C        2.918    -0.033    28.831     8.805
    26   6 C        2.985     0.006    27.871     8.660
    27   6 C        2.968     0.009    27.820     8.652
    28   6 C        3.757    -0.104    22.546     6.770
    29   6 C        2.931    -0.047    29.161     8.856
    30   6 C        2.979    -0.004    28.113     8.697
    31   6 C        2.977     0.010    27.796     8.648
    32   6 C        2.924    -0.033    28.824     8.804
    33   6 C        2.921    -0.044    29.101     8.846
    34   6 C        2.913     0.062    26.615     8.460
    35   7 N        2.803    -0.045    22.100     6.982
    36   6 C        3.076     0.047    26.873     8.499
    37   6 C        2.910    -0.051    29.267     8.871
    38   6 C        2.924    -0.034    28.839     8.807
    39   6 C        2.920    -0.041    29.022     8.834
    40   6 C        2.913    -0.033    28.820     8.803
    41   6 C        3.068    -0.017    28.370     8.734
    42   6 C        3.068    -0.017    28.370     8.734
    43   6 C        2.913    -0.033    28.820     8.803
    44   6 C        2.920    -0.041    29.022     8.834
    45   6 C        2.924    -0.034    28.841     8.807
    46   6 C        2.910    -0.051    29.269     8.871
    47   6 C        3.076     0.047    26.874     8.499
    48   6 C        2.921    -0.044    29.090     8.845
    49   6 C        2.925    -0.034    28.851     8.809
    50   1 H        0.925     0.042     2.420     2.433
    51   1 H        0.925     0.042     2.417     2.431
    52   1 H        0.924     0.045     2.382     2.414
    53   1 H        0.925     0.029     2.597     2.520
    54   1 H        0.926     0.033     2.539     2.492
    55   1 H        0.926     0.030     2.582     2.513
    56   1 H        0.926     0.030     2.581     2.512
    57   1 H        0.926     0.028     2.610     2.526
    58   1 H        0.926     0.039     2.461     2.453
    59   1 H        0.926     0.041     2.431     2.438
    60   1 H        0.926     0.041     2.432     2.439
    61   1 H        0.926     0.039     2.465     2.455
    62   1 H        0.926     0.028     2.610     2.526
    63   1 H        0.926     0.030     2.581     2.512
    64   1 H        0.926     0.030     2.581     2.512
    65   1 H        0.926     0.034     2.537     2.491
    66   1 H        0.925     0.043     2.403     2.424
    67   1 H        0.925     0.044     2.401     2.423
    68   1 H        0.925     0.040     2.443     2.444
    69   1 H        0.925     0.031     2.577     2.511
    70   1 H        0.926     0.038     2.481     2.463
    71   1 H        0.926     0.040     2.454     2.450
    72   1 H        0.926     0.026     2.638     2.540
    73   1 H        0.926     0.028     2.614     2.528
    74   1 H        0.926     0.027     2.625     2.534
    75   1 H        0.926     0.030     2.582     2.513
    76   1 H        0.926     0.030     2.581     2.512
    77   1 H        0.926     0.027     2.625     2.534
    78   1 H        0.926     0.028     2.615     2.529
    79   1 H        0.926     0.026     2.647     2.544
    80   1 H        0.926     0.040     2.454     2.450
    81   1 H        0.926     0.036     2.506     2.475

molecular dipole:
                 x           y           z       tot (Debye)
 q only:       -0.986      -0.053      -0.002
   full:       -1.334      -0.069      -0.001       3.396

 projected vibrational frequencies (cm⁻¹)
eigval :       -0.00    -0.00    -0.00     0.00     0.00     0.00
eigval :        6.60     9.46    10.61    21.54    25.46    33.07
eigval :       39.31    41.67    55.19    71.17    74.14    78.11
eigval :       83.99    93.78   100.34   104.66   109.03   119.47
eigval :      125.38   133.48   134.87   144.69   171.12   177.03
eigval :      188.03   190.94   212.23   224.54   232.14   238.08
eigval :      241.13   264.16   271.79   280.67   307.12   344.22
eigval :      352.55   363.53   375.57   382.10   385.27   390.65
eigval :      394.57   397.67   415.64   422.08   427.95   434.78
eigval :      439.05   446.22   450.45   455.08   458.44   469.32
eigval :      478.30   517.88   520.27   527.36   534.16   536.44
eigval :      540.42   541.20   565.38   582.31   584.46   587.28
eigval :      596.42   608.47   611.74   617.26   637.54   641.35
eigval :      645.37   672.02   673.92   687.10   692.81   696.32
eigval :      702.02   705.51   709.07   738.13   740.33   757.66
eigval :      769.33   772.84   776.20   780.10   780.69   798.16
eigval :      815.47   823.82   864.40   867.29   870.79   873.39
eigval :      875.16   877.57   882.33   886.64   889.82   898.35
eigval :      899.09   902.40   902.78   916.66   918.89   920.09
eigval :      920.90   921.31   925.43   927.66   927.97   928.97
eigval :      930.97   931.60   933.03   935.73   991.06  1011.36
eigval :     1012.19  1019.81  1028.40  1031.42  1034.83  1040.17
eigval :     1070.22  1073.72  1080.10  1080.79  1117.44  1119.06
eigval :     1132.16  1134.59  1135.18  1152.80  1176.22  1177.53
eigval :     1180.68  1181.51  1183.53  1184.52  1186.33  1194.00
eigval :     1201.34  1207.00  1227.93  1231.29  1237.00  1242.53
eigval :     1247.76  1257.48  1258.60  1262.29  1266.37  1267.62
eigval :     1299.18  1303.97  1304.40  1308.61  1309.39  1314.12
eigval :     1340.21  1349.90  1357.55  1362.62  1365.76  1381.21
eigval :     1385.71  1393.18  1399.13  1406.44  1407.71  1414.11
eigval :     1421.89  1428.67  1429.58  1434.93  1447.31  1473.52
eigval :     1476.90  1479.41  1484.25  1484.28  1488.69  1489.57
eigval :     1490.30  1494.28  1512.37  1526.63  1532.08  1543.22
eigval :     1548.36  1557.50  1564.91  1575.35  1588.90  1589.37
eigval :     1597.31  1599.38  1604.37  1608.47  1615.70  1622.94
eigval :     2374.34  2995.16  3000.27  3014.99  3030.71  3041.23
eigval :     3043.72  3069.33  3070.44  3074.97  3075.18  3075.23
eigval :     3075.58  3078.83  3079.43  3079.91  3080.47  3081.04
eigval :     3081.61  3082.39  3084.91  3087.51  3088.01  3088.68
eigval :     3089.12  3092.73  3092.94  3093.04  3093.93  3094.60
eigval :     3094.92  3096.12  3096.58

   temp. (K)  partition function   enthalpy   heat capacity  entropy
                                   cal/mol     cal/K/mol   cal/K/mol   J/K/mol
 298.15  VIB  0.990E+19            23578.951    147.167    148.482
         ROT  0.107E+09              888.752      2.981     39.725
         INT  0.106E+28            24467.704    150.148    188.207
         TR   0.151E+29             1481.254      4.968     45.159
         TOT                       25948.9577   155.1162   233.3656   976.4017

       T/K    H(0)-H(T)+PV         H(T)/Eh          T*S/Eh         G(T)/Eh
   ------------------------------------------------------------------------
    298.15    0.413523E-01    0.668675E+00    0.110880E+00    0.557795E+00
   ------------------------------------------------------------------------

         :::::::::::::::::::::::::::::::::::::::::::::::::::::
         ::                  THERMODYNAMIC                  ::
         :::::::::::::::::::::::::::::::::::::::::::::::::::::
         :: total free energy        -122.264085522699 Eh   ::
         ::.................................................::
         :: total energy             -122.821881002253 Eh   ::
         :: zero point energy           0.627322713257 Eh   ::
         :: G(RRHO) w/o ZPVE           -0.069527233703 Eh   ::
         :: G(RRHO) contrib.            0.557795479554 Eh   ::
         :::::::::::::::::::::::::::::::::::::::::::::::::::::

           -------------------------------------------------
          | TOTAL ENERGY             -122.821881002253 Eh   |
          | TOTAL ENTHALPY           -122.153205992664 Eh   |
          | TOTAL FREE ENERGY        -122.264085522699 Eh   |
          | GRADIENT NORM               0.000028946819 Eh/α |
          | HOMO-LUMO GAP               1.957334868518 eV   |
           -------------------------------------------------

 * finished run on 2025/08/26 at 12:52:51.295
