   * xtb version 6.7.1 (edcfbbe) compiled by 'albert@albert-system' on 2024-07-22

   ID    Z sym.   atoms
    1    6 C      1-17, 19-34, 36-49
    2    7 N      18, 35
    3    1 H      50-81

          program call               : xtb data2507/gas/-ph-pCzAnBzt/-ph-pCzAnBzt_gas_S0_finalOpt.xtbopt.xyz --gfn 2 --spinpol --tblite --uhf 2 --ohess vtight --parallel 40 --molden --ceasefiles --namespace data2507/gas/-ph-pCzAnBzt/-ph-pCzAnBzt_gas_T1_preOpt
 * total energy  :  -122.7490171 Eh     change       -0.2456744E-07 Eh
 * total energy  :  -122.7552544 Eh     change       -0.6237227E-02 Eh
 * total energy  :  -122.7567477 Eh     change       -0.1493291E-02 Eh
 * total energy  :  -122.7568803 Eh     change       -0.1326593E-03 Eh
 * total energy  :  -122.7570173 Eh     change       -0.1369491E-03 Eh
 * total energy  :  -122.7571002 Eh     change       -0.8289471E-04 Eh
 * total energy  :  -122.7571804 Eh     change       -0.8023819E-04 Eh
 * total energy  :  -122.7572751 Eh     change       -0.9464683E-04 Eh
 * total energy  :  -122.7573753 Eh     change       -0.1002271E-03 Eh
 * total energy  :  -122.7574515 Eh     change       -0.7625846E-04 Eh
 * total energy  :  -122.7579923 Eh     change       -0.7326089E-06 Eh
 * total energy  :  -122.7579931 Eh     change       -0.8280353E-06 Eh
 * total energy  :  -122.7579940 Eh     change       -0.9089423E-06 Eh
 * total energy  :  -122.7579949 Eh     change       -0.8673202E-06 Eh
 * total energy  :  -122.7579957 Eh     change       -0.8249920E-06 Eh
 * total energy  :  -122.7579966 Eh     change       -0.8433296E-06 Eh
 * total energy  :  -122.7579973 Eh     change       -0.7435490E-06 Eh
 * total energy  :  -122.7579981 Eh     change       -0.8435556E-06 Eh
 * total energy  :  -122.7579982 Eh     change       -0.1888012E-07 Eh
   *** GEOMETRY OPTIMIZATION CONVERGED AFTER 68 ITERATIONS ***

 final structure:
================
81
 xtb: 6.7.1 (edcfbbe)
C           -1.25013124873755       -2.01263591749113       -1.77528860678962
C           -0.57753863215647       -1.00646210962419       -0.88901738768337
C            0.80812535084413       -0.95151770574853       -0.85278338310731
C            1.49082048875853       -0.03663601766709       -0.06091704539197
C            2.96437621345726       -0.03744641455819       -0.04678249853650
C            3.65560255779984       -0.59837232807376        1.06436456061919
C            2.95866729411161       -1.20193094600184        2.11479139495484
C            3.62949045479157       -1.81032201642029        3.17305316932131
C            5.00596461378812       -1.85545409840853        3.17309299735249
C            5.72371603812238       -1.27144410264016        2.12869410021504
C            5.08095551902927       -0.60522010187531        1.08453728892290
C            5.80694708800703       -0.00575456443774        0.00217227865606
C            7.26101049047370        0.01278562479132        0.02770333951648
C            8.00683298225420       -0.50535016491280       -1.04141335791462
C            9.38219038185308       -0.49770280338961       -1.01767673703853
C           10.06011535321840        0.04916607348403        0.07707171082143
C           11.46893084047307        0.06730908804302        0.10193433110395
N           12.61673002580187        0.08212171732322        0.12222173054474
C            9.33002515058207        0.57769060933643        1.14700064202985
C            7.95493232324865        0.54949560806897        1.12230568389768
C            5.10461255602537        0.56852728428767       -1.10918070824691
C            5.76719512865470        1.24912096859539       -2.13109518747410
C            5.07417791562810        1.80272850106545       -3.20869974874574
C            3.70153012331242        1.70921355390618       -3.26580517285171
C            3.00759726889065        1.08838719631064       -2.22967793842429
C            3.67952713379819        0.52084365060542       -1.14345632266117
C            0.76785313638076        0.88635947891648        0.70270031558391
C            1.48155428406214        1.91233792305012        1.52930196489155
C           -0.61391687944635        0.84128608260144        0.65445785850587
C           -1.29947743728675       -0.09768097694849       -0.11181979188871
C           -2.77337175743509       -0.08254625840200       -0.08302184910182
C           -3.50049358601183       -1.21096344443246        0.28573048266336
C           -4.87941188755506       -1.17688871799687        0.34027093166789
C           -5.56411420666839       -0.01154523668041        0.00619446588573
N           -6.96409419011214        0.02111162583296        0.04535955080616
C           -7.73373173587916        0.98066395568609        0.67289590991247
C           -7.33979305629249        2.07392036007282        1.43133448745017
C           -8.32806175318783        2.87210173102426        1.97477870941179
C           -9.67880180846420        2.59143224261707        1.78132509008459
C          -10.07704952481179        1.49069210643516        1.04938375523349
C           -9.10213645352660        0.67358095638231        0.49284312406682
C           -9.15080311779522       -0.53105149842537       -0.28749435110406
C          -10.19054274042058       -1.30135198869310       -0.79089810640532
C           -9.88296384840201       -2.41831594239036       -1.54176153407342
C           -8.55881181764443       -2.76120425015224       -1.80577979115610
C           -7.50732496997464       -2.01048628883595       -1.31598931326390
C           -7.80953757856742       -0.90097070306219       -0.53927639801954
C           -4.84440480247676        1.12083365431107       -0.36535760151415
C           -3.46474215935740        1.08485604309223       -0.39562189695753
H           -2.23723612869939       -1.67179572384485       -2.07826862756151
H           -0.64894696979100       -2.19166869732892       -2.66440989495898
H           -1.36291228814487       -2.96408311769415       -1.25494353007917
H            1.38062687877094       -1.64675576112047       -1.45143129736309
H            1.87897272641887       -1.20579489989444        2.09464678178513
H            3.06478460133091       -2.25842835150618        3.97687239515197
H            5.53941277071362       -2.34780852851815        3.97217483484670
H            6.79960092784490       -1.35522942043607        2.12906678311867
H            7.48664423172580       -0.95110884143289       -1.87673028937619
H            9.94762456841109       -0.91593979746519       -1.83774467314430
H            9.85513967714343        1.01002169581780        1.98634982695449
H            7.39430467176480        0.98096961572771        1.93878287334095
H            6.83876859777913        1.36941298685372       -2.08744772011200
H            5.62374246818861        2.30812531913773       -3.98847067900052
H            3.15599195058694        2.13044321641062       -4.09687264949909
H            1.92908312164076        1.05000836726197       -2.25787279252524
H            2.21559718132194        2.44320723119042        0.92400683616003
H            2.01559854873563        1.43733740257787        2.35223076484020
H            0.77846107402017        2.63145759815343        1.94208346552531
H           -1.18656857230342        1.54732931636849        1.24015882488143
H           -2.97722123551087       -2.11481506492799        0.55941297613125
H           -5.43416635730962       -2.04753337166393        0.65680716814660
H           -6.29605907026412        2.28982153573296        1.60326242303467
H           -8.04670746509085        3.73116858299889        2.56596599024757
H          -10.42088690187154        3.24169089411942        2.22011924874227
H          -11.12355794006640        1.26318635171539        0.91317841185724
H          -11.21672881029425       -1.02582611901173       -0.59983306629909
H          -10.67653115372135       -3.03276846551892       -1.94020596692820
H           -8.34912584407804       -3.63161872231472       -2.40998739537489
H           -6.48521795121551       -2.27483403403884       -1.54201510163948
H           -5.37311642788829        2.02044296644318       -0.64302311875217
H           -2.91125387813377        1.96497660496869       -0.68950835545144

 projected vibrational frequencies (cm⁻¹)
eigval :       -0.00    -0.00     0.00     0.00     0.00     0.00
eigval :        7.06     8.59     9.37    20.22    27.69    33.77
eigval :       42.17    47.95    62.13    70.19    74.86    78.25
eigval :       83.70    91.08    94.51   104.72   116.74   121.93
eigval :      126.92   128.58   132.56   144.50   171.28   176.75
eigval :      189.07   192.51   220.90   224.43   237.05   238.32
eigval :      242.54   270.22   271.76   279.40   307.19   341.76
eigval :      348.86   362.68   369.15   376.35   381.01   381.62
eigval :      384.73   395.07   402.88   414.55   422.17   425.62
eigval :      434.93   435.49   443.42   451.39   467.35   469.14
eigval :      470.74   517.29   517.99   525.62   532.17   535.48
eigval :      537.63   540.88   561.35   570.72   581.92   583.47
eigval :      592.76   601.14   608.63   611.65   619.70   638.75
eigval :      641.80   665.45   673.99   676.82   684.43   691.05
eigval :      702.24   703.34   709.15   716.28   737.71   747.14
eigval :      757.45   760.07   769.07   774.41   780.26   793.64
eigval :      815.98   823.48   842.01   845.91   864.34   866.68
eigval :      868.49   873.09   881.96   883.84   888.19   889.58
eigval :      890.67   895.52   898.33   902.31   902.64   906.85
eigval :      907.39   919.63   920.94   922.12   926.17   927.60
eigval :      931.22   935.06   935.73   944.70   990.53  1010.84
eigval :     1012.22  1013.50  1027.24  1030.57  1033.69  1039.73
eigval :     1070.77  1074.76  1099.06  1102.03  1107.22  1113.21
eigval :     1118.21  1134.60  1135.05  1152.34  1160.87  1175.73
eigval :     1180.34  1180.65  1180.97  1181.74  1183.22  1187.54
eigval :     1193.28  1200.83  1224.41  1231.13  1236.18  1239.10
eigval :     1245.93  1253.62  1256.85  1258.06  1265.86  1268.23
eigval :     1277.80  1299.24  1299.77  1301.99  1306.06  1310.71
eigval :     1313.80  1316.37  1353.03  1358.34  1361.28  1366.40
eigval :     1373.45  1374.20  1375.43  1398.34  1403.23  1404.07
eigval :     1406.75  1408.61  1415.16  1426.52  1427.26  1433.35
eigval :     1463.99  1472.84  1475.54  1476.71  1481.31  1482.50
eigval :     1485.64  1487.52  1487.98  1488.88  1507.31  1513.92
eigval :     1517.68  1530.85  1550.93  1555.44  1562.11  1568.41
eigval :     1574.66  1588.61  1593.54  1597.84  1600.14  1613.52
eigval :     2355.03  2995.71  3000.57  3016.52  3030.98  3040.44
eigval :     3042.92  3068.40  3070.71  3076.21  3076.51  3078.52
eigval :     3078.99  3079.28  3079.62  3080.02  3081.36  3082.69
eigval :     3085.21  3085.71  3087.19  3088.32  3090.51  3090.53
eigval :     3090.75  3093.25  3093.61  3094.66  3095.06  3096.34
eigval :     3096.84  3099.52  3100.37

   temp. (K)  partition function   enthalpy   heat capacity  entropy
                                   cal/mol     cal/K/mol   cal/K/mol   J/K/mol
 298.15  VIB  0.935E+19            23692.598    148.508    149.219
         ROT  0.108E+09              888.752      2.981     39.733
         INT  0.101E+28            24581.350    151.489    188.953
         TR   0.151E+29             1481.254      4.968     45.159
         TOT                       26062.6038   156.4571   234.1116   979.5229

       T/K    H(0)-H(T)+PV         H(T)/Eh          T*S/Eh         G(T)/Eh
   ------------------------------------------------------------------------
    298.15    0.415334E-01    0.666164E+00    0.111234E+00    0.554930E+00
   ------------------------------------------------------------------------

         :::::::::::::::::::::::::::::::::::::::::::::::::::::
         ::                  THERMODYNAMIC                  ::
         :::::::::::::::::::::::::::::::::::::::::::::::::::::
         :: total free energy        -122.203068034396 Eh   ::
         ::.................................................::
         :: total energy             -122.757998158581 Eh   ::
         :: zero point energy           0.624630695160 Eh   ::
         :: G(RRHO) w/o ZPVE           -0.069700570976 Eh   ::
         :: G(RRHO) contrib.            0.554930124184 Eh   ::
         :::::::::::::::::::::::::::::::::::::::::::::::::::::

           -------------------------------------------------
          | TOTAL ENERGY             -122.757998158581 Eh   |
          | TOTAL ENTHALPY           -122.091834060474 Eh   |
          | TOTAL FREE ENERGY        -122.203068034396 Eh   |
          | GRADIENT NORM               0.000050908836 Eh/α |
           -------------------------------------------------

 * finished run on 2025/08/26 at 12:53:02.249
