   * xtb version 6.7.1 (edcfbbe) compiled by 'albert@albert-system' on 2024-07-22

   ID    Z sym.   atoms
    1    6 C      1-17, 19-34, 36-49
    2    7 N      18, 35
    3    1 H      50-81

          program call               : xtb data2507/gas/-ph-pCzAnBzt/-ph-pCzAnBzt.xyz --gfn 2 --ohess vtight --parallel 40 --molden --ceasefiles --namespace data2507/gas/-ph-pCzAnBzt/-ph-pCzAnBzt_gas_S0_preOpt
          :  Hamiltonian                  GFN2-xTB          :
 * total energy  :  -122.7980775 Eh     change       -0.2542208E-08 Eh
 * total energy  :  -122.8151295 Eh     change       -0.1705201E-01 Eh
 * total energy  :  -122.8191478 Eh     change       -0.4018250E-02 Eh
 * total energy  :  -122.8197520 Eh     change       -0.6041984E-03 Eh
 * total energy  :  -122.8202375 Eh     change       -0.4855784E-03 Eh
 * total energy  :  -122.8204580 Eh     change       -0.2204841E-03 Eh
 * total energy  :  -122.8205459 Eh     change       -0.8782567E-04 Eh
 * total energy  :  -122.8206536 Eh     change       -0.1077177E-03 Eh
 * total energy  :  -122.8207148 Eh     change       -0.6125952E-04 Eh
 * total energy  :  -122.8207506 Eh     change       -0.3575374E-04 Eh
 * total energy  :  -122.8218121 Eh     change       -0.6905169E-06 Eh
 * total energy  :  -122.8218127 Eh     change       -0.5798507E-06 Eh
 * total energy  :  -122.8218132 Eh     change       -0.5444633E-06 Eh
 * total energy  :  -122.8218137 Eh     change       -0.4564074E-06 Eh
 * total energy  :  -122.8218140 Eh     change       -0.2899453E-06 Eh
 * total energy  :  -122.8218142 Eh     change       -0.1912540E-06 Eh
 * total energy  :  -122.8218143 Eh     change       -0.1598092E-06 Eh
 * total energy  :  -122.8218144 Eh     change       -0.1067008E-06 Eh
 * total energy  :  -122.8218144 Eh     change       -0.9195844E-10 Eh
   *** GEOMETRY OPTIMIZATION CONVERGED AFTER 87 ITERATIONS ***

 final structure:
================
81
 xtb: 6.7.1 (edcfbbe)
C           -1.02396923286008       -0.63480212940567       -2.61004093912286
C           -0.35452262589926       -0.30890333500340       -1.30786957224000
C            1.03222206532687       -0.29393520781019       -1.24332237113476
C            1.70967704406936       -0.02364935963777       -0.06406729013337
C            3.19090777591089       -0.01717434699456       -0.05069342372306
C            3.88859248596983       -1.18807233871529        0.26852426419723
C            3.20627183651207       -2.39321106891750        0.58093245129479
C            3.88864651990875       -3.52141702270513        0.91586576835822
C            5.29722228533209       -3.50941549464415        0.96593377899616
C            5.98845719494161       -2.37598176739986        0.66625761678414
C            5.31752606988378       -1.18139674968630        0.29350199726832
C            6.01152169384399       -0.00332076109075       -0.01906470608581
C            7.48825313753921        0.00434884770910       -0.00120686659641
C            8.20874415626341       -0.71199163235421       -0.95545104565706
C            9.58834081734809       -0.70677494790615       -0.94596010464628
C           10.27126008274551        0.01900175290387        0.03128338852650
C           11.68417910366756        0.02653138344774        0.04769707866229
N           12.83074063064716        0.03245870603540        0.06103032947082
C            9.55811706013809        0.73730210163377        0.99228531191896
C            8.17865887140577        0.72796190928183        0.96958515569982
C            5.31316740582573        1.16773669029018       -0.34765077417067
C            5.98045273979283        2.37017544968230       -0.70122125297932
C            5.28492341638474        3.49878862890803       -1.00895788687768
C            3.87552822880355        3.49717051328230       -0.98913385485715
C            3.19691565303868        2.36017208608347       -0.67717631044838
C            3.88393362331673        1.16019864513584       -0.35543789803426
C            0.98955567003871        0.23273821722794        1.10527881893497
C            1.70870604660647        0.51993997228476        2.38787944729551
C           -0.39248008170004        0.21293664368276        1.04297417745172
C           -1.07671501073752       -0.04211632996075       -0.14284956641885
C           -2.55117630337754       -0.02923438445630       -0.11380462546030
C           -3.23596991093410       -0.83530833501911        0.79158545597083
C           -4.61512414798616       -0.82095351821170        0.85099342469831
C           -5.34135006332762        0.00736400217222        0.00011098664122
N           -6.74177403920437        0.02279188350039        0.05450620053062
C           -7.53378426637032        1.14793901758857        0.16709230625122
C           -7.16483085805779        2.47925996774046        0.29693717429786
C           -8.17082489207541        3.41808552458786        0.42105224654621
C           -9.51429269802737        3.04913938264897        0.42523591535465
C           -9.88672597349385        1.72408523368537        0.32028686975295
C           -8.89365953635958        0.76157740758455        0.19470558508984
C           -8.91313035173132       -0.67024275750608        0.08771959759647
C           -9.93307894665601       -1.61155888104463        0.04316565202313
C           -9.59819737760796       -2.94415510793628       -0.08932545811547
C           -8.26675520149357       -3.34143722256442       -0.19168406910658
C           -7.23455830942970       -2.42404947316367       -0.14956869710322
C           -7.56384671991734       -1.08523627115891        0.00718753432734
C           -4.66435618295529        0.82215751157163       -0.90275558105396
C           -3.28472417829868        0.80337652035469       -0.95411636308314
H           -2.01715704541498       -1.04742055344544       -2.45048651701458
H           -1.12183558587137        0.26137289126929       -3.22340847787807
H           -0.42762427248474       -1.35340322373131       -3.16876909590721
H            1.60562946317391       -0.50310237682218       -2.13605607099585
H            2.12647806137584       -2.39221042644672        0.54856250386458
H            3.35866541828141       -4.43217130979658        1.15273926479597
H            5.82360506422418       -4.40942050162986        1.24796631335613
H            7.06739569365500       -2.37132818220779        0.71564011947187
H            7.67501286689203       -1.26920035309136       -1.71161021779178
H           10.14605177245854       -1.25889266222127       -1.68820410038495
H           10.09245878830025        1.29525266808254        1.74725863129738
H            7.62175688041825        1.27943959839328        1.71314349287984
H            7.06017659468253        2.37568576345893       -0.72850575780036
H            5.80857855725372        4.40526569149885       -1.27487549426220
H            3.34214058841628        4.40455337480168       -1.23120259693081
H            2.11675218800051        2.34778310000034       -0.67094515320253
H            2.33164778003964       -0.32793297817242        2.67261060246706
H            1.00314758500179        0.72048185694895        3.19019055468779
H            2.36267427969558        1.38386250150171        2.27124158793817
H           -0.96566304268393        0.41750927269028        1.93680757292030
H           -2.67714720360470       -1.48385404625149        1.45074174307050
H           -5.13769766286501       -1.43964405635320        1.56532356411195
H           -6.12612015288464        2.77353377658936        0.31263842947099
H           -7.90950251332597        4.46141587514532        0.52074452499132
H          -10.27091788268831        3.81362080817253        0.52146785275538
H          -10.92711710761019        1.43632165950480        0.33956400386259
H          -10.96539451609873       -1.30193721755684        0.10678839964284
H          -10.37600874081849       -3.69247818838142       -0.12371054861845
H           -8.03625408516687       -4.39005862331696       -0.31011666491742
H           -6.20672793717249       -2.74023721110152       -0.24674394671772
H           -5.22638979495554        1.45858957348537       -1.56997611193695
H           -2.76729174498632        1.44970394325742       -1.64706828409283

          :  Hamiltonian                  GFN2-xTB          :
         :: gradient norm              0.000106420133 Eh/a0 ::
         :: HOMO-LUMO gap              1.956114047667 eV    ::
         :: SCC energy              -125.212556795169 Eh    ::
         :: -> dispersion             -0.114228996017 Eh    ::
         :: repulsion energy           2.390742353567 Eh    ::

    * Orbital Energies and Occupations

         #    Occupation            Energy/Eh            Energy/eV
      -------------------------------------------------------------
         1        2.0000           -0.6746297             -18.3576
       ...           ...                  ...                  ...
       103        2.0000           -0.4170289             -11.3479
       104        2.0000           -0.4138786             -11.2622
       105        2.0000           -0.4136763             -11.2567
       106        2.0000           -0.4131544             -11.2425
       107        2.0000           -0.4103200             -11.1654
       108        2.0000           -0.4079764             -11.1016
       109        2.0000           -0.4064465             -11.0600
       110        2.0000           -0.4032808             -10.9738
       111        2.0000           -0.3983665             -10.8401
       112        2.0000           -0.3863641             -10.5135
       113        2.0000           -0.3766804             -10.2500
       114        2.0000           -0.3664986              -9.9729
       115        2.0000           -0.3603730              -9.8062 (HOMO)
       116                         -0.2884871              -7.8501 (LUMO)
       117                         -0.2707751              -7.3682
       118                         -0.2484289              -6.7601
       119                         -0.2444048              -6.6506
       120                         -0.2413345              -6.5670
       121                         -0.2381849              -6.4813
       122                         -0.2328270              -6.3355
       123                         -0.2276063              -6.1935
       124                         -0.2225651              -6.0563
       125                         -0.2199477              -5.9851
       126                         -0.2137831              -5.8173
       ...                                ...                  ...
       228                          1.1719180              31.8895
      -------------------------------------------------------------
                  HL-Gap            0.0718859 Eh            1.9561 eV

     #   Z          covCN         q      C6AA      α(0)
     1   6 C        3.758    -0.106    22.581     6.775
     2   6 C        2.967     0.008    27.830     8.653
     3   6 C        2.929    -0.045    29.128     8.851
     4   6 C        2.982     0.002    27.985     8.678
     5   6 C        2.979     0.000    28.012     8.682
     6   6 C        2.985     0.007    27.868     8.659
     7   6 C        2.918    -0.033    28.830     8.805
     8   6 C        2.914    -0.030    28.750     8.793
     9   6 C        2.915    -0.029    28.725     8.789
    10   6 C        2.917    -0.035    28.879     8.812
    11   6 C        2.983     0.006    27.870     8.660
    12   6 C        2.977    -0.010    28.269     8.721
    13   6 C        2.977     0.025    27.442     8.593
    14   6 C        2.923    -0.029    28.728     8.790
    15   6 C        2.925    -0.021    28.530     8.759
    16   6 C        2.974     0.016    27.640     8.624
    17   6 C        1.912     0.111    28.357     8.600
    18   7 N        0.911    -0.236    26.182     7.400
    19   6 C        2.925    -0.021    28.531     8.760
    20   6 C        2.923    -0.029    28.730     8.790
    21   6 C        2.983     0.006    27.870     8.660
    22   6 C        2.917    -0.035    28.878     8.812
    23   6 C        2.915    -0.029    28.724     8.788
    24   6 C        2.914    -0.030    28.747     8.792
    25   6 C        2.918    -0.033    28.828     8.805
    26   6 C        2.985     0.006    27.871     8.660
    27   6 C        2.968     0.009    27.819     8.651
    28   6 C        3.757    -0.104    22.547     6.770
    29   6 C        2.931    -0.047    29.161     8.856
    30   6 C        2.979    -0.004    28.114     8.697
    31   6 C        2.977     0.010    27.794     8.648
    32   6 C        2.925    -0.034    28.851     8.809
    33   6 C        2.921    -0.044    29.086     8.844
    34   6 C        2.913     0.062    26.615     8.460
    35   7 N        2.803    -0.045    22.105     6.983
    36   6 C        3.076     0.047    26.874     8.499
    37   6 C        2.910    -0.051    29.270     8.871
    38   6 C        2.924    -0.034    28.840     8.807
    39   6 C        2.920    -0.041    29.023     8.834
    40   6 C        2.913    -0.033    28.821     8.803
    41   6 C        3.068    -0.017    28.371     8.734
    42   6 C        3.068    -0.017    28.371     8.734
    43   6 C        2.913    -0.033    28.821     8.803
    44   6 C        2.920    -0.041    29.023     8.834
    45   6 C        2.924    -0.034    28.840     8.807
    46   6 C        2.910    -0.051    29.270     8.871
    47   6 C        3.076     0.047    26.875     8.499
    48   6 C        2.921    -0.044    29.102     8.846
    49   6 C        2.924    -0.033    28.824     8.804
    50   1 H        0.925     0.042     2.417     2.431
    51   1 H        0.924     0.045     2.382     2.414
    52   1 H        0.925     0.043     2.415     2.430
    53   1 H        0.925     0.029     2.597     2.520
    54   1 H        0.926     0.033     2.537     2.491
    55   1 H        0.926     0.030     2.582     2.513
    56   1 H        0.926     0.030     2.581     2.512
    57   1 H        0.926     0.028     2.610     2.526
    58   1 H        0.926     0.039     2.461     2.453
    59   1 H        0.926     0.041     2.431     2.438
    60   1 H        0.926     0.041     2.432     2.439
    61   1 H        0.926     0.039     2.465     2.455
    62   1 H        0.926     0.028     2.610     2.526
    63   1 H        0.926     0.030     2.580     2.512
    64   1 H        0.926     0.030     2.582     2.513
    65   1 H        0.926     0.033     2.539     2.492
    66   1 H        0.925     0.044     2.397     2.421
    67   1 H        0.925     0.040     2.442     2.444
    68   1 H        0.925     0.043     2.407     2.426
    69   1 H        0.925     0.031     2.576     2.510
    70   1 H        0.926     0.036     2.506     2.475
    71   1 H        0.926     0.040     2.453     2.449
    72   1 H        0.926     0.026     2.637     2.539
    73   1 H        0.926     0.028     2.614     2.528
    74   1 H        0.926     0.027     2.626     2.534
    75   1 H        0.926     0.030     2.582     2.513
    76   1 H        0.926     0.030     2.582     2.513
    77   1 H        0.926     0.027     2.626     2.534
    78   1 H        0.926     0.028     2.615     2.529
    79   1 H        0.926     0.026     2.643     2.542
    80   1 H        0.926     0.040     2.454     2.450
    81   1 H        0.926     0.038     2.482     2.463

molecular dipole:
                 x           y           z       tot (Debye)
 q only:       -0.978      -0.006      -0.054
   full:       -1.327      -0.003      -0.067       3.376

 projected vibrational frequencies (cm⁻¹)
eigval :       -0.00    -0.00     0.00     0.00     0.00     0.00
eigval :        6.76     9.14    10.64    22.20    25.17    32.85
eigval :       39.34    42.21    53.65    70.21    77.96    78.81
eigval :       85.19    90.88   100.27   104.25   109.30   119.40
eigval :      127.27   132.13   133.51   144.60   170.64   176.38
eigval :      188.40   193.59   212.45   215.81   231.64   238.90
eigval :      243.98   264.26   271.82   283.88   306.50   338.34
eigval :      348.72   363.52   375.60   382.53   388.35   391.41
eigval :      394.59   400.80   418.85   422.12   427.49   434.06
eigval :      435.24   446.16   450.81   454.70   458.47   469.05
eigval :      478.91   517.80   520.27   528.53   534.10   535.47
eigval :      539.56   541.22   564.81   582.64   584.67   587.26
eigval :      595.55   610.67   611.95   618.21   638.43   639.53
eigval :      645.30   672.06   673.92   686.38   692.86   696.20
eigval :      702.05   705.38   709.07   738.18   740.34   757.68
eigval :      769.51   772.88   776.21   780.12   780.81   798.18
eigval :      815.47   823.63   864.93   867.65   870.78   873.64
eigval :      875.14   877.60   881.98   886.87   890.51   898.12
eigval :      899.06   902.54   902.90   916.66   918.91   920.04
eigval :      920.93   921.46   925.50   927.25   927.96   928.99
eigval :      930.98   931.54   933.02   935.54   991.08  1011.31
eigval :     1012.10  1019.78  1028.17  1031.66  1034.88  1040.16
eigval :     1070.19  1073.78  1080.10  1080.74  1117.33  1119.01
eigval :     1132.17  1134.45  1135.16  1152.78  1176.11  1177.42
eigval :     1180.64  1181.49  1183.46  1184.51  1186.33  1193.94
eigval :     1201.25  1207.15  1227.85  1231.18  1237.05  1242.53
eigval :     1247.46  1257.31  1258.40  1262.31  1266.21  1267.64
eigval :     1299.14  1303.99  1304.33  1308.61  1309.27  1314.09
eigval :     1340.25  1349.92  1357.44  1362.62  1365.67  1381.17
eigval :     1385.76  1393.19  1399.20  1406.55  1407.72  1413.97
eigval :     1421.89  1428.59  1429.64  1434.98  1447.23  1473.55
eigval :     1476.87  1479.39  1484.18  1484.28  1488.64  1489.43
eigval :     1490.28  1494.22  1512.30  1526.64  1532.07  1543.20
eigval :     1548.35  1557.63  1565.25  1575.30  1588.89  1589.39
eigval :     1598.10  1599.36  1604.22  1608.47  1615.71  1622.94
eigval :     2374.50  2995.02  3000.26  3015.17  3030.37  3042.04
eigval :     3043.78  3069.31  3070.60  3075.05  3075.11  3075.21
eigval :     3075.56  3078.68  3079.58  3079.71  3080.42  3081.07
eigval :     3081.47  3082.40  3084.70  3087.39  3088.14  3088.59
eigval :     3089.02  3092.63  3092.76  3093.05  3093.92  3094.58
eigval :     3094.85  3095.90  3096.37

   temp. (K)  partition function   enthalpy   heat capacity  entropy
                                   cal/mol     cal/K/mol   cal/K/mol   J/K/mol
 298.15  VIB  0.992E+19            23582.977    147.174    148.503
         ROT  0.107E+09              888.752      2.981     39.725
         INT  0.106E+28            24471.729    150.155    188.227
         TR   0.151E+29             1481.254      4.968     45.159
         TOT                       25952.9832   155.1232   233.3863   976.4885

       T/K    H(0)-H(T)+PV         H(T)/Eh          T*S/Eh         G(T)/Eh
   ------------------------------------------------------------------------
    298.15    0.413587E-01    0.668669E+00    0.110889E+00    0.557779E+00
   ------------------------------------------------------------------------

         :::::::::::::::::::::::::::::::::::::::::::::::::::::
         ::                  THERMODYNAMIC                  ::
         :::::::::::::::::::::::::::::::::::::::::::::::::::::
         :: total free energy        -122.264035133215 Eh   ::
         ::.................................................::
         :: total energy             -122.821814441590 Eh   ::
         :: zero point energy           0.627309982169 Eh   ::
         :: G(RRHO) w/o ZPVE           -0.069530673793 Eh   ::
         :: G(RRHO) contrib.            0.557779308376 Eh   ::
         :::::::::::::::::::::::::::::::::::::::::::::::::::::

           -------------------------------------------------
          | TOTAL ENERGY             -122.821814441590 Eh   |
          | TOTAL ENTHALPY           -122.153145748029 Eh   |
          | TOTAL FREE ENERGY        -122.264035133215 Eh   |
          | GRADIENT NORM               0.000106398851 Eh/α |
          | HOMO-LUMO GAP               1.956115386525 eV   |
           -------------------------------------------------

 * finished run on 2025/08/26 at 12:48:39.313
