   * xtb version 6.7.1 (edcfbbe) compiled by 'albert@albert-system' on 2024-07-22

   ID    Z sym.   atoms
    1    6 C      1-17, 19-34, 36-49
    2    7 N      18, 35
    3    1 H      50-81

          program call               : xtb data2507/gas/-ph-pCzAnBzt/-ph-pCzAnBzt_gas_T1_crest.xyz --gfn 2 --spinpol --tblite --uhf 2 --ohess vtight --parallel 40 --molden --ceasefiles --namespace data2507/gas/-ph-pCzAnBzt/-ph-pCzAnBzt_gas_T1_finalOpt
 * total energy  :  -122.7579581 Eh     change        0.9509340E-07 Eh
 * total energy  :  -122.7580014 Eh     change       -0.4332437E-04 Eh
 * total energy  :  -122.7580136 Eh     change       -0.1216097E-04 Eh
 * total energy  :  -122.7579990 Eh     change        0.1453353E-04 Eh
 * total energy  :  -122.7580170 Eh     change       -0.1792393E-04 Eh
 * total energy  :  -122.7580224 Eh     change       -0.5433827E-05 Eh
 * total energy  :  -122.7580254 Eh     change       -0.3043485E-05 Eh
 * total energy  :  -122.7580308 Eh     change       -0.5356302E-05 Eh
 * total energy  :  -122.7580354 Eh     change       -0.4645605E-05 Eh
 * total energy  :  -122.7580379 Eh     change       -0.2444900E-05 Eh
 * total energy  :  -122.7580631 Eh     change       -0.1125345E-05 Eh
 * total energy  :  -122.7580638 Eh     change       -0.7011066E-06 Eh
 * total energy  :  -122.7580646 Eh     change       -0.8229803E-06 Eh
 * total energy  :  -122.7580654 Eh     change       -0.7988300E-06 Eh
 * total energy  :  -122.7580660 Eh     change       -0.5947528E-06 Eh
 * total energy  :  -122.7580660 Eh     change        0.1890119E-07 Eh
 * total energy  :  -122.7580661 Eh     change       -0.1641125E-06 Eh
 * total energy  :  -122.7580666 Eh     change       -0.4500778E-06 Eh
 * total energy  :  -122.7580667 Eh     change       -0.8435626E-07 Eh
   *** GEOMETRY OPTIMIZATION CONVERGED AFTER 47 ITERATIONS ***

 final structure:
================
81
 xtb: 6.7.1 (edcfbbe)
C           -1.24993005645920        2.09787581301498        1.70078053784202
C           -0.58099216522646        1.06016685037421        0.84854033480294
C            0.80394238280275        1.01209778473031        0.80355528114945
C            1.49088730847397        0.05370270036509        0.06601477729184
C            2.96210481496183        0.05330258230808        0.06755159965816
C            3.66933006516058        1.09882648186945       -0.59287172573331
C            2.99362119565920        2.12741777789834       -1.25490215066198
C            3.68311312000628        3.18793649933710       -1.83823980240986
C            5.05674951077793        3.24013049555969       -1.75287214395615
C            5.75576805910485        2.20750757032159       -1.12706783038655
C            5.09552814045325        1.10488520645603       -0.58347773535335
C            5.80578040643076        0.01601849126275        0.02225330291576
C            7.25984464222849       -0.00914192960840       -0.01497615153174
C            8.00990330929076       -0.14185016113247        1.16269838808837
C            9.38515498649786       -0.15848334263975        1.13078618063693
C           10.05804214796654       -0.05973280002198       -0.09161138873623
C           11.46646953359719       -0.08493812946005       -0.13048212386044
N           12.61394067957971       -0.10496226509951       -0.16164652170628
C            9.32336841869986        0.06529637496582       -1.27549928890548
C            7.94887003612273        0.09882139953681       -1.23196253415326
C            5.08858508421015       -1.04098201607447        0.67302634508894
C            5.73285667077124       -2.15699072279107        1.20893729936381
C            5.02645220440752       -3.14794328906507        1.89133269739365
C            3.66199371227698       -3.03895039092534        2.04510493546310
C            2.98479593038286       -1.96874543151824        1.46467178813539
C            3.66550394308992       -0.98702012705027        0.73971141035170
C            0.76665669339541       -0.89324243213875       -0.66823844569218
C            1.47058656772544       -1.91658527567196       -1.50705672477477
C           -0.61501979888153       -0.84401332786151       -0.62361317078542
C           -1.30363390377619        0.11600448970957        0.11406520545983
C           -2.77657680020503        0.09225999309650        0.08737177801418
C           -3.51369276244174        1.21389855274043       -0.28330510066303
C           -4.89234090133964        1.16893163317315       -0.33579065078866
C           -5.56721561926898       -0.00192765102018       -0.00162980303671
N           -6.96684832334454       -0.04713504425152       -0.04262126781932
C           -7.72589130111788       -1.00769377094419       -0.68098326709326
C           -7.31917640975587       -2.08954055134363       -1.44890823693798
C           -8.29828352941949       -2.89097395712142       -2.00396134710523
C           -9.65214280289419       -2.62453850190645       -1.81201419485759
C          -10.06299597698215       -1.53551256077505       -1.06951783565735
C           -9.09753165329660       -0.71513963051802       -0.50141254228221
C           -9.15916113173741        0.48119542295758        0.29080912612631
C          -10.20675106648829        1.23659030970818        0.80047049116970
C           -9.91066023734444        2.34897100932282        1.56273760347269
C           -8.59019040190586        2.70250537338007        1.83125365464225
C           -7.53096626111263        1.96681026275388        1.33538810318578
C           -7.82189239902223        0.86152349205055        0.54848092058398
C           -4.83819413392722       -1.12826258684110        0.37009116721954
C           -3.45912118222500       -1.08038585495263        0.40165525671922
H           -1.35895536965835        3.03253999049560        1.14997331409262
H           -2.23782065606833        1.77091657150076        2.01596915066093
H           -0.64728443656403        2.30357037543847        2.58314805412152
H            1.37540722059664        1.73053639155709        1.37524085698957
H            1.91593385588138        2.09912875009604       -1.30893460317533
H            3.13384222749552        3.96991052385390       -2.34079909231284
H            5.60243747823271        4.07235720009473       -2.17132783103349
H            6.83059546695429        2.27562851330573       -1.05761616089893
H            7.49419400903983       -0.19235762798428        2.11060862781898
H            9.95422655777568       -0.24264270538668        2.04524391961843
H            9.84429348748788        0.13061427863150       -2.21970177619991
H            7.38413172141312        0.17177822286701       -2.15005068668274
H            6.79942683731576       -2.26903323016775        1.08850322513422
H            5.55988944262949       -3.99204807234514        2.30172491471100
H            3.10975629893745       -3.78541055491668        2.59623186179694
H            1.91353620021753       -1.89077631719934        1.57626100623886
H            2.29245178957173       -1.45974747243132       -2.05622017667905
H            0.78154868219973       -2.37154762447130       -2.21446043086917
H            1.89117619142837       -2.70402894117813       -0.88113442407468
H           -1.18615006133165       -1.55918983459369       -1.19954898510331
H           -2.99888899327044        2.12088988699849       -0.56200460904794
H           -5.45459118522100        2.03504319899521       -0.65167270489160
H           -6.27278088513576       -2.29383959668837       -1.61898083670281
H           -8.00722515821591       -3.74108123635625       -2.60333650065493
H          -10.38680729860426       -3.27669529334198       -2.26037370983996
H          -11.11203633399706       -1.31936096003118       -0.93430106396172
H          -11.23007331479824        0.95320722933035        0.60555426259163
H          -10.71058798117053        2.95156297925296        1.96655453739506
H           -8.38971440481264        3.56917547376674        2.44390654785018
H           -6.51146779011787        2.23892622541267        1.56408718468182
H           -5.35972947445673       -2.03244054296308        0.64660970090900
H           -2.89893464095294       -1.95557895031531        0.69740739702509

 projected vibrational frequencies (cm⁻¹)
eigval :       -0.00    -0.00    -0.00     0.00     0.00     0.00
eigval :        7.31    10.04    11.17    19.45    30.13    34.94
eigval :       42.17    47.59    62.32    69.98    76.80    78.17
eigval :       84.38    90.72    96.78   105.22   121.49   125.02
eigval :      131.24   134.78   137.54   144.46   170.60   178.07
eigval :      185.82   194.11   223.78   227.20   235.59   239.86
eigval :      243.26   270.67   271.73   280.35   308.00   341.84
eigval :      348.40   361.81   368.13   374.27   385.06   386.34
eigval :      387.79   391.64   400.94   413.65   421.60   426.44
eigval :      434.98   437.35   446.06   450.41   468.30   469.36
eigval :      472.81   517.08   518.74   523.98   532.38   536.17
eigval :      537.16   540.92   560.89   571.10   582.09   583.90
eigval :      592.69   602.06   608.50   611.20   622.69   637.70
eigval :      639.31   669.17   673.93   674.97   682.89   691.76
eigval :      701.72   702.79   709.06   716.88   737.32   747.45
eigval :      757.36   760.72   769.15   774.54   780.33   793.52
eigval :      816.05   823.38   842.98   848.31   865.48   867.05
eigval :      869.10   873.09   881.82   883.55   888.68   890.86
eigval :      891.86   895.89   898.36   902.34   902.73   906.94
eigval :      907.10   919.87   921.08   922.44   925.99   927.45
eigval :      931.21   934.95   935.51   944.84   990.87  1011.31
eigval :     1012.22  1013.77  1028.11  1030.48  1033.35  1039.75
eigval :     1070.48  1074.12  1098.23  1101.44  1107.71  1113.14
eigval :     1118.06  1134.88  1135.17  1152.12  1161.16  1176.31
eigval :     1180.38  1180.97  1181.01  1182.06  1183.40  1187.85
eigval :     1194.01  1201.33  1224.38  1230.88  1236.34  1239.34
eigval :     1245.68  1253.02  1256.98  1259.98  1265.93  1268.13
eigval :     1278.08  1299.63  1300.07  1302.31  1306.88  1310.66
eigval :     1314.25  1316.69  1351.96  1358.07  1361.33  1365.81
eigval :     1372.56  1373.74  1376.45  1398.01  1403.00  1405.11
eigval :     1407.20  1408.91  1414.96  1426.73  1426.78  1433.57
eigval :     1463.96  1473.00  1475.58  1477.31  1482.11  1482.65
eigval :     1485.27  1487.24  1487.89  1488.88  1506.91  1514.54
eigval :     1518.04  1530.68  1547.88  1554.87  1561.62  1568.64
eigval :     1574.55  1588.44  1589.90  1597.85  1599.67  1613.55
eigval :     2355.30  2995.03  2997.35  3021.91  3031.21  3040.93
eigval :     3041.32  3069.10  3070.57  3076.21  3076.56  3078.46
eigval :     3078.68  3079.46  3079.62  3079.95  3081.31  3082.66
eigval :     3085.37  3085.72  3087.35  3088.32  3090.44  3090.47
eigval :     3090.69  3092.66  3093.42  3094.72  3095.52  3096.75
eigval :     3097.30  3099.24  3100.30

   temp. (K)  partition function   enthalpy   heat capacity  entropy
                                   cal/mol     cal/K/mol   cal/K/mol   J/K/mol
 298.15  VIB  0.501E+19            23638.882    148.515    148.335
         ROT  0.108E+09              888.752      2.981     39.735
         INT  0.539E+27            24527.634    151.496    188.070
         TR   0.151E+29             1481.254      4.968     45.159
         TOT                       26008.8884   156.4642   233.2287   975.8288

       T/K    H(0)-H(T)+PV         H(T)/Eh          T*S/Eh         G(T)/Eh
   ------------------------------------------------------------------------
    298.15    0.414478E-01    0.666215E+00    0.110814E+00    0.555400E+00
   ------------------------------------------------------------------------

         :::::::::::::::::::::::::::::::::::::::::::::::::::::
         ::                  THERMODYNAMIC                  ::
         :::::::::::::::::::::::::::::::::::::::::::::::::::::
         :: total free energy        -122.202666239141 Eh   ::
         ::.................................................::
         :: total energy             -122.758066670015 Eh   ::
         :: zero point energy           0.624767103668 Eh   ::
         :: G(RRHO) w/o ZPVE           -0.069366672794 Eh   ::
         :: G(RRHO) contrib.            0.555400430875 Eh   ::
         :::::::::::::::::::::::::::::::::::::::::::::::::::::

           -------------------------------------------------
          | TOTAL ENERGY             -122.758066670015 Eh   |
          | TOTAL ENTHALPY           -122.091851764469 Eh   |
          | TOTAL FREE ENERGY        -122.202666239141 Eh   |
          | GRADIENT NORM               0.000095633687 Eh/α |
           -------------------------------------------------

 * finished run on 2025/08/26 at 12:57:44.332
