   * xtb version 6.7.1 (edcfbbe) compiled by 'albert@albert-system' on 2024-07-22

   ID    Z sym.   atoms
    1    6 C      1, 2, 4-17, 19-22, 26-29, 31-44, 46-51
    2    7 N      3, 18, 30, 45
    3   16 S      23
    4    8 O      24, 25
    5    1 H      52-85

          program call               : xtb data2507/gas/DHID-DPS/DHID-DPS.xyz --gfn 2 --ohess vtight --parallel 40 --molden --ceasefiles --namespace data2507/gas/DHID-DPS/DHID-DPS_gas_S0_preOpt
          :  Hamiltonian                  GFN2-xTB          :
 * total energy  :  -134.6990325 Eh     change       -0.1628791E-08 Eh
 * total energy  :  -134.7143501 Eh     change       -0.1531757E-01 Eh
 * total energy  :  -134.7173911 Eh     change       -0.3041016E-02 Eh
 * total energy  :  -134.7178015 Eh     change       -0.4104016E-03 Eh
 * total energy  :  -134.7180428 Eh     change       -0.2412641E-03 Eh
 * total energy  :  -134.7181603 Eh     change       -0.1174721E-03 Eh
 * total energy  :  -134.7182585 Eh     change       -0.9821231E-04 Eh
 * total energy  :  -134.7183373 Eh     change       -0.7880112E-04 Eh
 * total energy  :  -134.7184139 Eh     change       -0.7665440E-04 Eh
 * total energy  :  -134.7184964 Eh     change       -0.8242379E-04 Eh
 * total energy  :  -134.7189804 Eh     change       -0.8885170E-06 Eh
 * total energy  :  -134.7189813 Eh     change       -0.8487885E-06 Eh
 * total energy  :  -134.7189819 Eh     change       -0.6308938E-06 Eh
 * total energy  :  -134.7189824 Eh     change       -0.4763390E-06 Eh
 * total energy  :  -134.7189829 Eh     change       -0.4826430E-06 Eh
 * total energy  :  -134.7189834 Eh     change       -0.5568797E-06 Eh
 * total energy  :  -134.7189842 Eh     change       -0.7934143E-06 Eh
 * total energy  :  -134.7189851 Eh     change       -0.9412758E-06 Eh
 * total energy  :  -134.7189852 Eh     change       -0.1171026E-07 Eh
   *** GEOMETRY OPTIMIZATION CONVERGED AFTER 94 ITERATIONS ***

 final structure:
================
85
 xtb: 6.7.1 (edcfbbe)
C            9.79023384804550       -1.44885072943728       -0.68150943374971
C            8.88425852489818       -0.87782854814499       -1.77179599625310
N            7.75666689761651       -0.18238281685261       -1.21370689719388
C            7.69307551509208        1.14949790804952       -0.88155670270936
C            8.64043358893646        2.14768950298029       -1.07355695923313
C            8.34621448515479        3.42152594110630       -0.63579311951211
C            7.13454600278776        3.71193278319233       -0.00620627534512
C            6.18080596459822        2.73883709344385        0.19062451660461
C            6.44206972854770        1.44300981388462       -0.25433204478626
C            5.75526653510572        0.20312472529857       -0.22986537850101
C            6.58971795894245       -0.76110713998363       -0.78641248832968
C            5.93992152476487       -2.01988834431339       -0.69354179028768
C            6.25064581009231       -3.32363755711845       -1.07137646499572
C            5.32782411526061       -4.32051293392279       -0.83869070904203
C            4.09388887758331       -4.03580781820339       -0.25595163033394
C            3.76060055464905       -2.75379775336567        0.13475501423556
C            4.69303590123784       -1.74438780146636       -0.05669665079209
N            4.59281423993238       -0.39292618123629        0.22659665321524
C            3.51581384374221        0.26730801593080        0.80892095447904
C            3.07426042811756        1.47439544937264        0.26236607102269
C            2.02436618567897        2.15399191171056        0.84727576358506
C            1.41329192997000        1.62881602031789        1.97055218575399
S            0.03130624374867        2.49480160854990        2.71682409201227
O            0.05935267872017        2.26929573574496        4.13820286014461
O            0.02798665788097        3.85054620718972        2.23365904356104
C           -1.38881753877614        1.63781551607050        2.03430534727663
C           -2.00453974756121        0.64296522364678        2.77002454961375
C           -3.09240438452413       -0.02507196517365        2.24218084961457
C           -3.55524124185550        0.30035293534786        0.96585082370030
N           -4.66269991654300       -0.34416209991526        0.42440915995572
C           -4.92202182361585       -1.70406383854188        0.42181742856614
C           -4.14721795925704       -2.74704545645265        0.90856019821389
C           -4.61986103098895       -4.03659658355445        0.76415086074242
C           -5.83746461561465       -4.29863490114523        0.13796786356998
C           -6.60167124592899       -3.27792195522157       -0.38512443114788
C           -6.14760083274142       -1.96747949382860       -0.25984399879415
C           -6.61671560443237       -0.69352303323805       -0.67501556388191
C           -5.70164965322288        0.26689287385940       -0.25537158040178
C           -6.21449219196585        1.54171936078951       -0.60381050197084
C           -5.81428762075357        2.86475857136315       -0.41722891661844
C           -6.61464179705522        3.87398294778861       -0.90322726431059
C           -7.80860418539858        3.59379166563560       -1.57013875250033
C           -8.23907883760124        2.29743657985029       -1.75726849213239
C           -7.44793364749518        1.26354743304157       -1.27156367755337
N           -7.66491253894285       -0.09240511162658       -1.32257141966566
C           -8.83646462551637       -0.75881256952215       -1.82253802938087
C           -9.87696432773112       -0.96927899946061       -0.72311890195356
C           -2.91685922804584        1.30239986566114        0.23084673480017
C           -1.83582235726298        1.97133687326969        0.76892467914203
C            1.83440515418831        0.43173832356406        2.51912019934018
C            2.88952268586228       -0.24993087056384        1.94493228252024
H           10.63062062852708       -1.97402003874967       -1.12754045109554
H            9.23263617733714       -2.14338253261889       -0.05732668791409
H           10.17029940702367       -0.64769224743034       -0.05189648955568
H            9.44559380593909       -0.18263401883631       -2.40135245875838
H            8.50691825075415       -1.68482282055011       -2.40636327153552
H            9.58891925848674        1.93588744021356       -1.54419786361953
H            9.07101714568391        4.21014393615716       -0.77336809201663
H            6.94751281741269        4.71901214837964        0.33516834329307
H            5.25368041421415        2.97010357083763        0.69323235618072
H            7.19621924301349       -3.54961920672219       -1.54130224763093
H            5.55532190571564       -5.33727129507463       -1.12230142069582
H            3.38245795306247       -4.83465379037565       -0.10905985181058
H            2.79247618550486       -2.54525661495583        0.56404857222705
H            3.55759619869252        1.86134682979416       -0.62146866893334
H            1.67415302706451        3.09663423011797        0.45713135470285
H           -1.64054650359099        0.43115375771967        3.76305849128565
H           -3.60810845446670       -0.77460559720089        2.82210316166381
H           -3.19225903946571       -2.56158504966338        1.37617602589748
H           -4.03284674683050       -4.86006992318921        1.14252722886040
H           -6.17772397621784       -5.31985923117337        0.05246760597262
H           -7.53417106265215       -3.49149913448992       -0.88596531708568
H           -4.90116501086841        3.09264518977837        0.11184626608481
H           -6.31910116411158        4.90306423480536       -0.76396760252175
H           -8.41118675431989        4.41095825951845       -1.93800557219230
H           -9.17315537169516        2.09807269272272       -2.26099962054093
H           -9.26027850727892       -0.15843374191702       -2.63161327948414
H           -8.52923236634334       -1.72303878396979       -2.23748623178006
H           -9.45621827111822       -1.56951132179532        0.08037270311755
H          -10.74919454377062       -1.47936019065357       -1.12313744312222
H          -10.18743217107030       -0.01144781154542       -0.31213882195854
H           -3.27481372190114        1.53895217772882       -0.75932441627410
H           -1.33810209466203        2.76072982491678        0.22825147163621
H            1.35039889255554        0.06654891857956        3.41109334741870
H            3.25535452106519       -1.16394224472614        2.38628581988440

          :  Hamiltonian                  GFN2-xTB          :
         :: gradient norm              0.000077520248 Eh/a0 ::
         :: HOMO-LUMO gap              2.261780084720 eV    ::
         :: SCC energy              -137.010832545488 Eh    ::
         :: -> dispersion             -0.119104330899 Eh    ::
         :: repulsion energy           2.291847389639 Eh    ::

    * Orbital Energies and Occupations

         #    Occupation            Energy/Eh            Energy/eV
      -------------------------------------------------------------
         1        2.0000           -0.7626990             -20.7541
       ...           ...                  ...                  ...
       112        2.0000           -0.4186822             -11.3929
       113        2.0000           -0.4185085             -11.3882
       114        2.0000           -0.4156357             -11.3100
       115        2.0000           -0.4152160             -11.2986
       116        2.0000           -0.4107777             -11.1778
       117        2.0000           -0.4107470             -11.1770
       118        2.0000           -0.3995368             -10.8719
       119        2.0000           -0.3886291             -10.5751
       120        2.0000           -0.3879001             -10.5553
       121        2.0000           -0.3692717             -10.0484
       122        2.0000           -0.3690263             -10.0417
       123        2.0000           -0.3501525              -9.5281
       124        2.0000           -0.3496007              -9.5131 (HOMO)
       125                         -0.2664818              -7.2513 (LUMO)
       126                         -0.2538710              -6.9082
       127                         -0.2464504              -6.7063
       128                         -0.2453612              -6.6766
       129                         -0.2443553              -6.6492
       130                         -0.2405411              -6.5455
       131                         -0.2126896              -5.7876
       132                         -0.2116645              -5.7597
       133                         -0.2087124              -5.6794
       134                         -0.2083399              -5.6692
       135                         -0.1924730              -5.2375
       ...                                ...                  ...
       243                          1.2084532              32.8837
      -------------------------------------------------------------
                  HL-Gap            0.0831189 Eh            2.2618 eV

     #   Z          covCN         q      C6AA      α(0)
     1   6 C        3.752    -0.111    22.676     6.791
     2   6 C        3.738     0.006    20.564     6.471
     3   7 N        2.794    -0.044    22.083     6.979
     4   6 C        3.125     0.038    26.971     8.504
     5   6 C        2.909    -0.051    29.263     8.870
     6   6 C        2.922    -0.037    28.911     8.818
     7   6 C        2.919    -0.041    29.022     8.834
     8   6 C        2.910    -0.039    28.978     8.827
     9   6 C        3.066    -0.025    28.552     8.762
    10   6 C        3.186     0.001    27.539     8.563
    11   6 C        3.200     0.007    27.313     8.517
    12   6 C        3.061    -0.021    28.457     8.748
    13   6 C        2.911    -0.038    28.956     8.824
    14   6 C        2.919    -0.041    29.014     8.833
    15   6 C        2.923    -0.037    28.913     8.818
    16   6 C        2.909    -0.050    29.240     8.867
    17   6 C        3.105     0.039    26.996     8.513
    18   7 N        2.799    -0.034    21.900     6.950
    19   6 C        2.912     0.073    26.376     8.421
    20   6 C        2.925    -0.041    29.013     8.833
    21   6 C        2.954    -0.026    28.658     8.780
    22   6 C        2.970    -0.082    30.046     8.991
    23  16 S        3.816     0.939   108.427    17.525
    24   8 O        0.860    -0.540    24.699     6.663
    25   8 O        0.860    -0.540    24.687     6.662
    26   6 C        2.970    -0.082    30.047     8.991
    27   6 C        2.955    -0.027    28.670     8.782
    28   6 C        2.923    -0.042    29.046     8.838
    29   6 C        2.912     0.073    26.376     8.421
    30   7 N        2.799    -0.034    21.901     6.951
    31   6 C        3.105     0.039    26.996     8.513
    32   6 C        2.909    -0.050    29.240     8.867
    33   6 C        2.923    -0.037    28.912     8.818
    34   6 C        2.919    -0.041    29.014     8.833
    35   6 C        2.911    -0.038    28.956     8.824
    36   6 C        3.061    -0.021    28.458     8.748
    37   6 C        3.200     0.007    27.313     8.517
    38   6 C        3.186     0.001    27.540     8.563
    39   6 C        3.066    -0.025    28.553     8.762
    40   6 C        2.910    -0.039    28.980     8.827
    41   6 C        2.919    -0.041    29.024     8.835
    42   6 C        2.922    -0.037    28.913     8.818
    43   6 C        2.909    -0.051    29.263     8.870
    44   6 C        3.125     0.038    26.971     8.504
    45   7 N        2.794    -0.044    22.084     6.980
    46   6 C        3.738     0.006    20.563     6.471
    47   6 C        3.752    -0.111    22.676     6.791
    48   6 C        2.925    -0.041    29.012     8.833
    49   6 C        2.956    -0.027    28.676     8.783
    50   6 C        2.957    -0.028    28.689     8.785
    51   6 C        2.923    -0.042    29.044     8.838
    52   1 H        0.925     0.045     2.386     2.415
    53   1 H        0.925     0.048     2.341     2.393
    54   1 H        0.925     0.047     2.358     2.402
    55   1 H        0.924     0.049     2.329     2.387
    56   1 H        0.924     0.049     2.326     2.385
    57   1 H        0.926     0.024     2.667     2.554
    58   1 H        0.926     0.028     2.617     2.530
    59   1 H        0.926     0.028     2.612     2.527
    60   1 H        0.926     0.027     2.623     2.533
    61   1 H        0.926     0.026     2.642     2.542
    62   1 H        0.926     0.028     2.617     2.530
    63   1 H        0.926     0.029     2.601     2.522
    64   1 H        0.926     0.027     2.632     2.537
    65   1 H        0.926     0.060     2.197     2.318
    66   1 H        0.926     0.064     2.156     2.296
    67   1 H        0.926     0.064     2.158     2.297
    68   1 H        0.926     0.057     2.233     2.337
    69   1 H        0.926     0.027     2.627     2.535
    70   1 H        0.926     0.029     2.599     2.521
    71   1 H        0.926     0.028     2.617     2.530
    72   1 H        0.926     0.026     2.643     2.542
    73   1 H        0.926     0.027     2.623     2.533
    74   1 H        0.926     0.028     2.613     2.528
    75   1 H        0.926     0.028     2.618     2.530
    76   1 H        0.926     0.024     2.668     2.554
    77   1 H        0.924     0.049     2.330     2.387
    78   1 H        0.924     0.049     2.327     2.385
    79   1 H        0.925     0.048     2.340     2.392
    80   1 H        0.925     0.045     2.386     2.415
    81   1 H        0.925     0.047     2.359     2.402
    82   1 H        0.926     0.060     2.203     2.321
    83   1 H        0.926     0.058     2.224     2.332
    84   1 H        0.926     0.058     2.227     2.334
    85   1 H        0.926     0.057     2.239     2.340

molecular dipole:
                 x           y           z       tot (Debye)
 q only:       -0.043      -2.294      -2.030
   full:       -0.047      -2.306      -2.012       7.779

 projected vibrational frequencies (cm⁻¹)
eigval :       -0.00    -0.00    -0.00     0.00     0.00     0.00
eigval :        1.19     6.28     6.33    23.67    27.71    30.10
eigval :       35.14    45.62    45.68    59.86    62.27    68.30
eigval :       72.09    77.19    80.46   105.46   111.27   120.87
eigval :      128.56   132.32   141.48   147.55   154.66   174.61
eigval :      175.47   186.67   189.24   202.57   207.14   223.71
eigval :      229.26   254.61   261.50   266.69   274.32   278.08
eigval :      310.47   313.08   322.58   324.46   335.18   364.02
eigval :      376.32   378.21   378.57   382.21   384.17   390.58
eigval :      406.51   406.78   410.92   414.18   417.70   437.06
eigval :      445.62   448.63   451.30   483.85   496.20   524.77
eigval :      528.33   529.11   536.11   536.62   544.18   544.42
eigval :      550.19   569.50   571.57   582.69   584.05   601.65
eigval :      602.39   623.56   623.63   646.98   648.71   660.74
eigval :      668.59   682.38   683.44   686.24   686.25   688.44
eigval :      688.49   706.29   713.41   763.24   767.23   768.47
eigval :      769.33   770.14   770.33   809.04   809.21   820.21
eigval :      825.40   858.89   859.04   862.93   863.28   866.83
eigval :      867.47   874.17   874.31   879.13   881.44   898.65
eigval :      899.02   900.47   901.02   914.96   915.80   918.24
eigval :      918.89   922.96   924.40   926.80   927.93   931.70
eigval :      933.11   973.08   974.47  1002.87  1005.21  1053.23
eigval :     1053.54  1063.79  1063.87  1075.68  1075.76  1076.65
eigval :     1076.80  1084.71  1085.47  1088.05  1113.76  1114.86
eigval :     1120.10  1130.49  1138.85  1138.91  1145.70  1146.20
eigval :     1166.03  1167.29  1174.22  1176.83  1179.31  1179.63
eigval :     1191.47  1191.58  1204.54  1205.11  1237.32  1238.29
eigval :     1238.48  1244.39  1251.67  1252.46  1252.69  1269.32
eigval :     1269.81  1273.98  1274.17  1325.01  1325.19  1325.32
eigval :     1326.23  1335.29  1336.37  1349.00  1349.40  1359.59
eigval :     1359.91  1371.58  1371.90  1397.16  1398.68  1402.23
eigval :     1402.55  1405.17  1405.23  1415.03  1416.59  1433.72
eigval :     1433.85  1445.71  1446.41  1465.34  1465.36  1475.93
eigval :     1479.23  1488.17  1488.19  1497.63  1497.96  1498.85
eigval :     1498.90  1504.13  1504.39  1540.93  1540.97  1572.41
eigval :     1574.20  1574.54  1576.24  1583.92  1584.17  1586.95
eigval :     1587.11  1604.88  1604.93  1621.91  1621.97  2960.19
eigval :     2960.21  2972.59  2972.89  3041.51  3041.51  3045.17
eigval :     3045.18  3047.18  3047.26  3075.25  3075.28  3077.13
eigval :     3077.16  3081.06  3081.08  3081.51  3081.63  3087.94
eigval :     3088.03  3089.02  3089.31  3096.53  3096.72  3097.32
eigval :     3097.39  3097.45  3097.94  3098.06  3098.77  3107.16
eigval :     3107.44  3108.77  3108.92

   temp. (K)  partition function   enthalpy   heat capacity  entropy
                                   cal/mol     cal/K/mol   cal/K/mol   J/K/mol
 298.15  VIB  0.188E+22            25159.927    155.726    160.636
         ROT  0.134E+09              888.752      2.981     40.176
         INT  0.253E+30            26048.679    158.706    200.812
         TR   0.173E+29             1481.254      4.968     45.424
         TOT                       27529.9331   163.6746   246.2360  1030.2514

       T/K    H(0)-H(T)+PV         H(T)/Eh          T*S/Eh         G(T)/Eh
   ------------------------------------------------------------------------
    298.15    0.438717E-01    0.700533E+00    0.116995E+00    0.583538E+00
   ------------------------------------------------------------------------

         :::::::::::::::::::::::::::::::::::::::::::::::::::::
         ::                  THERMODYNAMIC                  ::
         :::::::::::::::::::::::::::::::::::::::::::::::::::::
         :: total free energy        -134.135447085068 Eh   ::
         ::.................................................::
         :: total energy             -134.718985155845 Eh   ::
         :: zero point energy           0.656660998248 Eh   ::
         :: G(RRHO) w/o ZPVE           -0.073122927471 Eh   ::
         :: G(RRHO) contrib.            0.583538070777 Eh   ::
         :::::::::::::::::::::::::::::::::::::::::::::::::::::

           -------------------------------------------------
          | TOTAL ENERGY             -134.718985155845 Eh   |
          | TOTAL ENTHALPY           -134.018452416614 Eh   |
          | TOTAL FREE ENERGY        -134.135447085068 Eh   |
          | GRADIENT NORM               0.000077533058 Eh/α |
          | HOMO-LUMO GAP               2.261780825218 eV   |
           -------------------------------------------------

 * finished run on 2025/07/19 at 00:50:31.802
