   * xtb version 6.7.1 (edcfbbe) compiled by 'albert@albert-system' on 2024-07-22

   ID    Z sym.   atoms
    1    6 C      1, 2, 4-17, 19-22, 26-29, 31-44, 46-51
    2    7 N      3, 18, 30, 45
    3   16 S      23
    4    8 O      24, 25
    5    1 H      52-85

          program call               : xtb data2507/gas/DHID-DPS/DHID-DPS_gas_S0_finalOpt.xtbopt.xyz --gfn 2 --spinpol --tblite --uhf 2 --ohess vtight --parallel 40 --molden --ceasefiles --namespace data2507/gas/DHID-DPS/DHID-DPS_gas_T1_preOpt
 * total energy  :  -134.6404506 Eh     change        0.5022883E-08 Eh
 * total energy  :  -134.6432220 Eh     change       -0.2771371E-02 Eh
 * total energy  :  -134.6439377 Eh     change       -0.7156964E-03 Eh
 * total energy  :  -134.6439985 Eh     change       -0.6087374E-04 Eh
 * total energy  :  -134.6440466 Eh     change       -0.4809446E-04 Eh
 * total energy  :  -134.6440748 Eh     change       -0.2817929E-04 Eh
 * total energy  :  -134.6441071 Eh     change       -0.3232944E-04 Eh
 * total energy  :  -134.6441308 Eh     change       -0.2367860E-04 Eh
 * total energy  :  -134.6441506 Eh     change       -0.1976365E-04 Eh
 * total energy  :  -134.6442103 Eh     change       -0.5970768E-04 Eh
 * total energy  :  -134.6448382 Eh     change       -0.3696267E-06 Eh
 * total energy  :  -134.6448387 Eh     change       -0.4898296E-06 Eh
 * total energy  :  -134.6448393 Eh     change       -0.5333893E-06 Eh
 * total energy  :  -134.6448397 Eh     change       -0.4420882E-06 Eh
 * total energy  :  -134.6448400 Eh     change       -0.3331490E-06 Eh
 * total energy  :  -134.6448404 Eh     change       -0.3280961E-06 Eh
 * total energy  :  -134.6448407 Eh     change       -0.2987356E-06 Eh
 * total energy  :  -134.6448409 Eh     change       -0.2671399E-06 Eh
 * total energy  :  -134.6448409 Eh     change       -0.3740979E-08 Eh
   *** GEOMETRY OPTIMIZATION CONVERGED AFTER 68 ITERATIONS ***

 final structure:
================
85
 xtb: 6.7.1 (edcfbbe)
C            2.51934348428260        5.06072655998212       -0.08401290956106
C            2.71294621539302        4.33378579328716        1.24496333481347
N            2.25786312141354        2.97139400362069        1.18428190060917
C            1.01410836086230        2.49985437635133        1.53610663109001
C           -0.08869657110302        3.19946715513495        2.00514874880732
C           -1.24062736840765        2.49227901244542        2.28766088134819
C           -1.30806304792837        1.11219567520285        2.10748202800483
C           -0.22143729240166        0.39707503945008        1.64769360080069
C            0.95454359117871        1.08298257063768        1.35764440555440
C            2.23888749618822        0.73013357083963        0.86825890077332
C            2.99210692004971        1.90107125252658        0.75184542870312
C            4.24922524280818        1.56113417700895        0.18968873564818
C            5.40095052315698        2.25859365394297       -0.16644287585910
C            6.46576086751732        1.55749505883169       -0.69202303739199
C            6.40861125135850        0.17376537780729       -0.85594109203215
C            5.27881167939582       -0.54524741639443       -0.51638145633043
C            4.18935747155345        0.14792697431514       -0.01050173440783
N            2.96683708977142       -0.33923246243574        0.40909673044604
C            2.49914832736038       -1.65740060432089        0.35397573585166
C            1.88841944299145       -2.20702492721010        1.48564897394595
C            1.28417690722624       -3.44181062723951        1.40863229303024
C            1.29806423025913       -4.14324138371357        0.20949987035475
S            0.03897178300630       -5.39000640331940       -0.04434602076945
O            0.30105199104612       -6.11026836052174       -1.26281011092924
O           -0.19426729007784       -6.14036426180037        1.16171194450094
C           -1.23910412651583       -4.17132521650275       -0.27290811397083
C           -1.21250269976009       -3.42142248556309       -1.44860818421982
C           -1.81618650124837       -2.19046586626693       -1.48854547236268
C           -2.46382622858199       -1.68477836190233       -0.34702984042102
N           -2.93216693176496       -0.37693566152261       -0.36424103677980
C           -4.17545365713800        0.09123580050380        0.09754065092620
C           -5.22191504282833       -0.62371824885538        0.61834822145482
C           -6.38139927774055        0.07454453992329        0.99212938135665
C           -6.46750466534897        1.45024376937025        0.84069773786435
C           -5.42994433643310        2.18397721024616        0.29428896572556
C           -4.26585510239460        1.50876136258419       -0.10678295698122
C           -3.05827625267332        1.87408589819968       -0.71284591753935
C           -2.24629951611378        0.69014451627940       -0.84782983848990
C           -0.99531751748164        1.07777990765136       -1.36482580875340
C            0.20788699698848        0.42480843170569       -1.65273797625582
C            1.26995293411123        1.17972322428252       -2.14008670769679
C            1.15509571596740        2.53912572421124       -2.34540639572368
C           -0.03949904127201        3.21997572928256       -2.05253226321789
C           -1.09500105679896        2.49003149827265       -1.56326205406709
N           -2.36275353309817        2.93655994524740       -1.18837895450393
C           -2.83749604576976        4.28937778266550       -1.27612028016126
C           -2.51090121109612        5.09281384333346       -0.01859945315128
C           -2.55628247968044       -2.47933618819492        0.80612766506394
C           -1.92939140966976       -3.70246151575300        0.84345003926238
C            1.96550973029133       -3.63405891415517       -0.89713038882903
C            2.57415215728396       -2.39812223329807       -0.82661437462554
H            1.46790935399464        5.06281678618750       -0.35921836156280
H            3.07813534563228        4.55773499599348       -0.86886077147159
H            2.86788245414499        6.08708284170702       -0.00427255850637
H            3.77342280637864        4.32579037203817        1.51326426715794
H            2.16428971604229        4.84830371637538        2.03842398027457
H           -0.05377674194083        4.26907353211390        2.15074275487906
H           -2.10951602820516        3.01621663597998        2.65760458043419
H           -2.22915649909321        0.59908345901104        2.34042039632126
H           -0.28266504263647       -0.67136260243363        1.50386025085555
H            5.46058645359647        3.32857499182612       -0.03234314988539
H            7.36471647029557        2.08444906738596       -0.97497929576023
H            7.26655698851912       -0.34593495633203       -1.25497717024930
H            5.24818489104423       -1.61784317189330       -0.63228077469618
H            1.87826473447008       -1.64089034520189        2.40487609386007
H            0.77866570656168       -3.87526297840994        2.25707059424560
H           -0.69817896004803       -3.82474458399780       -2.30646209335079
H           -1.80360148762830       -1.59354152065427       -2.38785489257519
H           -5.17396913779718       -1.69539362290208        0.73070240700496
H           -7.21379269573155       -0.47447064503323        1.40288555092664
H           -7.36853403791245        1.95924200557358        1.15004152122038
H           -5.51156099645951        3.25389042577532        0.17850872279164
H            0.30906313058557       -0.63736831741770       -1.49531310519336
H            2.20511696392159        0.68941840419609       -2.36705639036350
H            1.99208724800103        3.09622889571695       -2.73708597471978
H           -0.10900730053642        4.28442281023619       -2.21720567084905
H           -2.38054689739664        4.76073418153439       -2.15109505841198
H           -3.91982169104579        4.25835136295546       -1.42753347840141
H           -1.43637903071640        5.11522215272203        0.14273730479132
H           -2.97937225045090        4.63515316236631        0.84859705645496
H           -2.87568691954684        6.11129918439692       -0.12136889334441
H           -3.05830403177709       -2.09507171564251        1.68077667227396
H           -1.93602007839180       -4.31090437685185        1.73398091483351
H            1.96961557300943       -4.21236167037757       -1.80754208529048
H            3.06154256876261       -1.97662982880642       -1.69281760226113

 projected vibrational frequencies (cm⁻¹)
eigval :       -0.00    -0.00    -0.00    -0.00     0.00     0.00
eigval :       13.16    25.12    31.78    36.66    38.94    43.55
eigval :       45.62    54.08    58.80    64.11    79.64    81.12
eigval :       88.84    95.75    98.70   104.14   119.32   123.15
eigval :      134.94   140.30   143.69   148.90   169.94   175.08
eigval :      182.10   185.00   186.56   197.16   207.96   224.26
eigval :      228.48   251.31   259.01   265.77   268.43   278.16
eigval :      298.46   305.64   316.61   319.21   326.64   357.68
eigval :      371.57   374.08   376.24   379.54   382.81   390.47
eigval :      398.97   401.04   404.49   412.89   418.43   430.96
eigval :      437.87   440.51   446.38   457.23   486.79   514.25
eigval :      518.46   522.63   527.13   529.98   533.99   536.70
eigval :      544.39   563.12   571.08   577.44   583.00   592.33
eigval :      600.05   601.13   624.25   632.38   645.64   650.22
eigval :      653.69   657.69   668.45   671.03   678.36   683.90
eigval :      687.85   701.67   713.37   742.44   748.40   759.23
eigval :      761.93   769.89   775.09   793.95   804.44   811.19
eigval :      815.33   820.77   825.26   848.48   855.23   856.64
eigval :      860.93   864.34   864.61   869.61   873.65   875.14
eigval :      878.21   899.86   902.34   904.61   906.35   910.10
eigval :      913.31   915.40   916.17   919.46   923.79   924.12
eigval :      927.50   966.47   972.55   986.32   998.39  1030.79
eigval :     1050.00  1054.54  1062.62  1065.05  1068.57  1072.10
eigval :     1073.15  1075.76  1080.28  1082.80  1086.16  1108.89
eigval :     1114.25  1117.15  1120.22  1132.66  1137.78  1142.10
eigval :     1144.49  1162.58  1171.00  1171.82  1175.57  1177.63
eigval :     1185.97  1187.01  1189.79  1201.15  1213.41  1216.82
eigval :     1236.63  1239.36  1239.69  1245.49  1250.09  1251.73
eigval :     1253.63  1265.83  1272.48  1273.58  1295.47  1308.39
eigval :     1324.00  1327.06  1327.97  1335.12  1336.88  1340.05
eigval :     1357.31  1360.21  1366.47  1376.72  1391.98  1393.89
eigval :     1398.62  1400.92  1402.74  1403.69  1409.72  1412.75
eigval :     1414.43  1428.18  1434.98  1441.53  1442.84  1459.03
eigval :     1460.65  1462.08  1464.65  1468.07  1480.83  1483.68
eigval :     1488.99  1494.37  1495.26  1496.95  1499.50  1513.03
eigval :     1520.11  1526.22  1540.89  1558.39  1565.24  1580.06
eigval :     1582.45  1585.20  1594.79  1597.88  1610.29  2958.58
eigval :     2958.82  2969.87  2971.25  3046.03  3048.15  3048.81
eigval :     3050.06  3052.85  3054.28  3072.67  3077.05  3078.20
eigval :     3078.43  3079.69  3081.61  3084.08  3086.55  3088.42
eigval :     3088.89  3089.24  3089.57  3090.61  3091.61  3094.99
eigval :     3095.68  3096.58  3099.45  3101.87  3103.53  3104.36
eigval :     3106.37  3106.89  3107.07

   temp. (K)  partition function   enthalpy   heat capacity  entropy
                                   cal/mol     cal/K/mol   cal/K/mol   J/K/mol
 298.15  VIB  0.764E+18            25099.989    159.535    154.489
         ROT  0.621E+08              888.752      2.981     38.640
         INT  0.474E+26            25988.741    162.516    193.129
         TR   0.173E+29             1481.254      4.968     45.424
         TOT                       27469.9951   167.4837   238.5530   998.1058

       T/K    H(0)-H(T)+PV         H(T)/Eh          T*S/Eh         G(T)/Eh
   ------------------------------------------------------------------------
    298.15    0.437762E-01    0.696341E+00    0.113344E+00    0.582997E+00
   ------------------------------------------------------------------------

         :::::::::::::::::::::::::::::::::::::::::::::::::::::
         ::                  THERMODYNAMIC                  ::
         :::::::::::::::::::::::::::::::::::::::::::::::::::::
         :: total free energy        -134.061843865092 Eh   ::
         ::.................................................::
         :: total energy             -134.644840942419 Eh   ::
         :: zero point energy           0.652565085329 Eh   ::
         :: G(RRHO) w/o ZPVE           -0.069568008003 Eh   ::
         :: G(RRHO) contrib.            0.582997077326 Eh   ::
         :::::::::::::::::::::::::::::::::::::::::::::::::::::

           -------------------------------------------------
          | TOTAL ENERGY             -134.644840942419 Eh   |
          | TOTAL ENTHALPY           -133.948499633495 Eh   |
          | TOTAL FREE ENERGY        -134.061843865092 Eh   |
          | GRADIENT NORM               0.000052028843 Eh/α |
           -------------------------------------------------

 * finished run on 2025/07/19 at 01:00:21.722
