   * xtb version 6.7.1 (edcfbbe) compiled by 'albert@albert-system' on 2024-07-22

   ID    Z sym.   atoms
    1    6 C      1, 2, 4-17, 19-22, 26-29, 31-44, 46-51
    2    7 N      3, 18, 30, 45
    3   16 S      23
    4    8 O      24, 25
    5    1 H      52-85

          program call               : xtb data2507/gas/DHID-DPS/DHID-DPS_gas_T1_crest.xyz --gfn 2 --spinpol --tblite --uhf 2 --ohess vtight --parallel 40 --molden --ceasefiles --namespace data2507/gas/DHID-DPS/DHID-DPS_gas_T1_finalOpt
 * total energy  :  -134.6442479 Eh     change        0.5464528E-08 Eh
 * total energy  :  -134.6442676 Eh     change       -0.1964393E-04 Eh
 * total energy  :  -134.6442996 Eh     change       -0.3201530E-04 Eh
 * total energy  :  -134.6443510 Eh     change       -0.5139073E-04 Eh
 * total energy  :  -134.6444243 Eh     change       -0.7333374E-04 Eh
 * total energy  :  -134.6445121 Eh     change       -0.8772908E-04 Eh
 * total energy  :  -134.6445977 Eh     change       -0.8569327E-04 Eh
 * total energy  :  -134.6440466 Eh     change        0.5511100E-03 Eh
 * total energy  :  -134.6447715 Eh     change       -0.7249036E-03 Eh
 * total energy  :  -134.6447854 Eh     change       -0.1385288E-04 Eh
 * total energy  :  -134.6448495 Eh     change       -0.6581483E-06 Eh
 * total energy  :  -134.6448500 Eh     change       -0.5370360E-06 Eh
 * total energy  :  -134.6448504 Eh     change       -0.3972138E-06 Eh
 * total energy  :  -134.6448509 Eh     change       -0.4154171E-06 Eh
 * total energy  :  -134.6448512 Eh     change       -0.3433730E-06 Eh
 * total energy  :  -134.6448515 Eh     change       -0.2658881E-06 Eh
 * total energy  :  -134.6448517 Eh     change       -0.2316220E-06 Eh
 * total energy  :  -134.6448519 Eh     change       -0.2175483E-06 Eh
 * total energy  :  -134.6448519 Eh     change       -0.2851306E-07 Eh
   *** GEOMETRY OPTIMIZATION CONVERGED AFTER 35 ITERATIONS ***

 final structure:
================
85
 xtb: 6.7.1 (edcfbbe)
C            2.57639507614070        5.02012344053648       -0.01842959829954
C            2.74026517687741        4.28806268842538        1.31173285698498
N            2.26519016753723        2.93298482868453        1.24188106929347
C            1.00678750380850        2.48177704817332        1.56728113906537
C           -0.09336476926861        3.19930068354912        2.01495565627069
C           -1.26288288984176        2.51139254221741        2.27176346487107
C           -1.34977602427252        1.13299000647380        2.08729061446949
C           -0.26601507173966        0.40021270720176        1.64909236076120
C            0.92746147925413        1.06631516900177        1.38541738718567
C            2.21584201607054        0.69254533971217        0.92299254972957
C            2.99033510037615        1.85101577606691        0.82332352499269
C            4.25308475480301        1.49099891036322        0.28696024217300
C            5.42264950494455        2.17017221052783       -0.04542413815307
C            6.48668983985626        1.45236842628526       -0.54957913310831
C            6.41096855972503        0.06972505041548       -0.71490828015648
C            5.26326846759314       -0.63132796748766       -0.39858100440249
C            4.17468869586240        0.07896926986112        0.08500599305060
N            2.93607920336401       -0.38855289835582        0.47894006893702
C            2.44816267309908       -1.69887724086269        0.41405444238955
C            1.80177093658106       -2.23648700696823        1.53157911937036
C            1.17811696566394       -3.46074835767735        1.44163620699321
C            1.20798788428401       -4.16401991496799        0.24393095410982
S           -0.06700895682652       -5.38871170825851       -0.03861590483343
O            0.21116022941199       -6.11524782906930       -1.24975631776515
O           -0.34226616512521       -6.13295778367895        1.16231625683974
C           -1.31641106189881       -4.14691553650872       -0.29924462147376
C           -1.24763521464914       -3.40079097698043       -1.47570736237667
C           -1.82269342711565       -2.15684042739294       -1.53133255850464
C           -2.48322557468595       -1.63370621470655       -0.40510080900700
N           -2.91856760279183       -0.31475136120398       -0.43418133202902
C           -4.15860534226104        0.18564730149077        0.00183829110215
C           -5.23323105732977       -0.50157973972630        0.50212258029708
C           -6.38161822172304        0.22670299129587        0.85248296664166
C           -6.42922783047704        1.60401307772257        0.69867104842595
C           -5.36262366853320        2.31018161880189        0.17220414293143
C           -4.20859593350392        1.60478630726092       -0.20551674970958
C           -2.98034421751567        1.93830478393038       -0.78777002604057
C           -2.19587788642405        0.73390616185014       -0.90441039624234
C           -0.92510432101622        1.08898329615715       -1.39578701230167
C            0.26726396812491        0.40573849989438       -1.65716959410443
C            1.35742716852375        1.13273929047443       -2.12451550744406
C            1.28040664566064        2.49376796451697       -2.33625250866374
C            0.09710664365274        3.20470899102112       -2.07008687090003
C           -0.98546823377568        2.50269589823821       -1.59968898117548
N           -2.24886510923485        2.98185488635249       -1.25101604683743
C           -2.68721444577443        4.34590961078546       -1.35273377679704
C           -2.35313873153035        5.14947800964689       -0.09727241153506
C           -2.61975975024884       -2.42374279571360        0.74686754330116
C           -2.02138771720012       -3.66046586043821        0.80035409298147
C            1.91040569507032       -3.66824225327045       -0.84695051831674
C            2.53851925056158       -2.44284383966313       -0.76340975169979
H            3.13553149121234        4.50802927238937       -0.79710758152932
H            2.94209674491598        6.04001195739331        0.06711579134341
H            1.52867936126853        5.04150863405549       -0.30670657852759
H            3.79656303416642        4.26313562304586        1.59479090989863
H            2.18854595876059        4.80969947089280        2.09846908829777
H           -0.04323734725403        4.26783502315770        2.16371285295765
H           -2.13055449701490        3.04922690781255        2.62434127613773
H           -2.28435987791731        0.63537460707212        2.29917743037338
H           -0.34234132698703       -0.66678544650926        1.50185250373039
H            5.49638413834804        3.23909597231084        0.09011378528709
H            7.39941147203405        1.96504449273983       -0.81411058561919
H            7.26849915437009       -0.46351348045193       -1.09660935355177
H            5.21829287355096       -1.70331809527003       -0.51533806504110
H            1.77976819946235       -1.66905658693683        2.44979343634972
H            0.64519528822643       -3.88394958143974        2.27839277328424
H           -0.72358964820395       -3.81759262092165       -2.32114141205893
H           -1.77703960238854       -1.56257983341366       -2.43132684984527
H           -5.21517779005649       -1.57398294142059        0.61623096684072
H           -7.23578176667045       -0.30032553744610        1.24700538556832
H           -7.32273629630931        2.13638558036368        0.98992701532393
H           -5.41430498371558        3.38173701144875        0.05444099578466
H            0.33880296608100       -0.65813505360994       -1.49507848091285
H            2.28478694456999        0.61893432211218       -2.33054072041148
H            2.13886606827814        3.02876453952390       -2.71207987953324
H            0.05712223804169        4.26978435792388       -2.24016084385341
H           -2.20887207364035        4.79933517074769       -2.22587286334623
H           -3.76823384323059        4.34180608997587       -1.51557039702001
H           -1.28001436515535        5.14649566908880        0.07458362007348
H           -2.84103460425337        4.70935249763441        0.76827490168932
H           -2.69135617543836        6.17600891045057       -0.21042214890138
H           -3.13234831452273       -2.02649623960717        1.60948024003392
H           -2.06156538490872       -4.26646195513823        1.69167274090377
H            1.92613833086282       -4.24780705210704       -1.75643401662831
H            3.05344499474060       -2.03140616735648       -1.61841367178518

 projected vibrational frequencies (cm⁻¹)
eigval :       -0.00    -0.00     0.00     0.00     0.00     0.00
eigval :       14.25    25.27    32.03    36.75    38.84    43.55
eigval :       46.66    54.80    58.76    64.33    79.74    81.13
eigval :       88.84    95.36    98.88   104.36   119.32   123.08
eigval :      135.34   140.38   143.76   148.92   170.00   174.94
eigval :      181.58   184.22   185.81   196.99   208.02   224.20
eigval :      228.60   251.14   258.93   265.62   268.40   277.97
eigval :      298.33   305.56   316.58   319.17   326.50   357.57
eigval :      371.50   374.05   376.13   379.47   382.89   390.21
eigval :      399.00   401.00   404.34   413.03   418.47   430.94
eigval :      437.88   440.58   446.26   457.20   487.08   514.19
eigval :      518.53   522.61   527.09   529.99   533.85   536.66
eigval :      544.23   563.11   571.10   577.56   583.06   592.26
eigval :      600.00   601.06   624.29   632.32   645.74   650.33
eigval :      653.65   657.65   668.40   671.20   678.41   683.95
eigval :      687.92   701.73   713.21   742.22   748.03   759.10
eigval :      761.90   769.68   774.72   793.94   804.30   811.01
eigval :      815.06   820.69   825.03   848.42   855.09   856.51
eigval :      860.87   864.13   864.63   869.41   873.57   875.22
eigval :      878.08   899.55   902.17   904.46   906.22   909.95
eigval :      913.35   915.38   916.02   919.35   923.86   924.10
eigval :      927.46   966.39   972.40   986.28   998.38  1031.63
eigval :     1050.04  1054.61  1062.60  1064.96  1068.39  1072.33
eigval :     1073.29  1075.95  1080.40  1082.69  1086.06  1108.76
eigval :     1114.19  1117.07  1120.17  1132.44  1137.84  1141.99
eigval :     1144.35  1162.53  1170.90  1171.59  1175.47  1177.57
eigval :     1185.88  1186.92  1189.78  1201.04  1213.52  1216.57
eigval :     1236.63  1239.22  1239.63  1245.45  1250.06  1251.70
eigval :     1253.41  1265.85  1272.73  1273.55  1295.40  1308.28
eigval :     1323.89  1326.80  1327.89  1335.09  1336.77  1340.06
eigval :     1357.64  1360.19  1366.45  1376.47  1392.07  1393.96
eigval :     1398.38  1400.61  1402.51  1403.44  1409.59  1412.64
eigval :     1414.28  1428.24  1434.96  1441.45  1442.84  1458.93
eigval :     1460.35  1461.98  1464.47  1468.26  1480.30  1483.47
eigval :     1488.93  1494.23  1495.10  1496.41  1499.35  1512.73
eigval :     1520.62  1526.45  1541.16  1558.32  1565.44  1579.99
eigval :     1582.40  1585.28  1594.83  1597.91  1610.46  2957.42
eigval :     2959.25  2969.24  2971.91  3045.91  3047.91  3048.48
eigval :     3049.79  3052.73  3054.33  3072.69  3076.91  3078.22
eigval :     3078.40  3079.70  3081.91  3083.99  3086.42  3088.49
eigval :     3088.93  3089.23  3089.56  3090.70  3091.57  3094.86
eigval :     3095.48  3096.62  3099.43  3101.97  3103.48  3104.29
eigval :     3106.37  3106.92  3107.09

   temp. (K)  partition function   enthalpy   heat capacity  entropy
                                   cal/mol     cal/K/mol   cal/K/mol   J/K/mol
 298.15  VIB  0.679E+18            25098.861    159.591    154.423
         ROT  0.618E+08              888.752      2.981     38.631
         INT  0.419E+26            25987.613    162.572    193.054
         TR   0.173E+29             1481.254      4.968     45.424
         TOT                       27468.8673   167.5404   238.4776   997.7904

       T/K    H(0)-H(T)+PV         H(T)/Eh          T*S/Eh         G(T)/Eh
   ------------------------------------------------------------------------
    298.15    0.437744E-01    0.696316E+00    0.113308E+00    0.583008E+00
   ------------------------------------------------------------------------

         :::::::::::::::::::::::::::::::::::::::::::::::::::::
         ::                  THERMODYNAMIC                  ::
         :::::::::::::::::::::::::::::::::::::::::::::::::::::
         :: total free energy        -134.061843992697 Eh   ::
         ::.................................................::
         :: total energy             -134.644851953051 Eh   ::
         :: zero point energy           0.652541950221 Eh   ::
         :: G(RRHO) w/o ZPVE           -0.069533989867 Eh   ::
         :: G(RRHO) contrib.            0.583007960354 Eh   ::
         :::::::::::::::::::::::::::::::::::::::::::::::::::::

           -------------------------------------------------
          | TOTAL ENERGY             -134.644851953051 Eh   |
          | TOTAL ENTHALPY           -133.948535576483 Eh   |
          | TOTAL FREE ENERGY        -134.061843992697 Eh   |
          | GRADIENT NORM               0.000200451144 Eh/α |
           -------------------------------------------------

 * finished run on 2025/07/19 at 01:13:36.128
