   * xtb version 6.7.1 (edcfbbe) compiled by 'albert@albert-system' on 2024-07-22

   ID    Z sym.   atoms
    1    6 C      1, 2, 4-17, 19-22, 26-29, 31-44, 46-51
    2    7 N      3, 18, 30, 45
    3   16 S      23
    4    8 O      24, 25
    5    1 H      52-85

          program call               : xtb data2507/gas/DHID-DPS/DHID-DPS_gas_S0_crest.xyz --gfn 2 --ohess vtight --parallel 40 --molden --ceasefiles --namespace data2507/gas/DHID-DPS/DHID-DPS_gas_S0_finalOpt
          :  Hamiltonian                  GFN2-xTB          :
 * total energy  :  -134.7298331 Eh     change       -0.2838220E-08 Eh
 * total energy  :  -134.7298347 Eh     change       -0.1585021E-05 Eh
 * total energy  :  -134.7298375 Eh     change       -0.2800107E-05 Eh
 * total energy  :  -134.7298406 Eh     change       -0.3134408E-05 Eh
 * total energy  :  -134.7298434 Eh     change       -0.2844532E-05 Eh
 * total energy  :  -134.7298462 Eh     change       -0.2773844E-05 Eh
 * total energy  :  -134.7298490 Eh     change       -0.2744185E-05 Eh
 * total energy  :  -134.7298512 Eh     change       -0.2288535E-05 Eh
 * total energy  :  -134.7298529 Eh     change       -0.1678771E-05 Eh
 * total energy  :  -134.7298543 Eh     change       -0.1381755E-05 Eh
 * total energy  :  -134.7298814 Eh     change       -0.6363288E-06 Eh
 * total energy  :  -134.7298820 Eh     change       -0.6404063E-06 Eh
 * total energy  :  -134.7298826 Eh     change       -0.6220644E-06 Eh
 * total energy  :  -134.7298833 Eh     change       -0.6271590E-06 Eh
 * total energy  :  -134.7298839 Eh     change       -0.6211439E-06 Eh
 * total energy  :  -134.7298845 Eh     change       -0.6299246E-06 Eh
 * total energy  :  -134.7298851 Eh     change       -0.6310354E-06 Eh
 * total energy  :  -134.7298858 Eh     change       -0.6414073E-06 Eh
 * total energy  :  -134.7298858 Eh     change       -0.5208619E-08 Eh
   *** GEOMETRY OPTIMIZATION CONVERGED AFTER 44 ITERATIONS ***

 final structure:
================
85
 xtb: 6.7.1 (edcfbbe)
C            2.66438267233363        5.03844769189367       -0.07453312625484
C            2.83017671308029        4.33209353579193        1.26934873463866
N            2.36519133868941        2.97239527717605        1.22416472068124
C            1.11519491151981        2.51413709211217        1.56117731909196
C            0.01223819721126        3.22518348986070        2.01625008601932
C           -1.15131511277047        2.53321089508523        2.27750439893979
C           -1.23455638238107        1.15362987663336        2.08819434708935
C           -0.15279884346701        0.42871188253724        1.64193728129131
C            1.04169094972533        1.09796172144332        1.37896605963352
C            2.32711129195057        0.73353420773013        0.90747687476049
C            3.08984429037853        1.89084214095479        0.79380259925314
C            4.34330861681111        1.54283512571928        0.22479219955466
C            5.50188823109216        2.23403165620390       -0.12010231363664
C            6.56203329677228        1.53107971108992       -0.65129769425904
C            6.49455720916551        0.14960582704949       -0.82778138689950
C            5.35844791015489       -0.56290796986730       -0.49820598121431
C            4.27078954502370        0.13395532803731        0.00752274678632
N            3.04528709967651       -0.34709279662152        0.42831287849439
C            2.56363118097221       -1.65088915182244        0.37994270252703
C            1.89691836681546       -2.16231859886730        1.49639756684363
C            1.26016844904402       -3.38270777702298        1.41959982455223
C            1.30459982004220       -4.10395800943656        0.23875519760721
S            0.03941945309697       -5.35542994576983       -0.00620928779602
O            0.29177495015137       -6.08414682152580       -1.21915685861175
O           -0.20276817181999       -6.09072406678617        1.20484087773266
C           -1.24313289148092       -4.12110746740978       -0.24795516541322
C           -1.20903127511325       -3.39628863565752       -1.42695364558491
C           -1.86348539057509       -2.18511332755832       -1.50080451047112
C           -2.53776491520022       -1.68624000452952       -0.38320994891760
N           -3.03895497478656       -0.38973271509040       -0.42860873758717
C           -4.27150307798092        0.07176430733875       -0.00643900987636
C           -5.34822761432770       -0.64253678296972        0.49836168181489
C           -6.49487958936459        0.05197263897072        0.82986051143021
C           -6.58344138339033        1.43260330592908        0.65615227635536
C           -5.53437955672977        2.15261603288005        0.12580736964354
C           -4.36559699940613        1.47978410779414       -0.22096921928725
C           -3.11786044033966        1.84794345166417       -0.78987131073883
C           -2.33755422221266        0.70265284874412       -0.90597604907636
C           -1.05804206433550        1.08761738270546       -1.37723455827621
C            0.14655737481021        0.43729489181157       -1.64158218977032
C            1.21688375023018        1.17951247491782       -2.08697199005626
C            1.11227278165904        2.55792271452238       -2.27420466387284
C           -0.06169759462918        3.23147679184014       -2.01139968652844
C           -1.15335807530634        2.50281105957312       -1.55696099082227
N           -2.41007962578204        2.94125069250403       -1.21859287751208
C           -2.89576989312936        4.29378884178721       -1.26078390575722
C           -2.73984583039605        4.99992521421075        0.08440028891494
C           -2.63413927753300       -2.46318365215088        0.77172472301924
C           -1.97319111513858       -3.67544745326147        0.83839003038480
C            2.02812343651745       -3.64512157634984       -0.84647952309301
C            2.67140251446874       -2.42355350185310       -0.77684406508386
H            1.61856347130593        5.03593697475745       -0.37049597020808
H            3.23895146315985        4.52307481300337       -0.83988929259634
H            3.01216070795382        6.06588453378511       -0.00451198378153
H            3.88579326044585        4.32160891486400        1.55718401488269
H            2.27188661225699        4.86387561717141        2.04443057748300
H            0.05878485388553        4.29453658273225        2.16265137245728
H           -2.01929006419676        3.06739080743435        2.63436946753774
H           -2.16895724733021        0.65304300357584        2.29489908782680
H           -0.23159852039331       -0.63697910647021        1.48354982821219
H            5.57045532499050        3.30145617640094        0.02882274653248
H            7.46602550729490        2.05359801239126       -0.92667193407544
H            7.34979609384399       -0.37382408809937       -1.22814620550577
H            5.32494839228755       -1.63491089707379       -0.62045384745824
H            1.86313572446554       -1.57649202931518        2.40202973472603
H            0.70961136467730       -3.78361575800658        2.25604314142785
H           -0.65266760587171       -3.78706249998905       -2.26434968441514
H           -1.83820995276486       -1.59666174007058       -2.40500954617367
H           -5.29843166954289       -1.71414652263864        0.61845758214408
H           -7.34185889468319       -0.48519534213570        1.22958605804896
H           -7.49512874362587        1.94077859138573        0.93299490204788
H           -5.61924855628690        3.21915964556319       -0.02101837909795
H            0.24182875109569       -0.62730218312843       -1.48490194999875
H            2.15886035744555        0.69372507366814       -2.29461499268217
H            1.97171735914476        3.10598309504442       -2.63066882231988
H           -0.12478828737774        4.30021234623820       -2.15613715613621
H           -2.34618010294576        4.83556466288572       -2.03516236374993
H           -3.95129722875315        4.26778392992328       -1.54795398819304
H           -1.69391402503475        5.01272137998803        0.37970074086554
H           -3.30603162336839        4.47439844541933        0.84909975339205
H           -3.10321235755874        6.02210510245285        0.01663134329414
H           -3.16817714562761       -2.08492698256503        1.62965703729985
H           -1.98563975110641       -4.27299665146045        1.73656929363008
H            2.04917063639104       -4.24020926453814       -1.74613150343220
H            3.19989794912659       -2.03545190953730       -1.63381526364622

          :  Hamiltonian                  GFN2-xTB          :
         :: gradient norm              0.000060407738 Eh/a0 ::
         :: HOMO-LUMO gap              2.121900389639 eV    ::
         :: SCC energy              -137.023788134048 Eh    ::
         :: -> dispersion             -0.144364076167 Eh    ::
         :: repulsion energy           2.293902345473 Eh    ::

    * Orbital Energies and Occupations

         #    Occupation            Energy/Eh            Energy/eV
      -------------------------------------------------------------
         1        2.0000           -0.7661812             -20.8489
       ...           ...                  ...                  ...
       112        2.0000           -0.4222172             -11.4891
       113        2.0000           -0.4196237             -11.4185
       114        2.0000           -0.4172158             -11.3530
       115        2.0000           -0.4154186             -11.3041
       116        2.0000           -0.4126719             -11.2294
       117        2.0000           -0.4105699             -11.1722
       118        2.0000           -0.4008819             -10.9086
       119        2.0000           -0.3899926             -10.6122
       120        2.0000           -0.3890316             -10.5861
       121        2.0000           -0.3720420             -10.1238
       122        2.0000           -0.3684509             -10.0261
       123        2.0000           -0.3520469              -9.5797
       124        2.0000           -0.3494218              -9.5083 (HOMO)
       125                         -0.2714434              -7.3864 (LUMO)
       126                         -0.2536663              -6.9026
       127                         -0.2506797              -6.8213
       128                         -0.2450563              -6.6683
       129                         -0.2438853              -6.6365
       130                         -0.2399578              -6.5296
       131                         -0.2136065              -5.8125
       132                         -0.2128678              -5.7924
       133                         -0.2115521              -5.7566
       134                         -0.2085596              -5.6752
       135                         -0.1953523              -5.3158
       ...                                ...                  ...
       243                          1.2230573              33.2811
      -------------------------------------------------------------
                  HL-Gap            0.0779784 Eh            2.1219 eV

     #   Z          covCN         q      C6AA      α(0)
     1   6 C        3.752    -0.110    22.666     6.789
     2   6 C        3.738     0.006    20.558     6.470
     3   7 N        2.795    -0.043    22.070     6.977
     4   6 C        3.126     0.039    26.948     8.500
     5   6 C        2.909    -0.051    29.264     8.870
     6   6 C        2.922    -0.036    28.904     8.816
     7   6 C        2.919    -0.040    28.990     8.829
     8   6 C        2.910    -0.036    28.902     8.815
     9   6 C        3.066    -0.024    28.528     8.758
    10   6 C        3.192     0.003    27.459     8.546
    11   6 C        3.199     0.008    27.285     8.513
    12   6 C        3.062    -0.020    28.442     8.745
    13   6 C        2.911    -0.038    28.949     8.823
    14   6 C        2.919    -0.041    29.015     8.833
    15   6 C        2.923    -0.036    28.902     8.816
    16   6 C        2.909    -0.049    29.228     8.865
    17   6 C        3.105     0.040    26.965     8.508
    18   7 N        2.800    -0.033    21.872     6.946
    19   6 C        2.914     0.073    26.372     8.421
    20   6 C        2.925    -0.040    28.992     8.830
    21   6 C        2.968    -0.031    28.763     8.797
    22   6 C        2.970    -0.087    30.172     9.010
    23  16 S        3.836     0.955   107.954    17.487
    24   8 O        0.860    -0.533    24.522     6.639
    25   8 O        0.860    -0.533    24.522     6.639
    26   6 C        2.970    -0.087    30.172     9.010
    27   6 C        2.968    -0.031    28.763     8.797
    28   6 C        2.925    -0.040    28.992     8.830
    29   6 C        2.914     0.073    26.371     8.421
    30   7 N        2.800    -0.033    21.872     6.946
    31   6 C        3.105     0.040    26.965     8.508
    32   6 C        2.909    -0.049    29.228     8.865
    33   6 C        2.923    -0.036    28.902     8.816
    34   6 C        2.919    -0.041    29.015     8.833
    35   6 C        2.911    -0.038    28.949     8.823
    36   6 C        3.062    -0.020    28.442     8.745
    37   6 C        3.199     0.008    27.285     8.513
    38   6 C        3.192     0.003    27.459     8.546
    39   6 C        3.066    -0.024    28.528     8.758
    40   6 C        2.910    -0.036    28.902     8.815
    41   6 C        2.919    -0.040    28.990     8.829
    42   6 C        2.922    -0.036    28.904     8.817
    43   6 C        2.909    -0.051    29.264     8.870
    44   6 C        3.126     0.039    26.948     8.500
    45   7 N        2.795    -0.043    22.070     6.977
    46   6 C        3.738     0.006    20.558     6.470
    47   6 C        3.752    -0.110    22.666     6.789
    48   6 C        2.922    -0.041    29.020     8.834
    49   6 C        2.955    -0.029    28.714     8.789
    50   6 C        2.955    -0.029    28.714     8.789
    51   6 C        2.922    -0.041    29.020     8.834
    52   1 H        0.925     0.047     2.362     2.403
    53   1 H        0.925     0.049     2.326     2.385
    54   1 H        0.925     0.044     2.394     2.420
    55   1 H        0.924     0.050     2.324     2.384
    56   1 H        0.924     0.048     2.346     2.395
    57   1 H        0.926     0.022     2.706     2.572
    58   1 H        0.926     0.026     2.642     2.542
    59   1 H        0.926     0.022     2.705     2.572
    60   1 H        0.926     0.017     2.779     2.607
    61   1 H        0.926     0.026     2.648     2.545
    62   1 H        0.926     0.028     2.614     2.528
    63   1 H        0.926     0.030     2.583     2.513
    64   1 H        0.926     0.029     2.600     2.521
    65   1 H        0.926     0.058     2.218     2.329
    66   1 H        0.926     0.056     2.243     2.342
    67   1 H        0.926     0.056     2.243     2.342
    68   1 H        0.926     0.058     2.218     2.329
    69   1 H        0.926     0.029     2.599     2.521
    70   1 H        0.926     0.030     2.583     2.513
    71   1 H        0.926     0.028     2.614     2.528
    72   1 H        0.926     0.026     2.648     2.545
    73   1 H        0.926     0.017     2.779     2.607
    74   1 H        0.926     0.022     2.705     2.572
    75   1 H        0.926     0.026     2.642     2.542
    76   1 H        0.926     0.022     2.706     2.572
    77   1 H        0.924     0.048     2.346     2.395
    78   1 H        0.924     0.050     2.324     2.384
    79   1 H        0.925     0.047     2.362     2.404
    80   1 H        0.925     0.049     2.326     2.385
    81   1 H        0.925     0.044     2.394     2.420
    82   1 H        0.926     0.056     2.242     2.341
    83   1 H        0.926     0.063     2.167     2.302
    84   1 H        0.926     0.063     2.167     2.302
    85   1 H        0.926     0.056     2.242     2.341

molecular dipole:
                 x           y           z       tot (Debye)
 q only:       -0.029       3.922       0.005
   full:       -0.028       3.880       0.005       9.861

 projected vibrational frequencies (cm⁻¹)
eigval :       -0.00    -0.00     0.00     0.00     0.00     0.00
eigval :       11.33    23.87    28.06    37.91    42.61    44.55
eigval :       47.05    51.54    58.65    64.83    78.48    82.00
eigval :       88.21    95.99   100.06   100.62   118.18   120.04
eigval :      135.57   141.11   145.56   151.55   174.59   179.57
eigval :      185.89   187.44   189.41   199.49   208.38   224.52
eigval :      227.48   256.55   261.23   269.06   269.08   281.26
eigval :      305.84   314.49   317.91   325.25   330.58   367.61
eigval :      375.17   376.34   377.82   381.01   385.04   397.58
eigval :      402.95   407.13   408.01   417.98   420.16   442.71
eigval :      444.16   448.03   451.12   474.28   512.06   521.65
eigval :      528.82   530.11   535.72   537.15   543.38   545.27
eigval :      545.62   571.56   575.85   583.11   586.79   600.65
eigval :      602.18   622.74   622.98   650.86   651.73   654.26
eigval :      656.94   681.26   682.99   685.15   686.01   688.02
eigval :      688.67   711.87   722.36   763.15   763.91   770.88
eigval :      771.09   772.75   774.04   805.71   810.45   822.41
eigval :      826.11   859.41   859.65   865.30   865.32   868.66
eigval :      869.80   874.95   875.91   876.65   880.91   900.06
eigval :      900.56   901.83   902.87   915.12   918.37   920.43
eigval :      921.06   923.96   925.01   926.70   927.29   930.43
eigval :      933.51   973.02   974.13  1003.11  1004.56  1054.40
eigval :     1054.96  1064.50  1065.68  1074.91  1075.27  1077.81
eigval :     1078.00  1084.99  1086.38  1088.26  1106.87  1113.42
eigval :     1118.88  1135.60  1139.42  1139.64  1145.74  1146.13
eigval :     1165.50  1166.65  1173.21  1175.61  1179.15  1179.18
eigval :     1191.69  1192.18  1204.18  1204.40  1240.00  1240.83
eigval :     1242.29  1244.17  1253.77  1254.22  1255.13  1269.15
eigval :     1269.88  1274.97  1274.97  1322.99  1327.03  1328.77
eigval :     1328.90  1338.64  1339.09  1350.76  1351.34  1361.01
eigval :     1361.27  1373.53  1373.73  1396.79  1398.29  1401.11
eigval :     1402.77  1404.10  1405.28  1415.18  1417.18  1435.46
eigval :     1435.61  1446.54  1448.71  1466.08  1466.32  1474.92
eigval :     1480.34  1483.12  1484.80  1497.81  1498.38  1498.69
eigval :     1499.32  1505.33  1506.03  1540.87  1540.90  1569.84
eigval :     1571.89  1573.45  1574.53  1585.37  1585.46  1587.95
eigval :     1588.27  1605.18  1605.23  1622.95  1623.00  2954.68
eigval :     2954.87  2969.30  2969.35  3043.78  3044.09  3047.99
eigval :     3048.01  3052.09  3052.20  3069.09  3069.73  3073.35
eigval :     3074.61  3076.60  3076.61  3081.64  3081.80  3081.89
eigval :     3083.34  3088.68  3088.76  3092.90  3092.99  3095.37
eigval :     3095.99  3096.69  3097.30  3097.62  3097.73  3104.67
eigval :     3105.13  3107.27  3107.80

   temp. (K)  partition function   enthalpy   heat capacity  entropy
                                   cal/mol     cal/K/mol   cal/K/mol   J/K/mol
 298.15  VIB  0.677E+18            24810.012    157.550    153.115
         ROT  0.317E+08              888.752      2.981     37.305
         INT  0.215E+26            25698.764    160.531    190.420
         TR   0.173E+29             1481.254      4.968     45.424
         TOT                       27180.0181   165.4990   235.8434   986.7689

       T/K    H(0)-H(T)+PV         H(T)/Eh          T*S/Eh         G(T)/Eh
   ------------------------------------------------------------------------
    298.15    0.433141E-01    0.700642E+00    0.112057E+00    0.588586E+00
   ------------------------------------------------------------------------

         :::::::::::::::::::::::::::::::::::::::::::::::::::::
         ::                  THERMODYNAMIC                  ::
         :::::::::::::::::::::::::::::::::::::::::::::::::::::
         :: total free energy        -134.141300150579 Eh   ::
         ::.................................................::
         :: total energy             -134.729885788574 Eh   ::
         :: zero point energy           0.657328344115 Eh   ::
         :: G(RRHO) w/o ZPVE           -0.068742706120 Eh   ::
         :: G(RRHO) contrib.            0.588585637995 Eh   ::
         :::::::::::::::::::::::::::::::::::::::::::::::::::::

           -------------------------------------------------
          | TOTAL ENERGY             -134.729885788574 Eh   |
          | TOTAL ENTHALPY           -134.029243328612 Eh   |
          | TOTAL FREE ENERGY        -134.141300150579 Eh   |
          | GRADIENT NORM               0.000060408410 Eh/α |
          | HOMO-LUMO GAP               2.121900443400 eV   |
           -------------------------------------------------

 * finished run on 2025/07/19 at 01:00:05.008
