   * xtb version 6.7.1 (edcfbbe) compiled by 'albert@albert-system' on 2024-07-22

   ID    Z sym.   atoms
    1    6 C      1-37, 39-45, 47-51, 53-55
    2    7 N      38, 46, 52
    3    1 H      56-88

          program call               : xtb data2507/gas/PhICz-Pyr/PhICz-Pyr_gas_S0_finalOpt.xtbopt.xyz --gfn 2 --spinpol --tblite --uhf 2 --ohess vtight --parallel 40 --molden --ceasefiles --namespace data2507/gas/PhICz-Pyr/PhICz-Pyr_gas_T1_preOpt
 * total energy  :  -136.8947334 Eh     change        0.1503867E-07 Eh
 * total energy  :  -136.8989256 Eh     change       -0.4192231E-02 Eh
 * total energy  :  -136.9007154 Eh     change       -0.1789757E-02 Eh
 * total energy  :  -136.9008923 Eh     change       -0.1768942E-03 Eh
 * total energy  :  -136.9012121 Eh     change       -0.3198265E-03 Eh
 * total energy  :  -136.9014214 Eh     change       -0.2093012E-03 Eh
 * total energy  :  -136.9016328 Eh     change       -0.2114269E-03 Eh
 * total energy  :  -136.9018236 Eh     change       -0.1907467E-03 Eh
 * total energy  :  -136.9019452 Eh     change       -0.1216613E-03 Eh
 * total energy  :  -136.9020378 Eh     change       -0.9257258E-04 Eh
 * total energy  :  -136.9026268 Eh     change       -0.2559401E-06 Eh
 * total energy  :  -136.9026273 Eh     change       -0.4204759E-06 Eh
 * total energy  :  -136.9026278 Eh     change       -0.5022781E-06 Eh
 * total energy  :  -136.9026281 Eh     change       -0.3477028E-06 Eh
 * total energy  :  -136.9026284 Eh     change       -0.2909412E-06 Eh
 * total energy  :  -136.9026286 Eh     change       -0.2356059E-06 Eh
 * total energy  :  -136.9026289 Eh     change       -0.2233420E-06 Eh
 * total energy  :  -136.9026289 Eh     change        0.5975039E-08 Eh
 * total energy  :  -136.9026289 Eh     change       -0.2833673E-07 Eh
   *** GEOMETRY OPTIMIZATION CONVERGED AFTER 123 ITERATIONS ***

 final structure:
================
88
 xtb: 6.7.1 (edcfbbe)
C           12.05065556874058       -3.48118725435408       -0.41789856791715
C           11.66206775868333       -2.30639781981343       -1.03988893065392
C           10.33839246485377       -1.90963444451593       -1.01225003495385
C            9.37768994876195       -2.68519985153707       -0.36611938996227
C            7.96980681603896       -2.26410056000308       -0.33878472681897
C            6.95190329534943       -3.20549559166103       -0.52187250460824
C            5.61526940230680       -2.85228606201321       -0.50437018533968
C            5.29115295712525       -1.52454431957688       -0.29084659040040
C            6.31680893251711       -0.54188284551681       -0.09937877506154
C            7.64344891562522       -0.92451698585664       -0.13005864567848
C            5.66228223355338        0.74218552996505        0.10027190207844
C            5.90479282194794        2.09092129698882        0.33049378994804
C            4.81023644199643        2.96449719217198        0.45482240806461
C            5.08558022612419        4.39234732300817        0.69726946088003
C            6.07412334078266        5.05762265783784       -0.02428997507164
C            6.32907544301759        6.39767248609880        0.19968228715284
C            5.60479531816673        7.09497914040807        1.15193917776120
C            4.62158165809182        6.44334105280701        1.87741173021093
C            4.36180690799174        5.10463810526083        1.65077563673576
C            3.46601654633463        2.55683597940144        0.36041052723247
C            3.18787072451680        1.21728841170872        0.12634763351424
C            2.09890646836236        0.26750157049863       -0.06117653147666
C            0.72793484719063        0.40737553684965       -0.06194689163026
C           -0.08866154480393       -0.71320617801389       -0.26300085288356
C           -1.53902652641874       -0.58010828255365       -0.25632662480344
C           -2.36647574550185       -1.60804250179756        0.22145225999849
C           -3.72906493885899       -1.47573277091105        0.23711142687072
C           -4.36156472569871       -0.30491140276378       -0.23328532305725
C           -5.78834732389995       -0.21607201838838       -0.19241698005753
C           -6.53196061004000        0.91550959927875       -0.56721642999418
C           -7.91208131767655        0.86620213733897       -0.47055306318921
C           -8.79951179845055        1.95649681299045       -0.81619045101095
C           -8.34307655051168        3.23137044764876       -1.17537703056045
C           -9.23496881500386        4.23363164138249       -1.49460733324603
C          -10.60191655121301        4.00023237984690       -1.46562804191834
C          -11.06963553905014        2.74406647519874       -1.10894982923571
C          -10.18569138873774        1.73763679877300       -0.78843673757646
N           -8.49581921216790       -0.28584232650253       -0.02410456895354
C           -7.78302638305447       -1.34016460120500        0.31849396817322
C           -8.45910187836962       -2.54833752236119        0.78523266342611
C           -9.84489462466858       -2.56698317512731        0.92428781288911
C          -10.48281776298090       -3.71046137777005        1.36424492495781
C           -9.74554405017146       -4.84399568405088        1.66871927763864
C           -8.36599012725465       -4.83155247811281        1.53251754396312
C           -7.72361427253751       -3.69053877628367        1.09324099893800
N           -6.47804172234797       -1.30962683701829        0.24474651861702
C           -3.52938699711076        0.72096874873576       -0.72145221154052
C           -2.16475477929579        0.58486974584182       -0.72483082697319
C            0.51298053250263       -1.96550239768747       -0.46722690360549
C            1.88312610088543       -2.13449656313411       -0.47339175292067
C            2.68392272071124       -1.02429971626065       -0.26807185437498
N            4.06166524957654       -0.89596283843612       -0.21580966151533
C            4.31671487519069        0.42088156803721        0.01394192943304
C            9.78016514504437       -3.86622644954569        0.25437535294216
C           11.10532772407085       -4.25836485251763        0.23045150135688
H           13.08545683824640       -3.78953883580015       -0.43809761829921
H           12.39431735222271       -1.69800348427642       -1.55076239305585
H           10.03889592679021       -1.00130765099228       -1.51480645202308
H            7.22016980266435       -4.23545420996228       -0.70390815732708
H            4.84705944968436       -3.59495398880346       -0.65563581062423
H            8.42175818528531       -0.19371540213549        0.03126209983805
H            6.90581242039129        2.48053778254050        0.43732321136347
H            6.63032990840572        4.52350386658529       -0.78124805258495
H            7.09436702272492        6.90155619561177       -0.37289160527707
H            5.80558344544405        8.14147206629456        1.32775645737327
H            4.05610231289667        6.98074666443079        2.62492063234156
H            3.60528193819755        4.59763719121820        2.23229341001695
H            2.68385442605805        3.29515531014061        0.45092908013490
H            0.28777563318730        1.37559087115171        0.12144937249731
H           -1.91927057414998       -2.50788251853901        0.61855911152904
H           -4.35163714045933       -2.26833415027359        0.62446021694248
H           -6.03388626740014        1.80027117913610       -0.92333873773698
H           -7.28615256991578        3.44760416770901       -1.19833574246118
H           -8.86265809466022        5.21076069566485       -1.76774896279977
H          -11.29410530770369        4.78992451012246       -1.71657819101265
H          -12.13286745385730        2.55236737617543       -1.08193829510577
H          -10.54539939342583        0.75756054314661       -0.51364367892672
H          -10.40483184875773       -1.67571039023662        0.68544569066344
H          -11.55756716677505       -3.72125222483418        1.47130896709366
H          -10.24601617819799       -5.73739066519183        2.01228148641575
H           -7.79280726271522       -5.71573586559676        1.76995573439909
H           -6.65051226439871       -3.66595503226354        0.98021379969433
H           -3.96028515724655        1.63012662085220       -1.11182767296891
H           -1.55973895263042        1.38231975026422       -1.13174844822110
H           -0.11654126771618       -2.82257778390471       -0.65142836889669
H            2.31664543425548       -3.10892873255608       -0.63982971415514
H            9.05123692855401       -4.46778432625968        0.77789128178499
H           11.40325447989402       -5.17334509446671        0.72173773009901

 projected vibrational frequencies (cm⁻¹)
eigval :       -0.00    -0.00    -0.00    -0.00     0.00     0.00
eigval :        5.40     8.51    12.28    13.42    23.06    27.30
eigval :       35.99    40.16    41.23    42.92    47.63    52.95
eigval :       56.26    60.99    70.70    86.50    95.43   102.79
eigval :      105.16   115.40   132.12   138.41   152.71   175.01
eigval :      188.02   194.06   201.68   205.74   225.90   243.22
eigval :      252.36   258.40   264.22   265.86   276.39   300.01
eigval :      317.03   340.14   345.20   365.66   366.60   370.48
eigval :      371.62   372.94   374.60   379.91   393.29   397.40
eigval :      403.00   407.43   413.42   420.38   443.95   455.92
eigval :      478.24   481.58   494.22   500.71   517.28   535.77
eigval :      539.92   549.88   574.16   578.52   581.83   583.47
eigval :      585.92   588.32   589.55   593.05   593.81   603.88
eigval :      607.83   622.94   624.79   627.76   628.98   645.92
eigval :      650.05   651.66   663.61   669.72   674.84   676.11
eigval :      689.10   692.05   702.51   709.53   721.80   746.15
eigval :      746.58   757.37   760.82   764.23   792.63   807.38
eigval :      814.04   818.00   821.86   830.40   836.20   845.49
eigval :      852.80   855.89   868.49   872.99   873.42   873.46
eigval :      879.03   879.50   884.01   890.18   900.63   901.99
eigval :      903.97   904.46   905.72   908.49   910.77   914.54
eigval :      919.45   920.92   921.81   926.27   927.78   930.91
eigval :      931.04   931.92   932.01   932.33   972.92   976.60
eigval :      981.93   982.01   990.12  1016.76  1025.68  1057.55
eigval :     1061.40  1066.97  1068.76  1069.93  1074.95  1084.33
eigval :     1085.96  1086.42  1104.88  1112.48  1116.65  1122.33
eigval :     1122.91  1123.33  1144.31  1156.32  1167.30  1178.82
eigval :     1180.36  1181.86  1181.94  1188.27  1195.42  1199.33
eigval :     1199.61  1201.98  1210.45  1212.03  1219.49  1231.27
eigval :     1244.93  1250.26  1267.06  1268.25  1274.12  1280.53
eigval :     1281.41  1282.38  1283.49  1286.10  1297.94  1311.20
eigval :     1319.12  1319.52  1324.24  1326.73  1330.80  1331.32
eigval :     1345.87  1355.27  1356.55  1367.85  1380.82  1393.82
eigval :     1405.47  1415.16  1423.75  1425.10  1429.32  1431.42
eigval :     1434.43  1436.79  1442.94  1454.66  1460.18  1466.11
eigval :     1472.35  1477.33  1483.65  1487.43  1490.85  1500.56
eigval :     1537.04  1555.27  1558.78  1562.41  1575.68  1581.34
eigval :     1581.45  1583.19  1586.80  1590.33  1594.02  1596.94
eigval :     1600.94  1604.75  1637.85  3069.92  3070.02  3071.20
eigval :     3071.24  3071.67  3072.07  3072.45  3073.42  3076.04
eigval :     3079.48  3080.76  3081.28  3082.72  3083.52  3084.58
eigval :     3086.79  3087.06  3087.55  3089.03  3089.81  3089.98
eigval :     3090.99  3091.17  3091.78  3092.47  3092.94  3094.59
eigval :     3095.01  3096.50  3097.61  3098.42  3099.06  3123.63

   temp. (K)  partition function   enthalpy   heat capacity  entropy
                                   cal/mol     cal/K/mol   cal/K/mol   J/K/mol
 298.15  VIB  0.206E+22            25492.226    159.141    160.973
         ROT  0.242E+09              888.752      2.981     41.347
         INT  0.500E+30            26380.979    162.121    202.321
         TR   0.179E+29             1481.254      4.968     45.497
         TOT                       27862.2324   167.0896   247.8179  1036.8701

       T/K    H(0)-H(T)+PV         H(T)/Eh          T*S/Eh         G(T)/Eh
   ------------------------------------------------------------------------
    298.15    0.444013E-01    0.713806E+00    0.117746E+00    0.596059E+00
   ------------------------------------------------------------------------

         :::::::::::::::::::::::::::::::::::::::::::::::::::::
         ::                  THERMODYNAMIC                  ::
         :::::::::::::::::::::::::::::::::::::::::::::::::::::
         :: total free energy        -136.306569487157 Eh   ::
         ::.................................................::
         :: total energy             -136.902628882965 Eh   ::
         :: zero point energy           0.669404388671 Eh   ::
         :: G(RRHO) w/o ZPVE           -0.073344992863 Eh   ::
         :: G(RRHO) contrib.            0.596059395808 Eh   ::
         :::::::::::::::::::::::::::::::::::::::::::::::::::::

           -------------------------------------------------
          | TOTAL ENERGY             -136.902628882965 Eh   |
          | TOTAL ENTHALPY           -136.188823200658 Eh   |
          | TOTAL FREE ENERGY        -136.306569487157 Eh   |
          | GRADIENT NORM               0.000063571741 Eh/α |
           -------------------------------------------------

 * finished run on 2025/07/17 at 06:21:42.883
