   * xtb version 6.7.1 (edcfbbe) compiled by 'albert@albert-system' on 2024-07-22

   ID    Z sym.   atoms
    1    6 C      1-37, 39-45, 47-51, 53-55
    2    7 N      38, 46, 52
    3    1 H      56-88

          program call               : xtb data2507/gas/PhICz-Pyr/PhICz-Pyr_gas_T1_crest.xyz --gfn 2 --spinpol --tblite --uhf 2 --ohess vtight --parallel 40 --molden --ceasefiles --namespace data2507/gas/PhICz-Pyr/PhICz-Pyr_gas_T1_finalOpt
 * total energy  :  -136.9021935 Eh     change       -0.9076928E-08 Eh
 * total energy  :  -136.9023802 Eh     change       -0.1867507E-03 Eh
 * total energy  :  -136.9025059 Eh     change       -0.1256342E-03 Eh
 * total energy  :  -136.9025179 Eh     change       -0.1205221E-04 Eh
 * total energy  :  -136.9025356 Eh     change       -0.1771766E-04 Eh
 * total energy  :  -136.9025432 Eh     change       -0.7540324E-05 Eh
 * total energy  :  -136.9025607 Eh     change       -0.1757991E-04 Eh
 * total energy  :  -136.9025679 Eh     change       -0.7153026E-05 Eh
 * total energy  :  -136.9025756 Eh     change       -0.7754697E-05 Eh
 * total energy  :  -136.9025832 Eh     change       -0.7522067E-05 Eh
 * total energy  :  -136.9026628 Eh     change       -0.4736439E-06 Eh
 * total energy  :  -136.9026635 Eh     change       -0.6641889E-06 Eh
 * total energy  :  -136.9026642 Eh     change       -0.7399154E-06 Eh
 * total energy  :  -136.9026650 Eh     change       -0.7039823E-06 Eh
 * total energy  :  -136.9026657 Eh     change       -0.7297004E-06 Eh
 * total energy  :  -136.9026663 Eh     change       -0.6470855E-06 Eh
 * total energy  :  -136.9026670 Eh     change       -0.6282569E-06 Eh
 * total energy  :  -136.9026676 Eh     change       -0.5957287E-06 Eh
 * total energy  :  -136.9026676 Eh     change       -0.3019011E-07 Eh
   *** GEOMETRY OPTIMIZATION CONVERGED AFTER 68 ITERATIONS ***

 final structure:
================
88
 xtb: 6.7.1 (edcfbbe)
C           12.05262803403060       -3.45385971379048       -0.48323549880151
C           11.14840425710709       -3.96438144829963       -1.39963278952523
C            9.82283749924524       -3.57480999665956       -1.36008199906885
C            9.37918216338974       -2.66206738558834       -0.40520718955875
C            7.97061241238917       -2.24463140805174       -0.36120210163591
C            6.95356604652563       -3.18643953253162       -0.54666178385535
C            5.61612042167279       -2.83813053095726       -0.50647018344054
C            5.29075985466210       -1.51254414654138       -0.28184090398151
C            6.31566496887950       -0.52865041099119       -0.09285589117487
C            7.64279377983514       -0.90889894980304       -0.13140208939922
C            5.65996765030646        0.75362518107849        0.11415501405302
C            5.90130111739788        2.10174215321260        0.34903092557498
C            4.80583444938032        2.97232211978324        0.48559883136554
C            5.08050431565788        4.39895234427940        0.73599439622474
C            6.06240323921196        5.07129342374052        0.01195800440862
C            6.31793533463082        6.40963364501178        0.24541486934656
C            5.60106469573651        7.09792064441868        1.20978200694725
C            4.62423940892847        6.43920942097978        1.93749994983218
C            4.36368510180380        5.10230507039283        1.70131250244228
C            3.46184954474103        2.56259857516158        0.39765946620530
C            3.18479698032120        1.22352638290088        0.15937518501598
C            2.09656566790920        0.27257427269921       -0.02625327948521
C            0.72529025314577        0.41048316611934       -0.02333072569801
C           -0.08961338795829       -0.71100753396875       -0.22454997819054
C           -1.54036862449712       -0.57991696958679       -0.21860580632312
C           -2.36592241474471       -1.60438354707277        0.26914140542217
C           -3.72891093762038       -1.47523728229313        0.27980034976068
C           -4.36308794560488       -0.31232341397900       -0.20760136007888
C           -5.79048780754571       -0.22889595573597       -0.17540336590172
C           -6.53791732694027        0.88826757121568       -0.58422507613274
C           -7.91841682750976        0.83330299407761       -0.49559159695746
C           -8.80993908732796        1.90836119804688       -0.87627614252059
C           -8.35897534049096        3.17698299406700       -1.26347475150571
C           -9.25480099287710        4.16463243608838       -1.61553127052359
C          -10.62035155240984        3.92249941421135       -1.59249217563525
C          -11.08270183901702        2.67247387544407       -1.20828294219951
C          -10.19483375273174        1.68064104782234       -0.85489202991083
N           -8.49844206856685       -0.31017719788333       -0.02292985333597
C           -7.78231098219396       -1.35150222411867        0.35080628598580
C           -8.45484745935381       -2.55132847968529        0.84337914579431
C           -9.84261507327637       -2.57931072529177        0.95933706467593
C          -10.47745630509584       -3.71499212915610        1.42326324505047
C           -9.73505943980446       -4.83131083382106        1.77521138426838
C           -8.35349924346874       -4.80939748471560        1.66251220602247
C           -7.71423498972655       -3.67619231398039        1.19915612259697
N           -6.47712905655043       -1.31490194879308        0.28496849826949
C           -3.53229908755501        0.71078489224735       -0.70374010402277
C           -2.16716316505693        0.57870052890065       -0.70058966119050
C            0.51270938912858       -1.96238761947608       -0.43094363276452
C            1.88314809993921       -2.12908515470699       -0.44289666202422
C            2.68269814268193       -1.01765091429512       -0.23968297360162
N            4.06052196768244       -0.88692034948771       -0.19490533774155
C            4.31445517745817        0.42964606172703        0.03747095247051
C           10.29891938871545       -2.15209334842759        0.50912196942771
C           11.62278419371236       -2.54740924785839        0.47154948904040
H           13.08755594985252       -3.76100258265608       -0.51307299447881
H           11.47890548723670       -4.66801550966512       -2.14995205427239
H            9.12664308605430       -3.96308135538371       -2.08937144786047
H            7.22214249144060       -4.22050092863464       -0.70322727808956
H            4.84816766437417       -3.58375249783908       -0.64386370276800
H            8.42145181483357       -0.17146606322271       -0.00588272695850
H            6.90224820979310        2.49324903123186        0.44941728534726
H            6.61287700847002        4.54416059603712       -0.75404425777187
H            7.07804359553144        6.91914960537306       -0.32906639926931
H            5.80268128216979        8.14293503061399        1.39329190591453
H            4.06452528556178        6.96957779315406        2.69432301989950
H            3.61227090268065        4.58954296543356        2.28442906194304
H            2.67888702906615        3.29899144722395        0.49666955008116
H            0.28348617310792        1.37756012670797        0.16236745312136
H           -1.91680043332634       -2.49829812442736        0.67743811086338
H           -4.35064940559046       -2.26483727345392        0.67454631887513
H           -6.04272829979131        1.76572003844358       -0.96183432041455
H           -7.30336510284770        3.39994332625268       -1.28248217344348
H           -8.88675197778947        5.13722026517141       -1.90985010673760
H          -11.31563700366968        4.70077873828583       -1.86921574555773
H          -12.14480784057542        2.47405699930728       -1.18567626276472
H          -10.55031370826693        0.70531691590190       -0.55853125671459
H          -10.40655624750171       -1.70137978627036        0.68339895032186
H          -11.55377033624872       -3.73311217346572        1.51200605474125
H          -10.23309141170779       -5.71863210735806        2.13753700612026
H           -7.77631219845738       -5.68007714607354        1.93722923159854
H           -6.63956182736528       -3.64443610399849        1.10431582933590
H           -3.96434865722801        1.61483389451611       -1.10453971540491
H           -1.56233749145069        1.37344382267655       -1.11315256770178
H           -0.11670945714447       -2.82002154939289       -0.61312295324272
H            2.31772332736514       -3.10251056987906       -0.61240273143173
H            9.96624025340381       -1.45853720700372        1.26783901197350
H           12.32262592282611       -2.14890149199258        1.19178054992262

 projected vibrational frequencies (cm⁻¹)
eigval :       -0.00    -0.00    -0.00     0.00     0.00     0.00
eigval :        5.08     8.52    11.87    13.50    22.75    27.14
eigval :       35.86    39.93    40.78    43.55    48.09    53.26
eigval :       55.96    61.41    68.68    89.13    95.44   100.80
eigval :      104.51   116.08   132.78   136.63   152.69   177.13
eigval :      185.86   194.73   202.24   205.80   224.88   239.57
eigval :      251.87   258.29   264.35   267.97   277.33   305.91
eigval :      319.38   327.61   344.20   365.55   366.56   370.80
eigval :      371.94   373.03   377.86   384.26   392.86   395.72
eigval :      401.41   411.71   413.97   420.39   435.40   461.75
eigval :      472.67   486.25   494.49   499.15   517.41   536.02
eigval :      539.49   549.88   573.95   578.41   581.86   583.47
eigval :      586.73   587.59   589.58   593.73   594.10   604.17
eigval :      607.45   623.37   625.69   626.49   629.58   645.18
eigval :      649.94   651.53   663.54   671.04   673.91   676.07
eigval :      689.63   691.18   702.59   709.53   721.92   745.93
eigval :      746.40   757.40   760.79   764.09   792.47   807.42
eigval :      813.78   817.89   821.79   829.83   836.27   845.42
eigval :      852.67   855.63   869.17   873.09   873.21   873.46
eigval :      878.87   879.35   884.09   889.56   900.25   902.20
eigval :      904.06   904.21   905.53   908.39   911.87   914.10
eigval :      917.21   920.46   922.36   926.17   927.64   931.05
eigval :      931.17   931.90   932.16   932.26   972.70   975.34
eigval :      981.19   981.61   990.22  1014.87  1025.10  1057.72
eigval :     1061.78  1066.48  1068.50  1070.02  1074.80  1083.76
eigval :     1085.21  1085.75  1105.00  1112.55  1116.22  1121.61
eigval :     1122.10  1122.23  1143.99  1155.95  1166.85  1178.84
eigval :     1180.44  1181.89  1181.95  1188.39  1194.91  1199.81
eigval :     1199.93  1202.13  1210.82  1211.92  1219.54  1231.01
eigval :     1245.43  1250.77  1267.46  1268.37  1273.81  1280.66
eigval :     1281.48  1282.40  1284.44  1286.99  1300.07  1311.32
eigval :     1319.02  1319.42  1324.30  1326.83  1330.79  1331.20
eigval :     1345.99  1355.08  1356.95  1368.32  1381.69  1394.27
eigval :     1405.77  1415.94  1424.18  1425.62  1429.73  1432.20
eigval :     1434.93  1437.24  1443.49  1455.90  1461.22  1466.94
eigval :     1472.83  1478.02  1484.55  1487.05  1491.53  1501.09
eigval :     1537.75  1555.33  1558.96  1562.55  1575.86  1581.23
eigval :     1581.39  1583.28  1586.93  1590.45  1594.11  1597.10
eigval :     1600.93  1604.72  1637.92  3070.04  3071.02  3071.39
eigval :     3071.65  3071.85  3072.02  3072.62  3073.33  3076.19
eigval :     3079.90  3081.03  3081.27  3083.83  3084.04  3084.98
eigval :     3086.96  3087.21  3087.83  3089.09  3090.22  3090.25
eigval :     3091.12  3091.23  3091.90  3092.35  3092.88  3094.46
eigval :     3095.23  3096.86  3097.73  3098.61  3098.95  3123.80

   temp. (K)  partition function   enthalpy   heat capacity  entropy
                                   cal/mol     cal/K/mol   cal/K/mol   J/K/mol
 298.15  VIB  0.232E+22            25497.694    159.149    161.112
         ROT  0.243E+09              888.752      2.981     41.349
         INT  0.564E+30            26386.447    162.130    202.460
         TR   0.179E+29             1481.254      4.968     45.497
         TOT                       27867.7004   167.0977   247.9574  1037.4539

       T/K    H(0)-H(T)+PV         H(T)/Eh          T*S/Eh         G(T)/Eh
   ------------------------------------------------------------------------
    298.15    0.444100E-01    0.713833E+00    0.117813E+00    0.596020E+00
   ------------------------------------------------------------------------

         :::::::::::::::::::::::::::::::::::::::::::::::::::::
         ::                  THERMODYNAMIC                  ::
         :::::::::::::::::::::::::::::::::::::::::::::::::::::
         :: total free energy        -136.306647287522 Eh   ::
         ::.................................................::
         :: total energy             -136.902667595444 Eh   ::
         :: zero point energy           0.669422877505 Eh   ::
         :: G(RRHO) w/o ZPVE           -0.073402569583 Eh   ::
         :: G(RRHO) contrib.            0.596020307922 Eh   ::
         :::::::::::::::::::::::::::::::::::::::::::::::::::::

           -------------------------------------------------
          | TOTAL ENERGY             -136.902667595444 Eh   |
          | TOTAL ENTHALPY           -136.188834710484 Eh   |
          | TOTAL FREE ENERGY        -136.306647287522 Eh   |
          | GRADIENT NORM               0.000059974594 Eh/α |
           -------------------------------------------------

 * finished run on 2025/07/17 at 06:28:28.672
