   * xtb version 6.7.1 (edcfbbe) compiled by 'albert@albert-system' on 2024-07-22

   ID    Z sym.   atoms
    1    6 C      1-37, 39-45, 47-51, 53-55
    2    7 N      38, 46, 52
    3    1 H      56-88

          program call               : xtb data2507/gas/PhICz-Pyr/PhICz-Pyr_gas_S0_crest.xyz --gfn 2 --ohess vtight --parallel 40 --molden --ceasefiles --namespace data2507/gas/PhICz-Pyr/PhICz-Pyr_gas_S0_finalOpt
          :  Hamiltonian                  GFN2-xTB          :
 * total energy  :  -136.9788959 Eh     change       -0.1563933E-08 Eh
 * total energy  :  -136.9788968 Eh     change       -0.9650479E-06 Eh
 * total energy  :  -136.9788983 Eh     change       -0.1527047E-05 Eh
 * total energy  :  -136.9788998 Eh     change       -0.1455116E-05 Eh
 * total energy  :  -136.9789011 Eh     change       -0.1275299E-05 Eh
 * total energy  :  -136.9789026 Eh     change       -0.1562505E-05 Eh
 * total energy  :  -136.9789043 Eh     change       -0.1702399E-05 Eh
 * total energy  :  -136.9789059 Eh     change       -0.1604937E-05 Eh
 * total energy  :  -136.9789077 Eh     change       -0.1725410E-05 Eh
 * total energy  :  -136.9789094 Eh     change       -0.1758166E-05 Eh
 * total energy  :  -136.9789303 Eh     change       -0.3497406E-06 Eh
 * total energy  :  -136.9789307 Eh     change       -0.3277885E-06 Eh
 * total energy  :  -136.9789310 Eh     change       -0.3156374E-06 Eh
 * total energy  :  -136.9789313 Eh     change       -0.3083181E-06 Eh
 * total energy  :  -136.9789316 Eh     change       -0.2977704E-06 Eh
 * total energy  :  -136.9789319 Eh     change       -0.3048187E-06 Eh
 * total energy  :  -136.9789321 Eh     change       -0.2642284E-06 Eh
 * total energy  :  -136.9789323 Eh     change       -0.1725881E-06 Eh
 * total energy  :  -136.9789324 Eh     change       -0.7286826E-07 Eh
   *** GEOMETRY OPTIMIZATION CONVERGED AFTER 38 ITERATIONS ***

 final structure:
================
88
 xtb: 6.7.1 (edcfbbe)
C           12.05033277401190       -3.44934438902484       -0.43072653599097
C           11.62815429743670       -2.31374154360014       -1.10139610261791
C           10.30264196372448       -1.92558070983890       -1.04574419440047
C            9.37447019264658       -2.67038776657954       -0.32161699134005
C            7.96353132928811       -2.25844564102980       -0.26643368400241
C            6.94982977600370       -3.21441325665701       -0.37599503120131
C            5.61054186637967       -2.87069416027577       -0.33576899749056
C            5.28190844345472       -1.53796397676942       -0.17534911558701
C            6.30239212024256       -0.54102043437360       -0.05736990008268
C            7.63212425040340       -0.91479058621906       -0.10825309699141
C            5.64377754976258        0.74670897303460        0.09724886528417
C            5.88186270908328        2.10612913980381        0.25538627938644
C            4.78456985560657        2.97917313021785        0.36103299577745
C            5.05763545674571        4.41849582352948        0.53236595654172
C            6.02175045835518        5.05653666207010       -0.24409335907187
C            6.27595141753650        6.40597527556648       -0.08396357117556
C            5.57477330980114        7.14001738287369        0.85778874212176
C            4.61533015614876        6.51572880736743        1.63695945911062
C            4.35684509246710        5.16737705080348        1.47449970936804
C            3.44291762794184        2.56167558000537        0.31284009929704
C            3.16733451858827        1.20951769338048        0.15125511408657
C            2.08279015840440        0.24811280241147        0.03060413790098
C            0.70711206494520        0.37959819299220        0.03516030624330
C           -0.09291066930153       -0.75342493246607       -0.09641775870659
C           -1.55659964018701       -0.62840715509411       -0.09650419219955
C           -2.35552745041267       -1.54664080549451        0.58421239415625
C           -3.72852050847332       -1.42695062573253        0.57725325938340
C           -4.34966094924325       -0.38333818058575       -0.10835279800240
C           -5.81343600267601       -0.29082933317129       -0.09532223146641
C           -6.49863661020709        0.90540476554078       -0.30899708970891
C           -7.89145230327254        0.85821835741776       -0.27493017862765
C           -8.72991246129351        2.04400081436529       -0.49631295137525
C           -8.28053163025252        3.32808970027786       -0.19873154283723
C           -9.09665098241006        4.42119163123674       -0.42377645729598
C          -10.36599389757869        4.24815250791790       -0.95030483593401
C          -10.82359577646707        2.97303183591885       -1.24136888741007
C          -10.01394683024183        1.87780502517306       -1.01200363615909
N           -8.53153309551462       -0.28779648121728       -0.05661173250404
C           -7.80219669003994       -1.37770837008264        0.15356363472645
C           -8.51781075276471       -2.63152691256440        0.40976196334801
C           -9.90094811728757       -2.62900637267599        0.57618696347179
C          -10.57222535202069       -3.81218193131678        0.81732408471230
C           -9.87265331756582       -5.00625370926043        0.89394121355508
C           -8.49649500201122       -5.01453281650063        0.72902607715316
C           -7.81960880868028       -3.83455589371324        0.48834491464783
N           -6.47539402835946       -1.42000389200951        0.14789759311048
C           -3.55447749340594        0.53162124495858       -0.79538818748023
C           -2.18016158377958        0.40983309261894       -0.78680373325802
C            0.50221310361578       -2.01105188984758       -0.23475080560221
C            1.87533662694473       -2.17346797372132       -0.25224989924143
C            2.66938280537011       -1.04971861450345       -0.11917293462764
N            4.04710639698810       -0.91329482987239       -0.09927404540807
C            4.29862027154928        0.41367923058946        0.05875730916930
C            9.81023658477083       -3.81159052163330        0.34778434655986
C           11.13714401166519       -4.19560592238407        0.29508290990985
H           13.08635717955820       -3.75143710023102       -0.47349156378333
H           12.33520741084699       -1.72957757115731       -1.67262274895098
H            9.97590052084212       -1.04828453592367       -1.58524531002572
H            7.22181893956511       -4.24976160926026       -0.51830686266320
H            4.84522580722768       -3.62568183625783       -0.43074060246269
H            8.40800219103987       -0.17107173806643       -0.00404864579821
H            6.88230850430746        2.50656244503102        0.32001614492251
H            6.56032247703699        4.49272298228445       -0.99227482352929
H            7.02291850931921        6.88815915006659       -0.69799903452681
H            5.77528889897301        8.19373930832533        0.98407024726906
H            4.06790005785281        7.08197141886809        2.37669566322937
H            3.61905559207994        4.68208111118074        2.09730745791854
H            2.65817484960622        3.29983269040633        0.38207647301411
H            0.25690489656533        1.35278489104059        0.16242753214190
H           -1.89003506412283       -2.34819148558115        1.13905633711767
H           -4.34780525828963       -2.13350992815226        1.10780398239680
H           -5.97495161315809        1.82755485638786       -0.49569061069079
H           -7.30104996349948        3.47482839017953        0.23243392099935
H           -8.74179383426254        5.41335321374559       -0.18510713365931
H          -10.99847923570788        5.10541478989054       -1.12846233434896
H          -11.81498181917291        2.83466628506304       -1.64741937276146
H          -10.35528191525184        0.87804212732306       -1.23180312258662
H          -10.42913511935365       -1.69017394079935        0.51692321230397
H          -11.64483278946462       -3.80681571924585        0.94721287633377
H          -10.39987534527131       -5.93032170400154        1.08244990808563
H           -7.95230657960697       -5.94610506351369        0.78806752551113
H           -6.74934686893023       -3.82309217705018        0.35339648708778
H           -4.00955710328689        1.32885593355893       -1.36458586646276
H           -1.57863342373397        1.11345981837639       -1.34398948240203
H           -0.13056729426391       -2.87750937978328       -0.35614678841987
H            2.31242975875917       -3.15307899212596       -0.37020384681594
H            9.10634340684094       -4.38849639762524        0.93016283559689
H           11.46146498241948       -5.08004591610551        0.82426539963053

          :  Hamiltonian                  GFN2-xTB          :
         :: gradient norm              0.000072757844 Eh/a0 ::
         :: HOMO-LUMO gap              2.126151416946 eV    ::
         :: SCC energy              -139.593202106468 Eh    ::
         :: -> dispersion             -0.116990606534 Eh    ::
         :: repulsion energy           2.614269718219 Eh    ::

    * Orbital Energies and Occupations

         #    Occupation            Energy/Eh            Energy/eV
      -------------------------------------------------------------
         1        2.0000           -0.6877034             -18.7134
       ...           ...                  ...                  ...
       116        2.0000           -0.4045356             -11.0080
       117        2.0000           -0.4037422             -10.9864
       118        2.0000           -0.4029005             -10.9635
       119        2.0000           -0.4021854             -10.9440
       120        2.0000           -0.4015359             -10.9263
       121        2.0000           -0.4001685             -10.8891
       122        2.0000           -0.3937913             -10.7156
       123        2.0000           -0.3900762             -10.6145
       124        2.0000           -0.3895423             -10.6000
       125        2.0000           -0.3836164             -10.4387
       126        2.0000           -0.3798861             -10.3372
       127        2.0000           -0.3651758              -9.9369
       128        2.0000           -0.3541930              -9.6381 (HOMO)
       129                         -0.2760584              -7.5119 (LUMO)
       130                         -0.2671277              -7.2689
       131                         -0.2648731              -7.2076
       132                         -0.2456386              -6.6842
       133                         -0.2439165              -6.6373
       134                         -0.2338988              -6.3647
       135                         -0.2298780              -6.2553
       136                         -0.2257880              -6.1440
       137                         -0.2248984              -6.1198
       138                         -0.2216919              -6.0325
       139                         -0.2209295              -6.0118
       ...                                ...                  ...
       253                          0.7681629              20.9028
      -------------------------------------------------------------
                  HL-Gap            0.0781346 Eh            2.1262 eV

     #   Z          covCN         q      C6AA      α(0)
     1   6 C        2.920    -0.031    28.783     8.798
     2   6 C        2.918    -0.030    28.739     8.791
     3   6 C        2.925    -0.034    28.852     8.809
     4   6 C        2.978     0.011    27.776     8.645
     5   6 C        2.976     0.002    27.968     8.675
     6   6 C        2.928    -0.037    28.910     8.818
     7   6 C        2.907    -0.046    29.154     8.854
     8   6 C        3.088     0.048    26.816     8.488
     9   6 C        3.111    -0.012    28.155     8.693
    10   6 C        2.917    -0.036    28.902     8.816
    11   6 C        3.019    -0.017    28.414     8.744
    12   6 C        2.939    -0.036    28.897     8.816
    13   6 C        2.978    -0.000    28.034     8.685
    14   6 C        2.980     0.011    27.765     8.643
    15   6 C        2.925    -0.035    28.861     8.810
    16   6 C        2.919    -0.030    28.744     8.792
    17   6 C        2.920    -0.032    28.792     8.799
    18   6 C        2.919    -0.030    28.744     8.792
    19   6 C        2.925    -0.035    28.861     8.810
    20   6 C        2.939    -0.036    28.901     8.817
    21   6 C        3.019    -0.018    28.423     8.745
    22   6 C        3.111    -0.012    28.151     8.692
    23   6 C        2.917    -0.036    28.896     8.815
    24   6 C        2.976     0.002    27.977     8.676
    25   6 C        2.978     0.014    27.707     8.634
    26   6 C        2.923    -0.034    28.843     8.807
    27   6 C        2.924    -0.025    28.635     8.776
    28   6 C        2.980     0.001    27.990     8.678
    29   6 C        2.968     0.110    25.577     8.295
    30   6 C        2.912    -0.066    29.652     8.929
    31   6 C        2.969     0.110    25.579     8.296
    32   6 C        2.980     0.005    27.912     8.666
    33   6 C        2.923    -0.031    28.775     8.797
    34   6 C        2.919    -0.029    28.724     8.789
    35   6 C        2.920    -0.027    28.674     8.781
    36   6 C        2.918    -0.028    28.691     8.784
    37   6 C        2.926    -0.024    28.606     8.771
    38   7 N        1.850    -0.272    27.910     7.830
    39   6 C        2.946     0.181    24.121     8.055
    40   6 C        2.985     0.002    27.979     8.677
    41   6 C        2.924    -0.027    28.669     8.781
    42   6 C        2.918    -0.029    28.718     8.788
    43   6 C        2.920    -0.027    28.665     8.780
    44   6 C        2.918    -0.029    28.720     8.788
    45   6 C        2.924    -0.027    28.670     8.781
    46   7 N        1.850    -0.272    27.908     7.830
    47   6 C        2.921    -0.032    28.798     8.800
    48   6 C        2.924    -0.035    28.868     8.811
    49   6 C        2.928    -0.036    28.902     8.816
    50   6 C        2.907    -0.046    29.148     8.853
    51   6 C        3.088     0.049    26.796     8.485
    52   7 N        2.832    -0.030    21.825     6.939
    53   6 C        3.476     0.035    21.936     7.011
    54   6 C        2.925    -0.034    28.856     8.809
    55   6 C        2.919    -0.030    28.740     8.791
    56   1 H        0.926     0.029     2.601     2.522
    57   1 H        0.926     0.029     2.598     2.521
    58   1 H        0.926     0.031     2.579     2.511
    59   1 H        0.926     0.036     2.508     2.476
    60   1 H        0.926     0.032     2.555     2.500
    61   1 H        0.926     0.037     2.485     2.465
    62   1 H        0.926     0.035     2.520     2.483
    63   1 H        0.926     0.030     2.587     2.515
    64   1 H        0.926     0.029     2.603     2.523
    65   1 H        0.926     0.029     2.606     2.525
    66   1 H        0.926     0.029     2.604     2.523
    67   1 H        0.926     0.030     2.587     2.515
    68   1 H        0.926     0.034     2.527     2.486
    69   1 H        0.926     0.037     2.488     2.466
    70   1 H        0.926     0.035     2.510     2.478
    71   1 H        0.926     0.053     2.279     2.361
    72   1 H        0.926     0.032     2.561     2.503
    73   1 H        0.926     0.032     2.560     2.502
    74   1 H        0.926     0.032     2.554     2.499
    75   1 H        0.926     0.033     2.541     2.493
    76   1 H        0.926     0.035     2.523     2.484
    77   1 H        0.926     0.052     2.289     2.366
    78   1 H        0.926     0.053     2.277     2.360
    79   1 H        0.926     0.033     2.544     2.494
    80   1 H        0.926     0.032     2.553     2.498
    81   1 H        0.926     0.033     2.546     2.495
    82   1 H        0.926     0.053     2.281     2.362
    83   1 H        0.926     0.032     2.561     2.502
    84   1 H        0.926     0.034     2.534     2.489
    85   1 H        0.926     0.037     2.491     2.468
    86   1 H        0.926     0.033     2.543     2.494
    87   1 H        0.926     0.030     2.583     2.513
    88   1 H        0.926     0.029     2.599     2.521

molecular dipole:
                 x           y           z       tot (Debye)
 q only:        0.291      -0.000      -0.060
   full:        0.480       0.290      -0.148       1.475

 projected vibrational frequencies (cm⁻¹)
eigval :       -0.00    -0.00    -0.00    -0.00    -0.00     0.00
eigval :        6.07     9.04    12.19    24.46    29.77    34.09
eigval :       36.46    39.98    40.87    42.15    48.87    52.10
eigval :       54.18    62.00    76.28    82.78    94.17   102.15
eigval :      108.27   115.08   128.68   138.26   160.17   166.31
eigval :      181.81   199.85   210.24   225.58   229.61   246.21
eigval :      254.00   260.32   266.03   270.44   279.47   299.82
eigval :      316.10   342.80   345.19   366.56   367.93   370.13
eigval :      371.06   372.61   373.47   388.94   389.29   401.00
eigval :      410.17   417.36   427.85   446.23   449.45   461.81
eigval :      481.42   495.84   498.60   502.55   522.97   547.48
eigval :      552.16   581.38   582.22   586.73   587.17   588.41
eigval :      592.01   599.81   602.35   606.13   612.35   618.37
eigval :      624.51   626.08   632.30   633.82   646.96   658.01
eigval :      665.09   670.92   673.47   675.79   689.96   691.28
eigval :      703.93   707.75   710.46   726.50   738.07   749.27
eigval :      757.93   761.30   764.45   779.72   807.76   821.36
eigval :      826.28   830.68   837.08   844.52   845.51   860.63
eigval :      870.44   874.25   874.81   875.65   878.52   879.59
eigval :      881.09   885.15   893.75   902.33   904.30   904.80
eigval :      906.34   909.11   910.47   915.30   919.50   926.63
eigval :      928.93   930.35   931.29   931.56   931.95   932.32
eigval :      932.48   933.04   933.43   968.63   975.34   982.43
eigval :      989.30  1003.27  1026.28  1028.35  1067.26  1070.62
eigval :     1073.96  1076.29  1079.93  1085.84  1086.54  1089.90
eigval :     1105.23  1109.59  1111.34  1119.66  1121.92  1122.58
eigval :     1125.80  1142.21  1157.63  1170.82  1181.07  1181.68
eigval :     1182.51  1182.60  1188.43  1196.24  1200.70  1200.94
eigval :     1202.65  1205.82  1211.82  1220.01  1224.43  1231.93
eigval :     1248.64  1251.39  1268.36  1270.48  1272.64  1279.52
eigval :     1281.17  1281.91  1283.57  1288.33  1314.91  1319.05
eigval :     1319.39  1322.79  1323.49  1328.25  1331.37  1350.26
eigval :     1363.09  1363.60  1367.14  1389.05  1394.50  1407.08
eigval :     1409.95  1421.96  1427.22  1430.37  1432.36  1438.54
eigval :     1440.20  1451.74  1469.90  1471.55  1476.82  1478.87
eigval :     1485.43  1493.74  1500.51  1518.81  1533.24  1559.42
eigval :     1564.69  1571.30  1582.71  1582.82  1583.76  1586.17
eigval :     1587.23  1594.42  1596.59  1597.70  1598.24  1601.73
eigval :     1609.63  1611.63  1638.57  3069.76  3070.47  3070.64
eigval :     3070.73  3071.62  3072.49  3074.19  3076.76  3076.95
eigval :     3078.80  3079.67  3079.82  3082.55  3082.76  3083.96
eigval :     3084.51  3085.67  3086.29  3086.77  3087.83  3088.44
eigval :     3090.00  3090.85  3091.41  3091.49  3092.01  3095.12
eigval :     3097.70  3103.05  3103.17  3104.97  3105.53  3109.85

   temp. (K)  partition function   enthalpy   heat capacity  entropy
                                   cal/mol     cal/K/mol   cal/K/mol   J/K/mol
 298.15  VIB  0.465E+21            25153.906    157.241    158.442
         ROT  0.241E+09              888.752      2.981     41.340
         INT  0.112E+30            26042.659    160.222    199.782
         TR   0.179E+29             1481.254      4.968     45.497
         TOT                       27523.9128   165.1900   245.2791  1026.2476

       T/K    H(0)-H(T)+PV         H(T)/Eh          T*S/Eh         G(T)/Eh
   ------------------------------------------------------------------------
    298.15    0.438621E-01    0.717579E+00    0.116540E+00    0.601039E+00
   ------------------------------------------------------------------------

         :::::::::::::::::::::::::::::::::::::::::::::::::::::
         ::                  THERMODYNAMIC                  ::
         :::::::::::::::::::::::::::::::::::::::::::::::::::::
         :: total free energy        -136.377893158140 Eh   ::
         ::.................................................::
         :: total energy             -136.978932388247 Eh   ::
         :: zero point energy           0.673717078443 Eh   ::
         :: G(RRHO) w/o ZPVE           -0.072677848336 Eh   ::
         :: G(RRHO) contrib.            0.601039230108 Eh   ::
         :::::::::::::::::::::::::::::::::::::::::::::::::::::

           -------------------------------------------------
          | TOTAL ENERGY             -136.978932388247 Eh   |
          | TOTAL ENTHALPY           -136.261353162854 Eh   |
          | TOTAL FREE ENERGY        -136.377893158140 Eh   |
          | GRADIENT NORM               0.000072759211 Eh/α |
          | HOMO-LUMO GAP               2.126151599727 eV   |
           -------------------------------------------------

 * finished run on 2025/07/17 at 06:21:17.432
