   * xtb version 6.7.1 (edcfbbe) compiled by 'albert@albert-system' on 2024-07-22

   ID    Z sym.   atoms
    1    6 C      1-37, 39-45, 47-51, 53-55
    2    7 N      38, 46, 52
    3    1 H      56-88

          program call               : xtb data2507/gas/PhICz-Pyr/PhICz-Pyr.xyz --gfn 2 --ohess vtight --parallel 40 --molden --ceasefiles --namespace data2507/gas/PhICz-Pyr/PhICz-Pyr_gas_S0_preOpt
          :  Hamiltonian                  GFN2-xTB          :
 * total energy  :  -136.9441209 Eh     change       -0.1800117E-08 Eh
 * total energy  :  -136.9674358 Eh     change       -0.2331487E-01 Eh
 * total energy  :  -136.9740234 Eh     change       -0.6587641E-02 Eh
 * total energy  :  -136.9757611 Eh     change       -0.1737706E-02 Eh
 * total energy  :  -136.9766124 Eh     change       -0.8512614E-03 Eh
 * total energy  :  -136.9769495 Eh     change       -0.3370878E-03 Eh
 * total energy  :  -136.9772201 Eh     change       -0.2705860E-03 Eh
 * total energy  :  -136.9774765 Eh     change       -0.2564790E-03 Eh
 * total energy  :  -136.9777574 Eh     change       -0.2808885E-03 Eh
 * total energy  :  -136.9780489 Eh     change       -0.2915154E-03 Eh
 * total energy  :  -136.9789098 Eh     change       -0.9841217E-06 Eh
 * total energy  :  -136.9789107 Eh     change       -0.9054309E-06 Eh
 * total energy  :  -136.9789114 Eh     change       -0.7463364E-06 Eh
 * total energy  :  -136.9789120 Eh     change       -0.6030193E-06 Eh
 * total energy  :  -136.9789125 Eh     change       -0.4872399E-06 Eh
 * total energy  :  -136.9789130 Eh     change       -0.5045986E-06 Eh
 * total energy  :  -136.9789136 Eh     change       -0.5320758E-06 Eh
 * total energy  :  -136.9789140 Eh     change       -0.4774104E-06 Eh
 * total energy  :  -136.9789140 Eh     change       -0.2443727E-08 Eh
   *** GEOMETRY OPTIMIZATION CONVERGED AFTER 68 ITERATIONS ***

 final structure:
================
88
 xtb: 6.7.1 (edcfbbe)
C           12.01295538037115       -3.50397364588222       -0.51419606954185
C           11.58595107383154       -2.35787941951067       -1.16362460990811
C           10.26058800043785       -1.97166567305576       -1.09338132710882
C            9.33736618032779       -2.72880436361972       -0.37570026291492
C            7.92676527065376       -2.31804466382149       -0.30530151081413
C            6.91203452735235       -3.27171353892066       -0.42479830753606
C            5.57313862947979       -2.92789180310754       -0.37310541621815
C            5.24600397634461       -1.59757249269631       -0.19098507853977
C            6.26763689069466       -0.60326091012050       -0.06130019165576
C            7.59685742587942       -0.97696462661365       -0.12383940182755
C            5.61060994403757        0.68254314058880        0.11443471070058
C            5.85033422177317        2.03912271735527        0.29316681454789
C            4.75411773074242        2.91153873903886        0.41409231743803
C            5.02888438035720        4.34739883922837        0.60991599121019
C            5.99406766294790        4.99778195953225       -0.15487800260095
C            6.25030743736210        6.34373767216744        0.02951017698807
C            5.55006886214738        7.06185874444059        0.98415411122280
C            4.58944550414721        6.42521699235181        1.75178746963735
C            4.32900518862827        5.08038947875555        1.56516428637193
C            3.41197767777789        2.49629379797998        0.36045083234928
C            3.13480491376910        1.14701262895631        0.17893523385983
C            2.04909179909805        0.18861030485211        0.04614175409592
C            0.67359889608890        0.32184220518418        0.05263889807629
C           -0.12768601159103       -0.80863109207765       -0.09170865870457
C           -1.59119381519072       -0.68107742956339       -0.09140670107735
C           -2.39209859392254       -1.59869792611264        0.58761520189510
C           -3.76476938215222       -1.47541653754368        0.58105045459741
C           -4.38388161230144       -0.43019597733136       -0.10425432313672
C           -5.84756809177517       -0.33553725992216       -0.09159342359066
C           -6.53249063441178        0.85687277345248       -0.32693323237496
C           -7.92536515695032        0.81078430096280       -0.29367796098021
C           -8.76352371935986        1.99178554919053       -0.54048058388962
C           -8.31392321694242        3.28209431865897       -0.27152677995593
C           -9.13008750918093        4.37004822398351       -0.52013268404523
C          -10.39977853774109        4.18560764321022       -1.04191952015541
C          -10.85764092213430        2.90442509686447       -1.30456396689365
C          -10.04789100628981        1.81447498524547       -1.05170246522972
N           -8.56606532171894       -0.33027478299723       -0.05266857422657
C           -7.83721561777915       -1.41601888800782        0.17972313879918
C           -8.55387970207283       -2.66303956056252        0.46467381855541
C           -9.93705520926045       -2.65495964224476        0.63080116602249
C          -10.60964585304006       -3.83096448425643        0.90140167578255
C           -9.91131967542650       -5.02344895658140        1.00816806304770
C           -8.53522021925807       -5.03736262479804        0.84319625790139
C           -7.85705545717574       -3.86452567061338        0.57293256756865
N           -6.51055913998230       -1.45947043276687        0.17300572688065
C           -3.58626661617312        0.48360775041025       -0.79020037850562
C           -2.21218321260778        0.35952971312207       -0.78029476810598
C            0.46548438629345       -2.06544785031773       -0.24409649690698
C            1.83845050426094       -2.22914801566235       -0.26589308670787
C            2.63397905561255       -1.10785827870605       -0.12127741354103
N            4.01192897447705       -0.97307385213547       -0.10226343468308
C            4.26507655868866        0.35132900796760        0.07377935997117
C            9.77786177161922       -3.88066839526948        0.27194828086374
C           11.10467880423459       -4.26278295625656        0.20473447282540
H           13.04894770981071       -3.80440463661106       -0.56802116595377
H           12.28909211428715       -1.76383613065325       -1.72946972456013
H            9.92992681429186       -1.08597666267475       -1.61653318995193
H            7.18271512274623       -4.30485571590613       -0.58459786741825
H            4.80689460805108       -3.68081991220320       -0.47660602172160
H            8.37370907982468       -0.23546279899753       -0.01146327856833
H            6.85128634881790        2.43743247295285        0.36285407642368
H            6.53199706380943        4.44663148261087       -0.91288946945531
H            6.99809739190721        6.83576312715823       -0.57565046767172
H            5.75216048219160        8.11284136060746        1.12932601593243
H            4.04262751341770        6.97897436382364        2.50136178232755
H            3.59044056016322        4.58510079869107        2.17912269261460
H            2.62808020632706        3.23413792198286        0.44153796460758
H            0.22433067601532        1.29395759173471        0.19102963730707
H           -1.92819433761932       -2.40232174614915        1.14083842383710
H           -4.38575266223352       -2.18078169737239        1.11112267462150
H           -6.00901012507269        1.77552829735835       -0.53034735645217
H           -7.33421602316275        3.43835040737948        0.15574899919937
H           -8.77496122887422        5.36718795161271       -0.30362330860315
H          -11.03232815028981        5.03878768295755       -1.23848911344725
H          -11.84930600924785        2.75721102424919       -1.70680791437792
H          -10.38941933141382        0.81016392338149       -1.24934383182342
H          -10.46413910286302       -1.71726970103342        0.54824005038546
H          -11.68224546688805       -3.82114726732069        1.03108949116590
H          -10.43950202726173       -5.94189416912084        1.22001323628218
H           -7.99203798043659       -5.96774741738157        0.92562865138634
H           -6.78679585961666       -3.85775183715495        0.43777775501436
H           -4.03865474328572        1.28245025664325       -1.35917644337071
H           -1.60861279821647        1.06305424412865       -1.33544357029348
H           -0.16879487400300       -2.92968928474137       -0.37343453366798
H            2.27422962014585       -3.20785596885923       -0.39561766910739
H            9.07787139257553       -4.46770715091695        0.84887622976288
H           11.43285862110386       -5.15558664259291        0.71722409574604

          :  Hamiltonian                  GFN2-xTB          :
         :: gradient norm              0.000038174421 Eh/a0 ::
         :: HOMO-LUMO gap              2.122924171360 eV    ::
         :: SCC energy              -139.593184065594 Eh    ::
         :: -> dispersion             -0.116998982693 Eh    ::
         :: repulsion energy           2.614270035166 Eh    ::

    * Orbital Energies and Occupations

         #    Occupation            Energy/Eh            Energy/eV
      -------------------------------------------------------------
         1        2.0000           -0.6877000             -18.7133
       ...           ...                  ...                  ...
       116        2.0000           -0.4044731             -11.0063
       117        2.0000           -0.4037431             -10.9864
       118        2.0000           -0.4028945             -10.9633
       119        2.0000           -0.4021829             -10.9440
       120        2.0000           -0.4015290             -10.9262
       121        2.0000           -0.4001710             -10.8892
       122        2.0000           -0.3938123             -10.7162
       123        2.0000           -0.3900068             -10.6126
       124        2.0000           -0.3895198             -10.5994
       125        2.0000           -0.3836292             -10.4391
       126        2.0000           -0.3798911             -10.3374
       127        2.0000           -0.3651934              -9.9374
       128        2.0000           -0.3541838              -9.6378 (HOMO)
       129                         -0.2761678              -7.5149 (LUMO)
       130                         -0.2671208              -7.2687
       131                         -0.2648934              -7.2081
       132                         -0.2456125              -6.6835
       133                         -0.2438742              -6.6362
       134                         -0.2339400              -6.3658
       135                         -0.2298864              -6.2555
       136                         -0.2257771              -6.1437
       137                         -0.2249006              -6.1199
       138                         -0.2216914              -6.0325
       139                         -0.2209215              -6.0116
       ...                                ...                  ...
       253                          0.7681918              20.9036
      -------------------------------------------------------------
                  HL-Gap            0.0780160 Eh            2.1229 eV

     #   Z          covCN         q      C6AA      α(0)
     1   6 C        2.920    -0.031    28.783     8.798
     2   6 C        2.918    -0.030    28.739     8.791
     3   6 C        2.925    -0.034    28.852     8.809
     4   6 C        2.978     0.011    27.776     8.645
     5   6 C        2.976     0.002    27.968     8.675
     6   6 C        2.928    -0.037    28.910     8.818
     7   6 C        2.907    -0.046    29.154     8.854
     8   6 C        3.088     0.048    26.816     8.488
     9   6 C        3.111    -0.012    28.155     8.693
    10   6 C        2.917    -0.036    28.902     8.816
    11   6 C        3.019    -0.017    28.414     8.744
    12   6 C        2.939    -0.036    28.897     8.816
    13   6 C        2.978    -0.000    28.034     8.685
    14   6 C        2.980     0.011    27.765     8.643
    15   6 C        2.925    -0.035    28.861     8.810
    16   6 C        2.919    -0.030    28.744     8.792
    17   6 C        2.920    -0.032    28.792     8.799
    18   6 C        2.919    -0.030    28.744     8.792
    19   6 C        2.925    -0.035    28.862     8.810
    20   6 C        2.939    -0.036    28.901     8.817
    21   6 C        3.019    -0.018    28.423     8.745
    22   6 C        3.111    -0.012    28.150     8.692
    23   6 C        2.917    -0.036    28.896     8.815
    24   6 C        2.976     0.002    27.977     8.676
    25   6 C        2.978     0.014    27.705     8.634
    26   6 C        2.923    -0.034    28.842     8.807
    27   6 C        2.924    -0.025    28.636     8.776
    28   6 C        2.980     0.001    27.991     8.679
    29   6 C        2.967     0.110    25.579     8.296
    30   6 C        2.912    -0.066    29.651     8.929
    31   6 C        2.969     0.110    25.580     8.296
    32   6 C        2.980     0.005    27.912     8.666
    33   6 C        2.923    -0.031    28.775     8.797
    34   6 C        2.919    -0.029    28.724     8.789
    35   6 C        2.920    -0.027    28.674     8.781
    36   6 C        2.918    -0.028    28.691     8.784
    37   6 C        2.926    -0.024    28.606     8.771
    38   7 N        1.850    -0.272    27.912     7.830
    39   6 C        2.946     0.181    24.121     8.055
    40   6 C        2.985     0.002    27.980     8.677
    41   6 C        2.924    -0.027    28.670     8.781
    42   6 C        2.918    -0.029    28.718     8.788
    43   6 C        2.920    -0.027    28.665     8.780
    44   6 C        2.918    -0.029    28.720     8.788
    45   6 C        2.924    -0.027    28.670     8.781
    46   7 N        1.850    -0.272    27.908     7.830
    47   6 C        2.921    -0.032    28.798     8.800
    48   6 C        2.924    -0.035    28.868     8.811
    49   6 C        2.928    -0.036    28.901     8.816
    50   6 C        2.907    -0.046    29.148     8.853
    51   6 C        3.088     0.049    26.797     8.485
    52   7 N        2.832    -0.030    21.826     6.939
    53   6 C        3.476     0.035    21.935     7.010
    54   6 C        2.925    -0.034    28.856     8.809
    55   6 C        2.919    -0.030    28.740     8.791
    56   1 H        0.926     0.029     2.601     2.522
    57   1 H        0.926     0.029     2.598     2.521
    58   1 H        0.926     0.031     2.579     2.511
    59   1 H        0.926     0.036     2.508     2.476
    60   1 H        0.926     0.032     2.555     2.500
    61   1 H        0.926     0.037     2.485     2.465
    62   1 H        0.926     0.035     2.520     2.483
    63   1 H        0.926     0.030     2.587     2.515
    64   1 H        0.926     0.029     2.603     2.523
    65   1 H        0.926     0.029     2.606     2.525
    66   1 H        0.926     0.029     2.604     2.523
    67   1 H        0.926     0.030     2.587     2.515
    68   1 H        0.926     0.034     2.527     2.486
    69   1 H        0.926     0.037     2.488     2.467
    70   1 H        0.926     0.035     2.511     2.478
    71   1 H        0.926     0.054     2.274     2.358
    72   1 H        0.926     0.032     2.561     2.503
    73   1 H        0.926     0.032     2.560     2.502
    74   1 H        0.926     0.032     2.554     2.499
    75   1 H        0.926     0.033     2.541     2.493
    76   1 H        0.926     0.035     2.523     2.484
    77   1 H        0.926     0.053     2.289     2.366
    78   1 H        0.926     0.054     2.276     2.359
    79   1 H        0.926     0.033     2.544     2.494
    80   1 H        0.926     0.032     2.553     2.498
    81   1 H        0.926     0.033     2.547     2.495
    82   1 H        0.926     0.053     2.283     2.363
    83   1 H        0.926     0.032     2.560     2.502
    84   1 H        0.926     0.034     2.534     2.489
    85   1 H        0.926     0.037     2.492     2.468
    86   1 H        0.926     0.033     2.543     2.494
    87   1 H        0.926     0.030     2.583     2.513
    88   1 H        0.926     0.029     2.599     2.521

molecular dipole:
                 x           y           z       tot (Debye)
 q only:        0.292      -0.003      -0.065
   full:        0.481       0.287      -0.162       1.482

 projected vibrational frequencies (cm⁻¹)
eigval :       -0.00    -0.00    -0.00    -0.00     0.00     0.00
eigval :        5.92     9.19    12.19    24.51    29.64    34.04
eigval :       36.46    40.04    40.92    42.17    48.79    52.10
eigval :       54.18    61.58    76.03    83.00    93.75   102.17
eigval :      108.20   114.94   129.10   138.05   160.05   166.39
eigval :      181.87   199.46   210.23   225.69   229.39   246.14
eigval :      254.05   260.33   265.93   270.47   279.37   299.77
eigval :      316.24   342.89   345.45   366.52   367.89   370.13
eigval :      370.77   372.63   373.48   389.06   389.20   400.88
eigval :      410.29   417.53   427.79   445.99   449.49   461.76
eigval :      481.38   495.78   498.85   502.55   522.98   547.35
eigval :      552.09   581.37   582.23   586.74   587.19   588.42
eigval :      592.00   599.82   602.32   606.26   612.29   618.24
eigval :      624.22   625.99   632.46   633.82   646.94   658.01
eigval :      665.01   670.92   673.40   675.78   689.95   691.27
eigval :      703.95   707.73   710.45   726.52   737.88   749.28
eigval :      757.93   761.29   764.39   779.61   807.84   821.35
eigval :      826.02   830.68   836.57   844.38   845.52   860.61
eigval :      870.33   874.24   874.80   875.61   878.54   879.52
eigval :      881.10   885.16   893.76   902.35   904.30   904.78
eigval :      906.34   909.08   910.39   915.29   919.35   926.69
eigval :      928.92   930.35   931.29   931.51   931.89   932.32
eigval :      932.48   933.04   933.42   968.64   975.34   982.43
eigval :      989.30  1003.25  1026.32  1028.33  1067.32  1070.64
eigval :     1074.06  1076.27  1079.90  1085.85  1086.55  1089.88
eigval :     1105.17  1109.54  1111.32  1119.67  1121.94  1122.59
eigval :     1125.81  1142.18  1157.53  1170.71  1181.07  1181.68
eigval :     1182.52  1182.61  1188.39  1196.24  1200.73  1201.10
eigval :     1202.65  1205.77  1211.88  1220.05  1224.35  1231.85
eigval :     1248.55  1251.59  1268.37  1270.45  1272.59  1279.56
eigval :     1281.19  1281.91  1283.61  1288.39  1314.89  1319.06
eigval :     1319.40  1322.83  1323.50  1328.28  1331.41  1350.32
eigval :     1363.01  1363.58  1367.05  1389.04  1394.42  1407.07
eigval :     1409.96  1421.91  1427.21  1430.38  1432.35  1438.53
eigval :     1440.18  1451.71  1469.88  1471.56  1476.80  1478.86
eigval :     1485.42  1493.72  1500.47  1518.82  1533.19  1559.46
eigval :     1564.70  1571.33  1582.70  1582.82  1583.76  1586.19
eigval :     1587.26  1594.46  1596.62  1597.70  1598.25  1601.74
eigval :     1609.63  1611.66  1638.61  3069.77  3070.47  3070.66
eigval :     3070.74  3071.63  3072.48  3074.31  3076.75  3076.95
eigval :     3078.81  3079.51  3079.82  3082.56  3082.74  3083.96
eigval :     3084.47  3085.72  3086.30  3086.78  3087.83  3088.45
eigval :     3089.98  3090.87  3091.41  3091.50  3092.02  3095.05
eigval :     3097.63  3103.09  3103.66  3105.02  3105.64  3110.42

   temp. (K)  partition function   enthalpy   heat capacity  entropy
                                   cal/mol     cal/K/mol   cal/K/mol   J/K/mol
 298.15  VIB  0.476E+21            25156.111    157.237    158.472
         ROT  0.241E+09              888.752      2.981     41.340
         INT  0.115E+30            26044.864    160.218    199.811
         TR   0.179E+29             1481.254      4.968     45.497
         TOT                       27526.1175   165.1863   245.3085  1026.3708

       T/K    H(0)-H(T)+PV         H(T)/Eh          T*S/Eh         G(T)/Eh
   ------------------------------------------------------------------------
    298.15    0.438657E-01    0.717576E+00    0.116554E+00    0.601023E+00
   ------------------------------------------------------------------------

         :::::::::::::::::::::::::::::::::::::::::::::::::::::
         ::                  THERMODYNAMIC                  ::
         :::::::::::::::::::::::::::::::::::::::::::::::::::::
         :: total free energy        -136.377891526724 Eh   ::
         ::.................................................::
         :: total energy             -136.978914030432 Eh   ::
         :: zero point energy           0.673710827403 Eh   ::
         :: G(RRHO) w/o ZPVE           -0.072688323695 Eh   ::
         :: G(RRHO) contrib.            0.601022503708 Eh   ::
         :::::::::::::::::::::::::::::::::::::::::::::::::::::

           -------------------------------------------------
          | TOTAL ENERGY             -136.978914030432 Eh   |
          | TOTAL ENTHALPY           -136.261337542689 Eh   |
          | TOTAL FREE ENERGY        -136.377891526724 Eh   |
          | GRADIENT NORM               0.000038173467 Eh/α |
          | HOMO-LUMO GAP               2.122924142100 eV   |
           -------------------------------------------------

 * finished run on 2025/07/17 at 06:16:51.159
