   * xtb version 6.7.1 (edcfbbe) compiled by 'albert@albert-system' on 2024-07-22

   ID    Z sym.   atoms
    1    7 N      1, 5, 20, 22, 36, 50
    2    6 C      2-4, 6-19, 21, 23-35, 37-49, 51-62
    3    1 H      63-94

          program call               : xtb data2507/toluene/4CzIPN/4CzIPN_toluene_T1_crest.xyz --gfn 2 --uhf 2 --gbsa toluene --ohess vtight --parallel 40 --molden --ceasefiles --namespace data2507/toluene/4CzIPN/4CzIPN_toluene_T1_finalOpt
      * Solvation model:               GBSA
        Solvent                        toluene
        Solvent mass                       9.2140E+01 g/mol
          :  Hamiltonian                  GFN2-xTB          :
 * total energy  :  -153.8431516 Eh     change       -0.7476075E-08 Eh
 * total energy  :  -153.8433127 Eh     change       -0.1611513E-03 Eh
 * total energy  :  -153.8434000 Eh     change       -0.8731515E-04 Eh
 * total energy  :  -153.8434328 Eh     change       -0.3276691E-04 Eh
 * total energy  :  -153.8434577 Eh     change       -0.2492486E-04 Eh
 * total energy  :  -153.8434928 Eh     change       -0.3508519E-04 Eh
 * total energy  :  -153.8435194 Eh     change       -0.2656885E-04 Eh
 * total energy  :  -153.8435673 Eh     change       -0.4787182E-04 Eh
 * total energy  :  -153.8436197 Eh     change       -0.5247702E-04 Eh
 * total energy  :  -153.8436581 Eh     change       -0.3834459E-04 Eh
 * total energy  :  -153.8437941 Eh     change       -0.1177312E-06 Eh
 * total energy  :  -153.8437942 Eh     change       -0.1311280E-06 Eh
 * total energy  :  -153.8437942 Eh     change        0.4841831E-07 Eh
 * total energy  :  -153.8437943 Eh     change       -0.1099844E-06 Eh
 * total energy  :  -153.8437943 Eh     change        0.3072046E-08 Eh
 * total energy  :  -153.8437942 Eh     change        0.1751300E-07 Eh
 * total energy  :  -153.8437942 Eh     change        0.2404832E-07 Eh
 * total energy  :  -153.8437943 Eh     change       -0.9296073E-07 Eh
 * total energy  :  -153.8437944 Eh     change       -0.6161119E-07 Eh
   *** GEOMETRY OPTIMIZATION CONVERGED AFTER 35 ITERATIONS ***

 final structure:
================
94
 xtb: 6.7.1 (edcfbbe)
N            2.88514344006865       -3.17760562488119       -1.15023088129103
C            2.29385677649744       -2.26428331596809       -0.75683580210462
C            1.58082658186179       -1.15691558650073       -0.30739554684171
C            2.25007520561228        0.03119053626558        0.00625330289854
N            3.64813351765233        0.04950822851172        0.00751772262302
C            4.46442023577152       -0.76968428647037        0.76249246481881
C            4.12058517342945       -1.72590604727927        1.70647651316117
C            5.14572961527394       -2.39536161810273        2.34902214032135
C            6.47973475388744       -2.11145443678591        2.07193310760604
C            6.82763664336736       -1.13660481188720        1.15177801444252
C            5.81596773388332       -0.45584146799064        0.49357143287726
C            5.80298347743840        0.60472639254794       -0.48179091673337
C            6.79767769047375        1.30814917383027       -1.14203098339358
C            6.42600113379594        2.27429472584764       -2.06206578380877
C            5.08540409745617        2.52766834513556       -2.33686535671867
C            4.07693200779606        1.83512939151344       -1.69236804090644
C            4.44414380631081        0.88728641970494       -0.74874738142621
C            1.54856566888305        1.20087761989604        0.31810402647600
C            2.23071197500606        2.32667054348794        0.76993138013620
N            2.79680316672346        3.25482037375396        1.16546010617152
C            0.10118807200733        1.18338273636441        0.30185664232262
N           -0.59827501053294        2.33615712712068        0.68006423721148
C           -0.52070753098374        3.56177845240988        0.05430882350575
C            0.25749232325284        3.95047258508219       -1.02898942518056
C            0.12487152595724        5.24635739639101       -1.48840279083784
C           -0.76797311312473        6.13607844853303       -0.89476393859772
C           -1.55906315473741        5.74979924860921        0.17375102124987
C           -1.43998184959017        4.45545427213779        0.65435477760247
C           -2.08900226688229        3.72279786757324        1.70872997058213
C           -3.06100020352478        4.04616910473829        2.64249436107853
C           -3.44202175929330        3.08490249116758        3.56362096126702
C           -2.84610282734111        1.82658399576426        3.57730298615610
C           -1.87537072844042        1.48189708682945        2.65530640944656
C           -1.52342442262244        2.42598815701348        1.70084320017320
C           -0.56989326166716       -0.00630060625692        0.00178065226838
N           -1.97220464203628       -0.02522452280527       -0.00130499926462
C           -2.78919277431488        0.80636089843358       -0.74145708739386
C           -2.44888665274297        1.77397367261285       -1.67648455556643
C           -3.47477911169407        2.45559762539434       -2.30418682458569
C           -4.80853650585749        2.17031423624557       -2.02712996556851
C           -5.15350807076729        1.17565946000385       -1.12844765637878
C           -4.14058580757794        0.48337012772868       -0.48370725079634
C           -4.12782746758248       -0.60194333822264        0.46140316749460
C           -5.12420054866000       -1.32661713877601        1.09626148713938
C           -4.75620248126479       -2.31077975577349        1.99737179758975
C           -3.41672629824906       -2.55399866436203        2.28656575169245
C           -2.40722410722227       -1.83931215383242        1.66912489636207
C           -2.76936756675366       -0.88225275843926        0.73144242769257
C            0.13353603435466       -1.17771543554618       -0.29577659292355
N           -0.53379250892038       -2.34855986188211       -0.67655526940340
C           -0.42812847445421       -3.57111888843384       -0.04894760507339
C            0.35539685412215       -3.93886141270923        1.03781571146353
C            0.25353448234337       -5.23711700917789        1.49837572729490
C           -0.61463391002881       -6.14953706229396        0.90254321828473
C           -1.41097550896173       -5.78450979493335       -0.16950497869598
C           -1.32243224162971       -4.48816997543795       -0.65143565375137
C           -1.98548747945229       -3.77314271178473       -1.70918269021286
C           -2.94562112070492       -4.12155874867272       -2.64622975689890
C           -3.34674105391931       -3.17115304230417       -3.57004736528368
C           -2.78201986849425       -1.89852980169064       -3.58320136620397
C           -1.82377671441966       -1.52875764515152       -2.65785814766076
C           -1.45234502471464       -2.46269530833005       -1.70083244645334
H            3.08822669984654       -1.94183824352980        1.93554764402875
H            4.90426912072406       -3.15042999644902        3.08170485158618
H            7.25359626246046       -2.65604915798128        2.59114180553883
H            7.86273451910045       -0.90692478462774        0.95206045275749
H            7.83809654107160        1.10220574867494       -0.94411458747643
H            7.18634639632398        2.83610125063369       -2.58290948996970
H            4.82560956385950        3.27685488207400       -3.06931442854132
H            3.03949091925120        2.02718321742062       -1.91972633182971
H            0.94929114080585        3.26635389763342       -1.49715238193414
H            0.72474004460927        5.57422671213140       -2.32402065480470
H           -0.84310922796037        7.14181922592225       -1.27971091273035
H           -2.25607951194748        6.43983625273537        0.62369893350789
H           -3.50551688396557        5.02938311868851        2.65276545843793
H           -4.20031820116940        3.31728793287680        4.29588485412357
H           -3.14175433692673        1.10562945639901        4.32445616163443
H           -1.39622173243050        0.51572013297491        2.69214397388789
H           -1.41935143427412        1.98737959318323       -1.91943878596174
H           -3.23179030084088        3.22090214104990       -3.02581190004041
H           -5.58306624463603        2.72510728225325       -2.53455689059140
H           -6.18808038491702        0.93747743329428       -0.93589972152688
H           -6.16394193939816       -1.12117751972295        0.89421205798212
H           -5.51742543078043       -2.89057453433224        2.49693240766521
H           -3.15631451037988       -3.31240304107882        3.00939395949819
H           -1.37371478035173       -2.02013216475895        1.92151630878191
H            1.02791715149039       -3.23693054820456        1.50765652697428
H            0.85804227708630       -5.54883238981767        2.33681906655031
H           -0.66630623559824       -7.15630419244840        1.28865756691991
H           -2.08888869777716       -6.49230634260979       -0.62105419843367
H           -3.36546025994892       -5.11555453385864       -2.65707679714573
H           -4.09624647729391       -3.42313903399660       -4.30486311513377
H           -3.09243373330767       -1.18614679799146       -4.33256827941445
H           -1.36843452647312       -0.55109288870341       -2.69404412799844

          :  Hamiltonian                  GFN2-xTB          :
         :: gradient norm              0.000182386773 Eh/a0 ::
         :: HOMO-LUMO gap              0.357948704038 eV    ::
         :: SCC energy              -156.774234428702 Eh    ::
         :: -> dispersion             -0.168453702032 Eh    ::
         :: -> Gsolv                  -0.066641265426 Eh    ::
         :: repulsion energy           2.930439989777 Eh    ::

    * Orbital Energies and Occupations

         #    Occupation            Energy/Eh            Energy/eV
      -------------------------------------------------------------
         1        2.0000           -0.6977594             -18.9870
       ...           ...                  ...                  ...
       132        2.0000           -0.4182099             -11.3801
       133        2.0000           -0.4178584             -11.3705
       134        2.0000           -0.4173000             -11.3553
       135        2.0000           -0.4140738             -11.2675
       136        2.0000           -0.3964346             -10.7875
       137        2.0000           -0.3947547             -10.7418
       138        2.0000           -0.3927514             -10.6873
       139        2.0000           -0.3917417             -10.6598
       140        1.9997           -0.3855027             -10.4901
       141        1.9753           -0.3814236             -10.3791
       142        1.7132           -0.3787955             -10.3076
       143        1.3118           -0.3771781             -10.2635
       144        0.9990           -0.2877490              -7.8300 (HOMO)
       145        0.0010           -0.2745944              -7.4721 (LUMO)
       146                         -0.2608458              -7.0980
       147                         -0.2597410              -7.0679
       148                         -0.2581224              -7.0239
       149                         -0.2580711              -7.0225
       150                         -0.2417622              -6.5787
       151                         -0.2384618              -6.4889
       152                         -0.2365773              -6.4376
       153                         -0.2341415              -6.3713
       154                         -0.2224031              -6.0519
       155                         -0.2129023              -5.7934
       ...                                ...                  ...
       280                          1.1522574              31.3545
      -------------------------------------------------------------
                  HL-Gap            0.0131545 Eh            0.3580 eV

     #   Z          covCN         q      C6AA      α(0)
     1   7 N        0.911    -0.337    28.657     7.742
     2   6 C        1.911     0.112    28.331     8.596
     3   6 C        2.965    -0.040    28.986     8.831
     4   6 C        2.922     0.069    26.455     8.435
     5   7 N        2.805    -0.039    21.996     6.966
     6   6 C        3.072     0.054    26.713     8.474
     7   6 C        2.910    -0.040    28.984     8.828
     8   6 C        2.923    -0.029    28.737     8.791
     9   6 C        2.920    -0.032    28.791     8.799
    10   6 C        2.912    -0.028    28.708     8.786
    11   6 C        3.066    -0.011    28.229     8.712
    12   6 C        3.066    -0.011    28.229     8.712
    13   6 C        2.912    -0.028    28.708     8.786
    14   6 C        2.920    -0.032    28.792     8.799
    15   6 C        2.923    -0.030    28.737     8.791
    16   6 C        2.910    -0.040    28.985     8.828
    17   6 C        3.072     0.054    26.714     8.475
    18   6 C        2.965    -0.040    28.985     8.831
    19   6 C        1.911     0.112    28.331     8.596
    20   7 N        0.911    -0.336    28.653     7.742
    21   6 C        2.910     0.008    27.839     8.652
    22   7 N        2.799    -0.030    21.823     6.938
    23   6 C        3.077     0.053    26.742     8.478
    24   6 C        2.910    -0.039    28.962     8.825
    25   6 C        2.922    -0.031    28.772     8.796
    26   6 C        2.920    -0.033    28.813     8.802
    27   6 C        2.912    -0.029    28.728     8.789
    28   6 C        3.066    -0.013    28.276     8.719
    29   6 C        3.066    -0.015    28.313     8.725
    30   6 C        2.912    -0.029    28.733     8.790
    31   6 C        2.920    -0.034    28.856     8.809
    32   6 C        2.923    -0.032    28.805     8.801
    33   6 C        2.910    -0.045    29.108     8.847
    34   6 C        3.077     0.048    26.847     8.495
    35   6 C        2.902     0.044    27.023     8.524
    36   7 N        2.804    -0.031    21.839     6.941
    37   6 C        3.074     0.050    26.799     8.488
    38   6 C        2.910    -0.044    29.082     8.843
    39   6 C        2.923    -0.031    28.762     8.795
    40   6 C        2.920    -0.033    28.815     8.803
    41   6 C        2.913    -0.029    28.718     8.788
    42   6 C        3.067    -0.013    28.260     8.717
    43   6 C        3.067    -0.013    28.261     8.717
    44   6 C        2.913    -0.029    28.718     8.788
    45   6 C        2.920    -0.033    28.815     8.803
    46   6 C        2.923    -0.031    28.763     8.795
    47   6 C        2.910    -0.044    29.081     8.843
    48   6 C        3.074     0.050    26.800     8.488
    49   6 C        2.910     0.008    27.838     8.652
    50   7 N        2.799    -0.030    21.825     6.938
    51   6 C        3.077     0.053    26.741     8.478
    52   6 C        2.910    -0.039    28.962     8.825
    53   6 C        2.922    -0.031    28.772     8.796
    54   6 C        2.920    -0.033    28.813     8.802
    55   6 C        2.912    -0.029    28.729     8.789
    56   6 C        3.066    -0.013    28.276     8.719
    57   6 C        3.066    -0.015    28.314     8.725
    58   6 C        2.912    -0.029    28.733     8.790
    59   6 C        2.920    -0.034    28.856     8.809
    60   6 C        2.923    -0.032    28.805     8.801
    61   6 C        2.910    -0.045    29.107     8.847
    62   6 C        3.077     0.048    26.847     8.495
    63   1 H        0.926     0.025     2.658     2.550
    64   1 H        0.926     0.047     2.364     2.404
    65   1 H        0.926     0.049     2.327     2.385
    66   1 H        0.926     0.051     2.311     2.377
    67   1 H        0.926     0.051     2.311     2.377
    68   1 H        0.926     0.049     2.327     2.385
    69   1 H        0.926     0.047     2.364     2.404
    70   1 H        0.926     0.025     2.658     2.550
    71   1 H        0.926     0.022     2.698     2.569
    72   1 H        0.926     0.042     2.421     2.433
    73   1 H        0.926     0.045     2.381     2.413
    74   1 H        0.926     0.046     2.365     2.405
    75   1 H        0.926     0.046     2.376     2.411
    76   1 H        0.926     0.044     2.399     2.422
    77   1 H        0.926     0.041     2.440     2.443
    78   1 H        0.926     0.028     2.616     2.529
    79   1 H        0.926     0.028     2.616     2.529
    80   1 H        0.926     0.042     2.420     2.432
    81   1 H        0.926     0.046     2.374     2.409
    82   1 H        0.926     0.048     2.350     2.397
    83   1 H        0.926     0.048     2.350     2.397
    84   1 H        0.926     0.046     2.374     2.410
    85   1 H        0.926     0.042     2.420     2.433
    86   1 H        0.926     0.028     2.616     2.529
    87   1 H        0.926     0.022     2.697     2.568
    88   1 H        0.926     0.042     2.421     2.433
    89   1 H        0.926     0.045     2.381     2.413
    90   1 H        0.926     0.046     2.364     2.405
    91   1 H        0.926     0.046     2.376     2.410
    92   1 H        0.926     0.044     2.398     2.422
    93   1 H        0.926     0.041     2.440     2.443
    94   1 H        0.926     0.028     2.617     2.530

molecular dipole:
                 x           y           z       tot (Debye)
 q only:       -2.635      -0.038      -0.008
   full:       -2.849      -0.040      -0.008       7.243

 projected vibrational frequencies (cm⁻¹)
eigval :       -0.00    -0.00     0.00     0.00     0.00     0.00
eigval :       14.44    20.00    21.14    22.50    24.67    26.51
eigval :       27.10    42.58    47.72    54.21    54.49    59.65
eigval :       85.18    85.31   103.73   104.93   105.79   109.68
eigval :      111.84   120.13   121.39   124.99   131.05   143.98
eigval :      145.47   148.59   153.36   161.21   174.77   188.73
eigval :      197.72   210.06   230.59   244.53   256.36   266.31
eigval :      268.80   270.07   272.30   276.02   279.40   288.81
eigval :      342.99   354.36   361.44   372.17   380.02   392.57
eigval :      393.78   397.39   405.57   415.35   418.49   418.90
eigval :      420.31   423.09   426.46   431.11   431.91   434.16
eigval :      439.37   447.45   486.07   506.11   513.47   513.79
eigval :      514.43   516.51   521.86   526.68   533.85   535.06
eigval :      536.09   537.23   537.67   540.77   542.57   550.25
eigval :      570.36   577.33   584.44   585.35   586.60   587.86
eigval :      600.44   607.06   630.10   639.83   641.52   662.20
eigval :      670.05   671.18   672.61   673.91   705.86   706.69
eigval :      707.76   708.57   723.30   727.48   733.37   752.02
eigval :      754.04   756.02   757.08   760.63   761.93   764.87
eigval :      769.87   771.39   772.48   774.08   780.38   803.12
eigval :      858.75   859.77   864.93   865.93   867.54   867.99
eigval :      876.07   876.32   885.67   887.25   890.70   891.99
eigval :      896.11   897.34   899.78   899.90   900.46   900.56
eigval :      901.34   906.48   907.43   912.65   913.83   916.59
eigval :      916.96   917.14   917.83   922.65   923.42   957.55
eigval :     1001.34  1008.52  1011.00  1012.36  1012.83  1062.59
eigval :     1064.67  1064.85  1065.69  1066.76  1068.84  1069.27
eigval :     1069.86  1070.40  1073.29  1110.24  1136.32  1136.92
eigval :     1139.20  1140.46  1142.05  1147.74  1158.44  1163.97
eigval :     1172.83  1173.20  1173.79  1174.67  1174.81  1176.45
eigval :     1177.54  1179.50  1192.00  1213.42  1219.60  1223.92
eigval :     1224.51  1227.68  1228.07  1229.98  1241.44  1265.36
eigval :     1266.40  1274.94  1275.75  1281.44  1286.63  1287.00
eigval :     1290.23  1292.60  1294.70  1324.01  1333.00  1333.29
eigval :     1336.75  1340.86  1344.65  1349.91  1360.61  1361.88
eigval :     1362.29  1363.33  1383.38  1401.87  1404.61  1406.79
eigval :     1407.06  1410.25  1410.70  1414.04  1422.80  1427.30
eigval :     1441.07  1441.74  1457.75  1458.97  1459.66  1460.77
eigval :     1479.26  1479.91  1480.01  1481.01  1558.85  1559.06
eigval :     1566.16  1567.35  1573.00  1573.23  1574.65  1575.27
eigval :     1579.62  1580.89  1581.48  1583.49  1594.66  1595.31
eigval :     1599.46  1604.47  2231.38  2302.48  3078.47  3078.87
eigval :     3081.74  3082.81  3083.25  3083.43  3083.52  3083.71
eigval :     3084.66  3084.92  3087.11  3087.75  3087.96  3088.16
eigval :     3088.80  3089.53  3091.43  3091.76  3094.14  3094.37
eigval :     3094.62  3095.50  3095.61  3096.70  3099.56  3099.84
eigval :     3100.73  3101.37  3101.57  3101.66  3102.22  3103.65

   temp. (K)  partition function   enthalpy   heat capacity  entropy
                                   cal/mol     cal/K/mol   cal/K/mol   J/K/mol
 298.15  VIB  0.130E+22            28323.981    180.186    174.253
         ROT  0.473E+08              888.752      2.981     38.102
         INT  0.613E+29            29212.733    183.167    212.354
         TR   0.214E+29             1481.254      4.968     45.854
         TOT                       30693.9871   188.1352   258.2083  1080.3433

       T/K    H(0)-H(T)+PV         H(T)/Eh          T*S/Eh         G(T)/Eh
   ------------------------------------------------------------------------
    298.15    0.489140E-01    0.745222E+00    0.122683E+00    0.622539E+00
   ------------------------------------------------------------------------

         :::::::::::::::::::::::::::::::::::::::::::::::::::::
         ::                  THERMODYNAMIC                  ::
         :::::::::::::::::::::::::::::::::::::::::::::::::::::
         :: total free energy        -153.221255335005 Eh   ::
         ::.................................................::
         :: total energy             -153.843794439720 Eh   ::
         :: zero point energy           0.696308197510 Eh   ::
         :: G(RRHO) w/o ZPVE           -0.073769092795 Eh   ::
         :: G(RRHO) contrib.            0.622539104715 Eh   ::
         :::::::::::::::::::::::::::::::::::::::::::::::::::::

           -------------------------------------------------
          | TOTAL ENERGY             -153.843794439720 Eh   |
          | TOTAL ENTHALPY           -153.098572260178 Eh   |
          | TOTAL FREE ENERGY        -153.221255335005 Eh   |
          | GRADIENT NORM               0.000184240414 Eh/α |
          | HOMO-LUMO GAP               0.357952494799 eV   |
           -------------------------------------------------

 * finished run on 2025/07/16 at 16:20:39.815
