   * xtb version 6.7.1 (edcfbbe) compiled by 'albert@albert-system' on 2024-07-22

   ID    Z sym.   atoms
    1    7 N      1, 5, 20, 22, 36, 50
    2    6 C      2-4, 6-19, 21, 23-35, 37-49, 51-62
    3    1 H      63-94

          program call               : xtb data2507/toluene/4CzIPN/4CzIPN_toluene_S0_finalOpt.xtbopt.xyz --gfn 2 --uhf 2 --gbsa toluene --ohess vtight --parallel 40 --molden --ceasefiles --namespace data2507/toluene/4CzIPN/4CzIPN_toluene_T1_preOpt
      * Solvation model:               GBSA
        Solvent                        toluene
        Solvent mass                       9.2140E+01 g/mol
          :  Hamiltonian                  GFN2-xTB          :
 * total energy  :  -153.8391686 Eh     change       -0.5369429E-09 Eh
 * total energy  :  -153.8423430 Eh     change       -0.3174397E-02 Eh
 * total energy  :  -153.8433201 Eh     change       -0.9770786E-03 Eh
 * total energy  :  -153.8434120 Eh     change       -0.9193180E-04 Eh
 * total energy  :  -153.8434857 Eh     change       -0.7373071E-04 Eh
 * total energy  :  -153.8435086 Eh     change       -0.2282661E-04 Eh
 * total energy  :  -153.8435383 Eh     change       -0.2979219E-04 Eh
 * total energy  :  -153.8435578 Eh     change       -0.1946374E-04 Eh
 * total energy  :  -153.8435784 Eh     change       -0.2054733E-04 Eh
 * total energy  :  -153.8435944 Eh     change       -0.1608655E-04 Eh
 * total energy  :  -153.8437931 Eh     change       -0.1785176E-06 Eh
 * total energy  :  -153.8437933 Eh     change       -0.1476013E-06 Eh
 * total energy  :  -153.8437934 Eh     change       -0.1361671E-06 Eh
 * total energy  :  -153.8437936 Eh     change       -0.1596956E-06 Eh
 * total energy  :  -153.8437937 Eh     change       -0.1659930E-06 Eh
 * total energy  :  -153.8437939 Eh     change       -0.1358681E-06 Eh
 * total energy  :  -153.8437940 Eh     change       -0.1143364E-06 Eh
 * total energy  :  -153.8437941 Eh     change       -0.1402911E-06 Eh
 * total energy  :  -153.8437941 Eh     change       -0.2115968E-08 Eh
   *** GEOMETRY OPTIMIZATION CONVERGED AFTER 44 ITERATIONS ***

 final structure:
================
94
 xtb: 6.7.1 (edcfbbe)
N            2.80624784844988       -3.23821960428788       -1.18484216700265
C            2.23725507865570       -2.31470740593769       -0.78252171206354
C            1.55155540067955       -1.19444868040283       -0.32251631691009
C            2.24957673221300       -0.02501527147180       -0.00185781068684
N            3.64770449301974       -0.03940553363971       -0.00325650789142
C            4.44601940327645       -0.88064916407096        0.74658070626107
C            4.08136890168110       -1.83488460390212        1.68472627478059
C            5.09165990131918       -2.53038245692408        2.32313739441693
C            6.43151688421059       -2.27367160351771        2.04777972547639
C            6.80061642935685       -1.30098122247248        1.13361352379020
C            5.80407345324288       -0.59441379720474        0.47951963176706
C            5.81406786169209        0.47250861500747       -0.48896099679163
C            6.82365837089420        1.15923617388919       -1.14419219904401
C            6.47284841651118        2.13925381095229       -2.05773429964487
C            5.13800354858704        2.42244651822286       -2.33147435268552
C            4.11488922655489        1.74713133266622       -1.69183189114549
C            4.46163914733811        0.78576799722447       -0.75418331733719
C            1.57679184393566        1.15872730071220        0.32023490188959
C            2.28686367232516        2.26422743816808        0.77895624286447
N            2.87606040054887        3.17546231554377        1.18015383756719
C            0.12942102555540        1.17590000382423        0.30725401134882
N           -0.54110735482085        2.34302610551530        0.69362510042700
C           -0.43444950410879        3.56987531965782        0.07444631699804
C            0.35261786660299        3.94570591075786       -1.00697798297952
C            0.25154756083380        5.24705491694859       -1.45890221448440
C           -0.61943428596131        6.15473812375641       -0.85997876919985
C           -1.41991602071133        5.78149056262242        0.20615674120643
C           -1.33218821607895        4.48191762843061        0.67939011897155
C           -1.99918189713591        3.75898123751894        1.72921997700997
C           -2.96464004829091        4.09984458103076        2.66353943483945
C           -3.36951102049037        3.14263498687100        3.57866733916108
C           -2.80289122172034        1.87080957511115        3.58635930239131
C           -1.83916872813980        1.50863508134637        2.66371675287390
C           -1.46431384783528        2.44926558489751        1.71458622413406
C           -0.57054105935435        0.00457095377347        0.00091474565767
N           -1.97288447012260        0.01929184953521        0.00255390658127
C           -2.77194027752473        0.87847568693717       -0.72556804367032
C           -2.41171134191850        1.84362731455187       -1.65568187894264
C           -3.42278134149164        2.55874997657106       -2.27002456618897
C           -4.76186659437287        2.30825840945010       -1.98520747526318
C           -5.12776774115123        1.31625087292487       -1.09188024825347
C           -4.12982464066596        0.59090945433508       -0.46026481532208
C           -4.14021549127645       -0.50131233747126        0.47689233999380
C           -5.15164718168319       -1.20241573259245        1.11441520163258
C           -4.80452535922385       -2.20226210781310        2.00649441991175
C           -3.47021062428416       -2.48413545786474        2.28433777094999
C           -2.44580245654752       -1.79373445137180        1.66383959043683
C           -2.78809002871543       -0.82081882881782        0.73504472048986
C            0.10413104619450       -1.18116231098279       -0.30673093364959
N           -0.59167870572269       -2.33354417914981       -0.69268633807961
C           -0.51012665863753       -3.56301403722491       -0.07491644307014
C            0.27040084029491       -3.95666467724377        1.00490745191685
C            0.14201019255782       -5.25594377982827        1.45587911102766
C           -0.74909183946749       -6.14422103091036        0.85746022961989
C           -1.54266781954049       -5.75303527384748       -0.20740204615706
C           -1.42775372142309       -4.45522335527370       -0.67962413076233
C           -2.08019478852443       -3.71745943531367       -1.72828494097836
C           -3.05306319065062       -4.03718752395758       -2.66240779321089
C           -3.43811784419632       -3.07091858522639       -3.57657605574815
C           -2.84508328729700       -1.81118044695115       -3.58334004303512
C           -1.87349021759593       -1.47011705144821       -2.66091260532267
C           -1.51787780629444       -2.41930524093740       -1.71289258502122
H            3.04445958359118       -2.02940526450726        1.91245717715984
H            4.83394504164610       -3.28459358697289        3.05114969688170
H            7.19335131656448       -2.83803606039609        2.56365579965577
H            7.84049649888975       -1.09255419899324        0.93547272976805
H            7.85943911544292        0.93017316981890       -0.94732134058413
H            7.24508698373098        2.68849271373165       -2.57446294324952
H            4.89430659748436        3.18156158518573       -3.05921957448296
H            3.08180841553726        1.96233875820322       -1.91833310687100
H            1.02723687320124        3.24755237679400       -1.47939306684599
H            0.85914021081360        5.56502840681041       -2.29274581397846
H           -0.67018642450027        7.16420067704496       -1.23911426741732
H           -2.10027320831492        6.48551065481949        0.65992938050636
H           -3.38602549598206        5.09312794204907        2.67870634912959
H           -4.12360955109399        3.38850086626593        4.31085559615591
H           -3.11630745272191        1.15286966387559        4.32915179420016
H           -1.38247466407683        0.53148024303707        2.69606999090891
H           -1.37842702701315        2.03034269098403       -1.90472368602525
H           -3.16389724737664        3.32321285955176       -2.98700107187227
H           -5.52438078730110        2.88859273001841       -2.48216404999057
H           -6.16709696410303        1.10537871699874       -0.89335267148672
H           -6.18678056020499       -0.96706587761023        0.92144339118523
H           -5.57785413867207       -2.76390766217050        2.50818475204228
H           -3.22558787458957       -3.25372024818664        3.00084338616923
H           -1.41591286960286       -2.00462126431065        1.90755445391139
H            0.96081016083331       -3.27371509695234        1.47678131504506
H            0.74388173784625       -5.58766297134488        2.28851999785995
H           -0.82088407986497       -7.15271470378383        1.23578686091028
H           -2.23838684009574       -6.44195961752322       -0.66103815870784
H           -3.49523135875342       -5.02138471275248       -2.67820902146618
H           -4.19736637746550       -3.30031496421688       -4.30879723710995
H           -3.14376232827822       -1.08612912652042       -4.32530102745170
H           -1.39652341072861       -0.50267888007260       -2.69256932088542

          :  Hamiltonian                  GFN2-xTB          :
         :: gradient norm              0.000060738423 Eh/a0 ::
         :: HOMO-LUMO gap              0.357745287124 eV    ::
         :: SCC energy              -156.774206208830 Eh    ::
         :: -> dispersion             -0.168510597531 Eh    ::
         :: -> Gsolv                  -0.066628125628 Eh    ::
         :: repulsion energy           2.930412086271 Eh    ::

    * Orbital Energies and Occupations

         #    Occupation            Energy/Eh            Energy/eV
      -------------------------------------------------------------
         1        2.0000           -0.6977623             -18.9871
       ...           ...                  ...                  ...
       132        2.0000           -0.4182065             -11.3800
       133        2.0000           -0.4178736             -11.3709
       134        2.0000           -0.4173119             -11.3556
       135        2.0000           -0.4140932             -11.2681
       136        2.0000           -0.3964483             -10.7879
       137        2.0000           -0.3947582             -10.7419
       138        2.0000           -0.3927484             -10.6872
       139        2.0000           -0.3917305             -10.6595
       140        1.9997           -0.3855031             -10.4901
       141        1.9754           -0.3814366             -10.3794
       142        1.7127           -0.3788023             -10.3077
       143        1.3123           -0.3771891             -10.2638
       144        0.9990           -0.2877538              -7.8302 (HOMO)
       145        0.0010           -0.2746069              -7.4724 (LUMO)
       146                         -0.2608470              -7.0980
       147                         -0.2597499              -7.0682
       148                         -0.2581205              -7.0238
       149                         -0.2580703              -7.0225
       150                         -0.2417861              -6.5793
       151                         -0.2384644              -6.4889
       152                         -0.2365827              -6.4377
       153                         -0.2341273              -6.3709
       154                         -0.2224371              -6.0528
       155                         -0.2129173              -5.7938
       ...                                ...                  ...
       280                          1.1521838              31.3525
      -------------------------------------------------------------
                  HL-Gap            0.0131469 Eh            0.3577 eV

     #   Z          covCN         q      C6AA      α(0)
     1   7 N        0.911    -0.337    28.654     7.742
     2   6 C        1.911     0.112    28.331     8.596
     3   6 C        2.965    -0.040    28.985     8.831
     4   6 C        2.922     0.069    26.455     8.435
     5   7 N        2.805    -0.039    21.997     6.966
     6   6 C        3.072     0.054    26.713     8.474
     7   6 C        2.910    -0.040    28.985     8.828
     8   6 C        2.923    -0.030    28.737     8.791
     9   6 C        2.920    -0.032    28.792     8.799
    10   6 C        2.912    -0.028    28.708     8.786
    11   6 C        3.066    -0.011    28.229     8.712
    12   6 C        3.066    -0.011    28.229     8.712
    13   6 C        2.912    -0.028    28.708     8.786
    14   6 C        2.920    -0.032    28.792     8.799
    15   6 C        2.923    -0.030    28.737     8.791
    16   6 C        2.910    -0.040    28.985     8.828
    17   6 C        3.072     0.054    26.713     8.474
    18   6 C        2.965    -0.040    28.985     8.831
    19   6 C        1.911     0.112    28.330     8.596
    20   7 N        0.911    -0.337    28.654     7.742
    21   6 C        2.910     0.008    27.838     8.652
    22   7 N        2.799    -0.030    21.823     6.938
    23   6 C        3.077     0.053    26.742     8.478
    24   6 C        2.910    -0.039    28.963     8.825
    25   6 C        2.922    -0.031    28.772     8.796
    26   6 C        2.920    -0.033    28.813     8.802
    27   6 C        2.912    -0.029    28.729     8.789
    28   6 C        3.066    -0.013    28.276     8.719
    29   6 C        3.066    -0.015    28.314     8.725
    30   6 C        2.912    -0.029    28.734     8.790
    31   6 C        2.920    -0.034    28.856     8.809
    32   6 C        2.923    -0.032    28.805     8.801
    33   6 C        2.910    -0.045    29.107     8.847
    34   6 C        3.077     0.048    26.847     8.495
    35   6 C        2.902     0.043    27.024     8.524
    36   7 N        2.804    -0.031    21.839     6.941
    37   6 C        3.074     0.050    26.800     8.488
    38   6 C        2.910    -0.044    29.081     8.843
    39   6 C        2.923    -0.031    28.763     8.795
    40   6 C        2.920    -0.033    28.815     8.803
    41   6 C        2.913    -0.029    28.718     8.788
    42   6 C        3.067    -0.013    28.261     8.717
    43   6 C        3.067    -0.013    28.260     8.717
    44   6 C        2.913    -0.029    28.718     8.788
    45   6 C        2.920    -0.033    28.815     8.803
    46   6 C        2.923    -0.031    28.763     8.795
    47   6 C        2.910    -0.044    29.082     8.843
    48   6 C        3.074     0.050    26.799     8.488
    49   6 C        2.910     0.008    27.838     8.652
    50   7 N        2.799    -0.030    21.823     6.938
    51   6 C        3.077     0.053    26.742     8.478
    52   6 C        2.910    -0.039    28.962     8.825
    53   6 C        2.922    -0.031    28.772     8.796
    54   6 C        2.920    -0.033    28.813     8.802
    55   6 C        2.912    -0.029    28.729     8.789
    56   6 C        3.066    -0.013    28.276     8.719
    57   6 C        3.066    -0.015    28.313     8.725
    58   6 C        2.912    -0.029    28.733     8.790
    59   6 C        2.920    -0.034    28.856     8.809
    60   6 C        2.923    -0.032    28.805     8.801
    61   6 C        2.910    -0.045    29.107     8.847
    62   6 C        3.077     0.048    26.847     8.495
    63   1 H        0.926     0.025     2.659     2.550
    64   1 H        0.926     0.047     2.364     2.404
    65   1 H        0.926     0.049     2.327     2.385
    66   1 H        0.926     0.051     2.311     2.377
    67   1 H        0.926     0.051     2.311     2.377
    68   1 H        0.926     0.049     2.327     2.385
    69   1 H        0.926     0.047     2.364     2.404
    70   1 H        0.926     0.025     2.659     2.550
    71   1 H        0.926     0.022     2.698     2.568
    72   1 H        0.926     0.042     2.421     2.433
    73   1 H        0.926     0.045     2.381     2.413
    74   1 H        0.926     0.046     2.364     2.405
    75   1 H        0.926     0.046     2.376     2.410
    76   1 H        0.926     0.044     2.399     2.422
    77   1 H        0.926     0.041     2.440     2.443
    78   1 H        0.926     0.028     2.616     2.529
    79   1 H        0.926     0.028     2.617     2.530
    80   1 H        0.926     0.042     2.420     2.433
    81   1 H        0.926     0.046     2.374     2.409
    82   1 H        0.926     0.048     2.350     2.397
    83   1 H        0.926     0.048     2.350     2.397
    84   1 H        0.926     0.046     2.374     2.409
    85   1 H        0.926     0.042     2.420     2.433
    86   1 H        0.926     0.028     2.617     2.530
    87   1 H        0.926     0.022     2.697     2.568
    88   1 H        0.926     0.042     2.421     2.433
    89   1 H        0.926     0.045     2.381     2.413
    90   1 H        0.926     0.046     2.364     2.405
    91   1 H        0.926     0.046     2.376     2.410
    92   1 H        0.926     0.044     2.399     2.422
    93   1 H        0.926     0.041     2.440     2.443
    94   1 H        0.926     0.028     2.616     2.529

molecular dipole:
                 x           y           z       tot (Debye)
 q only:       -2.636       0.029       0.003
   full:       -2.851       0.031       0.003       7.246

 projected vibrational frequencies (cm⁻¹)
eigval :       -0.00    -0.00    -0.00    -0.00     0.00     0.00
eigval :       14.50    19.60    20.72    22.32    24.58    26.24
eigval :       26.73    42.43    46.32    53.80    54.53    59.94
eigval :       85.07    85.52   103.60   104.62   105.63   109.59
eigval :      111.72   120.00   120.69   124.60   131.12   142.99
eigval :      145.73   148.56   153.50   160.70   172.97   188.61
eigval :      197.51   209.64   230.45   244.18   255.89   266.26
eigval :      268.20   270.17   272.06   275.39   279.33   288.81
eigval :      342.91   354.31   361.36   371.86   379.73   392.77
eigval :      393.52   397.18   405.26   415.06   418.23   418.67
eigval :      420.26   423.00   425.57   430.97   431.87   434.11
eigval :      438.83   447.26   486.36   506.10   513.49   513.79
eigval :      514.46   516.46   521.90   526.57   533.77   534.79
eigval :      535.75   537.09   537.75   540.61   542.49   550.02
eigval :      570.59   577.16   584.54   585.47   586.40   588.14
eigval :      600.53   607.10   629.73   639.77   641.15   662.26
eigval :      669.95   671.04   672.64   673.76   705.63   706.33
eigval :      707.36   708.58   723.24   726.79   733.53   752.11
eigval :      754.02   755.98   757.09   760.35   761.51   765.25
eigval :      769.47   771.35   772.23   774.43   779.07   803.20
eigval :      858.74   859.77   865.19   866.38   867.70   867.85
eigval :      873.54   876.20   885.72   887.22   890.64   891.97
eigval :      895.78   896.81   899.73   899.82   900.14   900.73
eigval :      901.87   904.59   907.20   912.21   913.30   916.84
eigval :      916.92   917.19   918.52   922.18   923.21   957.48
eigval :     1001.31  1008.53  1011.02  1012.40  1012.82  1062.40
eigval :     1064.20  1064.80  1065.42  1066.88  1068.88  1069.16
eigval :     1069.91  1070.22  1073.02  1110.29  1136.01  1136.83
eigval :     1139.06  1140.69  1142.11  1147.55  1157.78  1163.83
eigval :     1172.93  1173.23  1173.76  1174.71  1174.99  1176.31
eigval :     1177.45  1179.33  1191.93  1212.62  1219.57  1223.89
eigval :     1224.25  1227.70  1228.31  1230.06  1240.90  1265.16
eigval :     1266.73  1274.80  1275.70  1281.44  1286.65  1286.98
eigval :     1290.04  1292.33  1294.56  1324.22  1332.97  1333.26
eigval :     1336.70  1340.76  1344.62  1349.86  1360.38  1361.84
eigval :     1362.07  1363.40  1383.32  1401.77  1404.60  1406.73
eigval :     1406.98  1410.21  1410.72  1414.06  1422.54  1427.35
eigval :     1441.05  1441.64  1457.71  1458.88  1459.66  1460.73
eigval :     1479.26  1479.95  1480.04  1480.97  1558.83  1559.04
eigval :     1566.04  1567.36  1572.99  1573.22  1574.62  1575.28
eigval :     1579.66  1580.88  1581.59  1583.25  1594.68  1595.28
eigval :     1599.49  1604.51  2231.26  2302.36  3078.52  3079.00
eigval :     3081.63  3082.86  3083.22  3083.35  3083.42  3083.65
eigval :     3084.69  3084.90  3087.18  3087.76  3088.01  3088.23
eigval :     3088.76  3089.48  3091.47  3091.76  3094.11  3094.42
eigval :     3094.65  3095.45  3095.59  3096.59  3099.55  3099.78
eigval :     3100.75  3101.27  3101.42  3101.80  3102.44  3103.44

   temp. (K)  partition function   enthalpy   heat capacity  entropy
                                   cal/mol     cal/K/mol   cal/K/mol   J/K/mol
 298.15  VIB  0.148E+22            28341.283    180.177    174.416
         ROT  0.473E+08              888.752      2.981     38.101
         INT  0.701E+29            29230.036    183.158    212.517
         TR   0.214E+29             1481.254      4.968     45.854
         TOT                       30711.2895   188.1260   258.3713  1081.0253

       T/K    H(0)-H(T)+PV         H(T)/Eh          T*S/Eh         G(T)/Eh
   ------------------------------------------------------------------------
    298.15    0.489416E-01    0.745175E+00    0.122761E+00    0.622415E+00
   ------------------------------------------------------------------------

         :::::::::::::::::::::::::::::::::::::::::::::::::::::
         ::                  THERMODYNAMIC                  ::
         :::::::::::::::::::::::::::::::::::::::::::::::::::::
         :: total free energy        -153.221379405950 Eh   ::
         ::.................................................::
         :: total energy             -153.843794121883 Eh   ::
         :: zero point energy           0.696233680290 Eh   ::
         :: G(RRHO) w/o ZPVE           -0.073818964358 Eh   ::
         :: G(RRHO) contrib.            0.622414715932 Eh   ::
         :::::::::::::::::::::::::::::::::::::::::::::::::::::

           -------------------------------------------------
          | TOTAL ENERGY             -153.843794121883 Eh   |
          | TOTAL ENTHALPY           -153.098618886575 Eh   |
          | TOTAL FREE ENERGY        -153.221379405950 Eh   |
          | GRADIENT NORM               0.000060286441 Eh/α |
          | HOMO-LUMO GAP               0.357744788362 eV   |
           -------------------------------------------------

 * finished run on 2025/07/16 at 16:12:27.217
