   * xtb version 6.7.1 (edcfbbe) compiled by 'albert@albert-system' on 2024-07-22

   ID    Z sym.   atoms
    1    7 N      1, 5, 20, 22, 36, 50
    2    6 C      2-4, 6-19, 21, 23-35, 37-49, 51-62
    3    1 H      63-94

          program call               : xtb data2507/toluene/4CzIPN/4CzIPN.xyz --gfn 2 --gbsa toluene --ohess vtight --parallel 40 --molden --ceasefiles --namespace data2507/toluene/4CzIPN/4CzIPN_toluene_S0_preOpt
      * Solvation model:               GBSA
        Solvent                        toluene
        Solvent mass                       9.2140E+01 g/mol
          :  Hamiltonian                  GFN2-xTB          :
 * total energy  :  -153.8852651 Eh     change       -0.3977476E-08 Eh
 * total energy  :  -153.9074384 Eh     change       -0.2217332E-01 Eh
 * total energy  :  -153.9132138 Eh     change       -0.5775418E-02 Eh
 * total energy  :  -153.9148178 Eh     change       -0.1603981E-02 Eh
 * total energy  :  -153.9162176 Eh     change       -0.1399740E-02 Eh
 * total energy  :  -153.9170954 Eh     change       -0.8778753E-03 Eh
 * total energy  :  -153.9176987 Eh     change       -0.6032343E-03 Eh
 * total energy  :  -153.9182498 Eh     change       -0.5511519E-03 Eh
 * total energy  :  -153.9187345 Eh     change       -0.4846968E-03 Eh
 * total energy  :  -153.9192279 Eh     change       -0.4934214E-03 Eh
 * total energy  :  -153.9225359 Eh     change       -0.3521262E-06 Eh
 * total energy  :  -153.9225363 Eh     change       -0.3220927E-06 Eh
 * total energy  :  -153.9225366 Eh     change       -0.3001360E-06 Eh
 * total energy  :  -153.9225369 Eh     change       -0.2901987E-06 Eh
 * total energy  :  -153.9225371 Eh     change       -0.2847888E-06 Eh
 * total energy  :  -153.9225374 Eh     change       -0.2885333E-06 Eh
 * total energy  :  -153.9225377 Eh     change       -0.2925298E-06 Eh
 * total energy  :  -153.9225380 Eh     change       -0.2988289E-06 Eh
 * total energy  :  -153.9225380 Eh     change       -0.3234703E-08 Eh
   *** GEOMETRY OPTIMIZATION CONVERGED AFTER 94 ITERATIONS ***

 final structure:
================
94
 xtb: 6.7.1 (edcfbbe)
N            2.97501085315721        3.13403758338452       -1.35580707028935
C            2.40060204669282        2.26155644162475       -0.88165610532947
C            1.69685541207471        1.15135376963180       -0.36637405890689
C            2.41039569983373        0.00032663823338        0.00039619881484
N            3.79883664067932        0.00048693261564        0.00058405999817
C            4.61275091829458       -0.88913489707567       -0.68862382962971
C            4.26279164043077       -1.90482282988156       -1.56197183236621
C            5.28248370385772       -2.62872267145561       -2.15215286198101
C            6.61876668263354       -2.33940692656344       -1.89185029065830
C            6.97167750235401       -1.30454435692872       -1.04734296212834
C            5.96352245049161       -0.56575293297789       -0.44280563076306
C            5.96327574566585        0.56719020224054        0.44458728221334
C            6.97110312803264        1.30619707223583        1.04940738516022
C            6.61773299618398        2.34098447068149        1.89381445542796
C            5.28131501412107        2.63001770867339        2.15373743416618
C            4.26194313743442        1.90590088744442        1.56326864364292
C            4.61236539712342        0.89028372299205        0.69002322890310
C            1.69703964130170       -1.15088225946795        0.36695401326521
C            2.40091851364056       -2.26089942295537        0.88245279967739
N            2.97538638110147       -3.13324179184209        1.35679205635124
C            0.28972051871070       -1.16015189602359        0.36590375174517
N           -0.38585007525977       -2.30676521437056        0.76398795356780
C           -1.39416003889229       -2.36854251194420        1.71747490520399
C           -1.80432157825617       -1.40463413755463        2.62318050896666
C           -2.82567553060960       -1.73367636305390        3.49584100424584
C           -3.40624813725357       -2.99817163452202        3.48643591447225
C           -2.95814499101589       -3.98029664079735        2.62363796559777
C           -1.93732628589840       -3.66960434914659        1.73620640954901
C           -1.21555183679838       -4.43301897833674        0.75326237399159
C           -1.31255559298023       -5.74420667430103        0.30867773726585
C           -0.46201337216724       -6.16856173198181       -0.69398918131661
C            0.46384320289834       -5.29911497795272       -1.26223682169973
C            0.57304603174686       -3.98745086178778       -0.83735001104062
C           -0.25856279534015       -3.56567915243097        0.18654177664874
C           -0.41800813082652       -0.00004161889479       -0.00004560310511
N           -1.81346527789853       -0.00022760731564       -0.00027650960417
C           -2.62653486760123        0.88829075613709        0.68759004043624
C           -2.27939084726053        1.90348215558563        1.56430289931046
C           -3.29956354728123        2.64001881716142        2.13718852998488
C           -4.63513944157858        2.36076028437916        1.86342764590157
C           -4.98611322104540        1.31885122471080        1.02699585646752
C           -3.97749328654926        0.56943166608974        0.43730080271728
C           -3.97719765710497       -0.57042814565303       -0.43861031343863
C           -4.98542494341521       -1.32009763695979       -1.02865914610338
C           -4.63389881738479       -2.36191917202176       -1.86496774165478
C           -3.29815786541240       -2.64084625952746       -2.13826050139144
C           -2.27836905290904       -1.90405499881304       -1.56501858317734
C           -2.62607219847001       -0.88894996705900       -0.68842754943508
C            0.28953274952933        1.16025289361678       -0.36576727418823
N           -0.38621054887628        2.30669122178992       -0.76406408483601
C           -1.39423731450797        2.36820833540589       -1.71786745032628
C           -1.80385749749205        1.40419853615544       -2.62370955698983
C           -2.82502680876814        1.73297567180119       -3.49668607173417
C           -3.40593827262513        2.99731650542092       -3.48745321689582
C           -2.95836221579899        3.97955550423684       -2.62451136574432
C           -1.93774130546458        3.66912671809095       -1.73676002296082
C           -1.21647940639537        4.43272466654345       -0.75358203901604
C           -1.31396203126794        5.74388570397175       -0.30902436640489
C           -0.46384827439943        6.16845600849747        0.69391461182723
C            0.46205302184740        5.29924708269404        1.26245313874014
C            0.57173085083792        3.98761307600431        0.83759511923950
C           -0.25944164329388        3.56563291392209       -0.18656482907839
H            3.22978613011155       -2.12585905465912       -1.78624007974443
H            5.03401026513168       -3.43062874697006       -2.83089769861134
H            7.38769755929419       -2.92820619028688       -2.36842122908950
H            8.00784596491620       -1.06776987612661       -0.86221502001654
H            8.00737422277736        1.06964394258228        0.86457081245082
H            7.38640400512725        2.92994714827891        2.37060278814882
H            5.03248234429937        3.43187350458450        2.83241019865532
H            3.22882751705360        2.12672289049761        1.78723993458628
H           -1.34022558366476       -0.43136964573073        2.66457685800807
H           -3.17229413481996       -0.99251932860062        4.20010311444353
H           -4.20437957342248       -3.21715545311879        4.17941111426743
H           -3.38345250802667       -4.97166475600352        2.64145972091880
H           -2.04265555897019       -6.41267420373432        0.73775627098964
H           -0.51767725055809       -7.18587716539327       -1.05053555303476
H            1.10946517256342       -5.65030334654968       -2.05308145772850
H            1.28758785581800       -3.32240431234140       -1.29957278252931
H           -1.24954287932172        2.11663358838204        1.80976281188976
H           -3.04942385563529        3.44466587313365        2.81241586647822
H           -5.40457919787486        2.95979274673061        2.32663593407320
H           -6.02213775589586        1.08482776015316        0.83681466778155
H           -6.02157406800738       -1.08633147900956       -0.83884057594727
H           -5.40302762231931       -2.96114308484387       -2.32844537442864
H           -3.04758336456338       -3.44543498284590       -2.81339614566350
H           -1.24838199148229       -2.11694973572459       -1.81011785526669
H           -1.33948269947870        0.43106109084077       -2.66497392731891
H           -3.17122822618472        0.99173168069479       -4.20106199912780
H           -4.20391433021098        3.21609227822321       -4.18067340089988
H           -3.38392654098761        4.97081114665450       -2.64246006176885
H           -2.04409945262880        6.41216610876737       -0.73833075840769
H           -0.51988644624018        7.18575646326368        1.05044578366076
H            1.10733494700612        5.65060151615319        2.05350158615645
H            1.28629888360342        3.32274807061610        1.30003883575545

          :  Hamiltonian                  GFN2-xTB          :
         :: gradient norm              0.000043641489 Eh/a0 ::
         :: HOMO-LUMO gap              1.831911877872 eV    ::
         :: SCC energy              -156.875066799264 Eh    ::
         :: -> dispersion             -0.170748545146 Eh    ::
         :: -> Gsolv                  -0.060682950333 Eh    ::
         :: repulsion energy           2.952528778160 Eh    ::

    * Orbital Energies and Occupations

         #    Occupation            Energy/Eh            Energy/eV
      -------------------------------------------------------------
         1        2.0000           -0.7234521             -19.6861
       ...           ...                  ...                  ...
       131        2.0000           -0.4294540             -11.6860
       132        2.0000           -0.4195720             -11.4171
       133        2.0000           -0.4192161             -11.4074
       134        2.0000           -0.4185922             -11.3905
       135        2.0000           -0.4165980             -11.3362
       136        2.0000           -0.3947263             -10.7410
       137        2.0000           -0.3934048             -10.7051
       138        2.0000           -0.3928610             -10.6903
       139        2.0000           -0.3901346             -10.6161
       140        2.0000           -0.3864919             -10.5170
       141        2.0000           -0.3856715             -10.4947
       142        2.0000           -0.3842409             -10.4557
       143        2.0000           -0.3783613             -10.2957 (HOMO)
       144                         -0.3110398              -8.4638 (LUMO)
       145                         -0.2978219              -8.1041
       146                         -0.2596695              -7.0660
       147                         -0.2592888              -7.0556
       148                         -0.2590013              -7.0478
       149                         -0.2578066              -7.0153
       150                         -0.2403442              -6.5401
       151                         -0.2390537              -6.5050
       152                         -0.2387092              -6.4956
       153                         -0.2364799              -6.4349
       154                         -0.2352185              -6.4006
       ...                                ...                  ...
       280                          1.1402313              31.0273
      -------------------------------------------------------------
                  HL-Gap            0.0673215 Eh            1.8319 eV

     #   Z          covCN         q      C6AA      α(0)
     1   7 N        0.911    -0.256    26.651     7.466
     2   6 C        1.912     0.130    27.911     8.532
     3   6 C        2.973    -0.021    28.521     8.760
     4   6 C        2.922     0.075    26.326     8.414
     5   7 N        2.801    -0.060    22.401     7.029
     6   6 C        3.065     0.048    26.859     8.498
     7   6 C        2.910    -0.048    29.187     8.859
     8   6 C        2.924    -0.031    28.767     8.796
     9   6 C        2.920    -0.037    28.916     8.818
    10   6 C        2.913    -0.031    28.768     8.795
    11   6 C        3.066    -0.013    28.276     8.719
    12   6 C        3.066    -0.013    28.276     8.719
    13   6 C        2.913    -0.031    28.768     8.795
    14   6 C        2.920    -0.037    28.916     8.818
    15   6 C        2.924    -0.031    28.767     8.796
    16   6 C        2.910    -0.048    29.187     8.859
    17   6 C        3.065     0.048    26.859     8.498
    18   6 C        2.973    -0.021    28.521     8.760
    19   6 C        1.912     0.130    27.911     8.532
    20   7 N        0.911    -0.256    26.651     7.466
    21   6 C        2.915     0.065    26.538     8.447
    22   7 N        2.800    -0.052    22.234     7.003
    23   6 C        3.066     0.049    26.845     8.496
    24   6 C        2.911    -0.049    29.214     8.863
    25   6 C        2.925    -0.031    28.780     8.798
    26   6 C        2.920    -0.037    28.909     8.817
    27   6 C        2.913    -0.031    28.780     8.797
    28   6 C        3.065    -0.013    28.282     8.720
    29   6 C        3.066    -0.013    28.261     8.717
    30   6 C        2.913    -0.031    28.762     8.794
    31   6 C        2.920    -0.036    28.906     8.817
    32   6 C        2.924    -0.031    28.766     8.795
    33   6 C        2.911    -0.046    29.152     8.854
    34   6 C        3.064     0.050    26.818     8.492
    35   6 C        2.909     0.039    27.133     8.541
    36   7 N        2.801    -0.050    22.206     6.999
    37   6 C        3.069     0.049    26.832     8.494
    38   6 C        2.911    -0.049    29.222     8.864
    39   6 C        2.924    -0.032    28.803     8.801
    40   6 C        2.920    -0.038    28.944     8.822
    41   6 C        2.913    -0.032    28.787     8.798
    42   6 C        3.067    -0.015    28.316     8.726
    43   6 C        3.067    -0.015    28.316     8.726
    44   6 C        2.913    -0.032    28.787     8.798
    45   6 C        2.920    -0.038    28.944     8.822
    46   6 C        2.924    -0.032    28.803     8.801
    47   6 C        2.911    -0.049    29.222     8.864
    48   6 C        3.069     0.049    26.832     8.494
    49   6 C        2.915     0.065    26.538     8.447
    50   7 N        2.800    -0.052    22.234     7.003
    51   6 C        3.066     0.049    26.845     8.496
    52   6 C        2.911    -0.049    29.214     8.863
    53   6 C        2.925    -0.031    28.780     8.798
    54   6 C        2.920    -0.037    28.909     8.817
    55   6 C        2.913    -0.031    28.780     8.797
    56   6 C        3.065    -0.013    28.282     8.720
    57   6 C        3.066    -0.013    28.261     8.717
    58   6 C        2.913    -0.031    28.762     8.794
    59   6 C        2.920    -0.036    28.906     8.817
    60   6 C        2.924    -0.031    28.766     8.795
    61   6 C        2.911    -0.046    29.152     8.854
    62   6 C        3.064     0.050    26.818     8.492
    63   1 H        0.926     0.014     2.819     2.626
    64   1 H        0.926     0.042     2.420     2.433
    65   1 H        0.926     0.044     2.391     2.418
    66   1 H        0.926     0.047     2.361     2.403
    67   1 H        0.926     0.047     2.361     2.403
    68   1 H        0.926     0.044     2.391     2.418
    69   1 H        0.926     0.042     2.420     2.433
    70   1 H        0.926     0.014     2.819     2.626
    71   1 H        0.926     0.022     2.697     2.568
    72   1 H        0.926     0.040     2.451     2.448
    73   1 H        0.926     0.043     2.411     2.428
    74   1 H        0.926     0.045     2.379     2.412
    75   1 H        0.926     0.046     2.369     2.407
    76   1 H        0.926     0.044     2.399     2.422
    77   1 H        0.926     0.041     2.432     2.439
    78   1 H        0.926     0.014     2.825     2.629
    79   1 H        0.926     0.016     2.795     2.614
    80   1 H        0.926     0.037     2.489     2.467
    81   1 H        0.926     0.040     2.446     2.446
    82   1 H        0.926     0.043     2.414     2.430
    83   1 H        0.926     0.043     2.414     2.430
    84   1 H        0.926     0.040     2.446     2.446
    85   1 H        0.926     0.037     2.489     2.467
    86   1 H        0.926     0.016     2.795     2.614
    87   1 H        0.926     0.022     2.697     2.568
    88   1 H        0.926     0.040     2.451     2.448
    89   1 H        0.926     0.043     2.411     2.428
    90   1 H        0.926     0.045     2.379     2.412
    91   1 H        0.926     0.046     2.369     2.407
    92   1 H        0.926     0.044     2.399     2.422
    93   1 H        0.926     0.041     2.432     2.439
    94   1 H        0.926     0.014     2.825     2.629

molecular dipole:
                 x           y           z       tot (Debye)
 q only:       -1.698      -0.000      -0.000
   full:       -1.918      -0.000      -0.000       4.875

 projected vibrational frequencies (cm⁻¹)
eigval :       -0.00    -0.00    -0.00     0.00     0.00     0.00
eigval :       14.92    22.35    23.37    25.18    26.17    26.74
eigval :       28.74    44.33    51.54    53.51    60.84    64.48
eigval :       86.77    92.78   104.01   105.27   105.84   117.71
eigval :      117.91   121.97   122.52   128.95   132.96   146.55
eigval :      146.72   152.57   157.70   166.47   179.13   197.30
eigval :      198.52   213.46   235.18   257.40   258.41   271.21
eigval :      272.74   273.94   279.51   280.53   281.64   290.52
eigval :      347.87   348.59   357.70   379.64   381.35   393.73
eigval :      399.32   400.97   407.78   418.52   420.61   421.37
eigval :      428.22   428.27   433.70   437.30   437.31   444.94
eigval :      473.85   483.14   487.05   515.70   517.80   518.08
eigval :      518.28   524.48   526.25   529.06   530.56   541.31
eigval :      541.64   541.98   545.78   547.30   558.74   570.11
eigval :      579.46   586.41   588.16   589.12   592.99   595.64
eigval :      603.51   638.86   651.81   654.40   662.70   670.58
eigval :      670.89   672.51   673.09   692.93   705.35   705.78
eigval :      706.69   707.84   728.66   728.97   737.00   753.40
eigval :      755.36   757.51   758.80   764.52   767.78   769.08
eigval :      774.18   778.03   781.27   781.67   787.40   806.66
eigval :      860.12   860.71   868.03   868.58   875.74   875.85
eigval :      880.24   881.03   887.88   892.79   894.10   895.50
eigval :      901.11   901.13   902.13   903.30   903.86   905.63
eigval :      905.67   907.61   907.74   920.87   920.97   922.83
eigval :      923.38   924.54   924.59   929.61   929.87   960.53
eigval :     1003.44  1012.34  1012.51  1014.41  1017.88  1068.57
eigval :     1069.34  1070.28  1070.75  1071.71  1073.24  1074.55
eigval :     1075.87  1078.49  1078.76  1114.48  1140.27  1148.26
eigval :     1150.62  1152.21  1153.53  1159.43  1162.77  1175.92
eigval :     1176.25  1177.34  1178.57  1178.98  1180.06  1181.53
eigval :     1182.15  1197.19  1217.39  1228.33  1228.81  1229.29
eigval :     1233.64  1233.76  1234.90  1246.46  1263.38  1285.81
eigval :     1286.96  1287.89  1290.07  1292.59  1292.72  1296.39
eigval :     1296.82  1300.47  1317.00  1317.19  1355.53  1356.04
eigval :     1356.67  1357.82  1357.99  1358.24  1358.57  1362.08
eigval :     1362.43  1403.53  1411.82  1413.39  1420.21  1421.97
eigval :     1424.52  1425.03  1426.22  1428.67  1431.02  1459.68
eigval :     1468.85  1469.68  1470.48  1473.09  1483.50  1483.57
eigval :     1484.18  1485.96  1487.08  1494.56  1577.09  1577.87
eigval :     1577.99  1578.29  1591.59  1591.72  1592.08  1592.84
eigval :     1599.17  1599.43  1600.26  1600.85  1610.81  1611.00
eigval :     1611.59  1614.30  2355.77  2359.89  3071.97  3072.37
eigval :     3073.26  3073.40  3077.22  3077.46  3082.54  3082.72
eigval :     3083.45  3083.52  3084.91  3084.96  3085.00  3085.22
eigval :     3088.22  3088.24  3090.81  3091.77  3092.29  3092.30
eigval :     3092.55  3093.57  3095.41  3095.45  3098.66  3100.85
eigval :     3100.90  3101.04  3101.12  3103.06  3103.21  3103.30

   temp. (K)  partition function   enthalpy   heat capacity  entropy
                                   cal/mol     cal/K/mol   cal/K/mol   J/K/mol
 298.15  VIB  0.333E+21            27942.962    178.772    171.394
         ROT  0.470E+08              888.752      2.981     38.088
         INT  0.157E+29            28831.714    181.753    209.483
         TR   0.214E+29             1481.254      4.968     45.854
         TOT                       30312.9681   186.7208   255.3365  1068.3281

       T/K    H(0)-H(T)+PV         H(T)/Eh          T*S/Eh         G(T)/Eh
   ------------------------------------------------------------------------
    298.15    0.483068E-01    0.749251E+00    0.121319E+00    0.627932E+00
   ------------------------------------------------------------------------

         :::::::::::::::::::::::::::::::::::::::::::::::::::::
         ::                  THERMODYNAMIC                  ::
         :::::::::::::::::::::::::::::::::::::::::::::::::::::
         :: total free energy        -153.294605661336 Eh   ::
         ::.................................................::
         :: total energy             -153.922538020129 Eh   ::
         :: zero point energy           0.700944198232 Eh   ::
         :: G(RRHO) w/o ZPVE           -0.073011839439 Eh   ::
         :: G(RRHO) contrib.            0.627932358793 Eh   ::
         :::::::::::::::::::::::::::::::::::::::::::::::::::::

           -------------------------------------------------
          | TOTAL ENERGY             -153.922538020129 Eh   |
          | TOTAL ENTHALPY           -153.173287032432 Eh   |
          | TOTAL FREE ENERGY        -153.294605661336 Eh   |
          | GRADIENT NORM               0.000043812313 Eh/α |
          | HOMO-LUMO GAP               1.831912141423 eV   |
           -------------------------------------------------

 * finished run on 2025/07/16 at 16:06:43.948
