   * xtb version 6.7.1 (edcfbbe) compiled by 'albert@albert-system' on 2024-07-22

   ID    Z sym.   atoms
    1    7 N      1, 5, 20, 22, 36, 50
    2    6 C      2-4, 6-19, 21, 23-35, 37-49, 51-62
    3    1 H      63-94

          program call               : xtb data2507/toluene/4CzIPN/4CzIPN_toluene_S0_crest.xyz --gfn 2 --gbsa toluene --ohess vtight --parallel 40 --molden --ceasefiles --namespace data2507/toluene/4CzIPN/4CzIPN_toluene_S0_finalOpt
      * Solvation model:               GBSA
        Solvent                        toluene
        Solvent mass                       9.2140E+01 g/mol
          :  Hamiltonian                  GFN2-xTB          :
 * total energy  :  -153.9220863 Eh     change       -0.3920320E-08 Eh
 * total energy  :  -153.9222231 Eh     change       -0.1367915E-03 Eh
 * total energy  :  -153.9222964 Eh     change       -0.7333685E-04 Eh
 * total energy  :  -153.9223222 Eh     change       -0.2577751E-04 Eh
 * total energy  :  -153.9223446 Eh     change       -0.2240004E-04 Eh
 * total energy  :  -153.9223827 Eh     change       -0.3811656E-04 Eh
 * total energy  :  -153.9224100 Eh     change       -0.2724899E-04 Eh
 * total energy  :  -153.9224511 Eh     change       -0.4118174E-04 Eh
 * total energy  :  -153.9224890 Eh     change       -0.3786401E-04 Eh
 * total energy  :  -153.9225059 Eh     change       -0.1685690E-04 Eh
 * total energy  :  -153.9225596 Eh     change       -0.2189361E-06 Eh
 * total energy  :  -153.9225603 Eh     change       -0.7301337E-06 Eh
 * total energy  :  -153.9225608 Eh     change       -0.4457458E-06 Eh
 * total energy  :  -153.9225611 Eh     change       -0.3889160E-06 Eh
 * total energy  :  -153.9225616 Eh     change       -0.4702321E-06 Eh
 * total energy  :  -153.9225620 Eh     change       -0.4175939E-06 Eh
 * total energy  :  -153.9225622 Eh     change       -0.1886290E-06 Eh
 * total energy  :  -153.9225623 Eh     change       -0.5735407E-07 Eh
 * total energy  :  -153.9225624 Eh     change       -0.8858427E-07 Eh
   *** GEOMETRY OPTIMIZATION CONVERGED AFTER 30 ITERATIONS ***

 final structure:
================
94
 xtb: 6.7.1 (edcfbbe)
N            2.78951980142678       -3.20086263393274       -1.28126880210808
C            2.22890619060087       -2.30936053253280       -0.82634665353140
C            1.54016972648540       -1.17827231980060       -0.33684377974043
C            2.26712974530348       -0.02574168818167       -0.00193832822202
N            3.65522631522576       -0.04011431927320       -0.00462532212016
C            4.46217105798969       -0.92545936362517        0.69875519579942
C            4.10490870594910       -1.92397575128614        1.58876525494128
C            5.11901796555130       -2.64760385671402        2.18886138557281
C            6.45741291529296       -2.37390130535013        1.92285409387589
C            6.81806053117772       -1.35518992410551        1.06214947015829
C            5.81546841283413       -0.61772686267350        0.44691975975738
C            5.82453084331091        0.50075554590698       -0.45850947635899
C            6.83873790526896        1.22113552275677       -1.07497111622596
C            6.49434084162174        2.24512115332637       -1.93608393771491
C            5.16045934331553        2.54040775246190       -2.20171391797730
C            4.13499037262629        1.83423983560714       -1.60016677240030
C            4.47640552902722        0.83102836948363       -0.70922360709371
C            1.56612886964327        1.14215244790681        0.33537860680218
C            2.28064169131897        2.25793708629493        0.82307354721722
N            2.86202651201292        3.13673400875109        1.27667328407664
C            0.15898116259241        1.16714896368246        0.33378015928058
N           -0.50330882789914        2.33318980990388        0.69640964107253
C           -0.36097279338249        3.57146682326192        0.07901608549199
C            0.47717486056142        3.95091803379830       -0.95599309671217
C            0.38411315596145        5.24957831090726       -1.42253636283201
C           -0.53259580012835        6.14730059993954       -0.88427113753625
C           -1.39003257192429        5.76475585716015        0.12928344425556
C           -1.30934772113192        4.46716942708635        0.61520224974550
C           -2.04222440629918        3.74347626612497        1.61971526774450
C           -3.06252412717769        4.09362624169877        2.49289546906448
C           -3.52414942214208        3.14469951556093        3.38517881325771
C           -2.95730472404290        1.87504086391312        3.43739665824899
C           -1.93686972409787        1.50693177305265        2.57936257813382
C           -1.51335092041677        2.43660619825198        1.64445394798870
C           -0.56182891557639        0.00490533242032        0.00195980844559
N           -1.95725162443499        0.02013170081399        0.00326682835068
C           -2.76112699676551        0.89567610241997       -0.71138512094197
C           -2.40336176390272        1.88015654162397       -1.61833936793216
C           -3.41578747484590        2.60935201216537       -2.21386890937124
C           -4.75417548566717        2.35207953316705       -1.93242323935286
C           -5.11602373138831        1.34008831150237       -1.06448209402248
C           -4.11529593386335        0.59856904011908       -0.45176703550100
C           -4.12664581277385       -0.51427515816057        0.45820476270592
C           -5.14226873010185       -1.23535195533800        1.07081804129177
C           -4.80109382441973       -2.25439535104622        1.93888017367631
C           -3.46821947409672       -2.53854606912743        2.22065651637143
C           -2.44114284997511       -1.83024261103885        1.62501071654743
C           -2.77881147385742       -0.83886305205663        0.71786444969459
C            0.13279017443988       -1.17269415642881       -0.33146270381671
N           -0.55552181418928       -2.32407471607550       -0.69246774067053
C           -0.43892613959252       -3.56507305868894       -0.07521660852202
C            0.39329944124471       -3.96270674900690        0.95773234244333
C            0.27348625426035       -5.25925071698263        1.42408968235724
C           -0.66374609421891       -6.13680998993315        0.88789762786651
C           -1.51544181561355       -5.73549414746660       -0.12324393531304
C           -1.40790749023147       -4.43984591846230       -0.60911113276940
C           -2.12717311804402       -3.70033030957942       -1.61193838626205
C           -3.15724139844310       -4.02787678914056       -2.48242483480514
C           -3.60006172092239       -3.06904897258746       -3.37366359093472
C           -3.00518411978255       -1.81235653732855       -3.42777771188640
C           -1.97457672960441       -1.46688961557391       -2.57251001514712
C           -1.56972706336887       -2.40543338582857       -1.63819696200813
H            3.07059188818959       -2.13280028343988        1.81811840559135
H            4.86435191057100       -3.43715442807260        2.87968509066598
H            7.22184885923862       -2.96195555331856        2.40749241182850
H            7.85592093257197       -1.12961541679847        0.87254490983009
H            7.87289740275156        0.97860631003475       -0.88603000271312
H            7.26801738066034        2.82019292877296       -2.42163082695784
H            4.91827916794223        3.33314308915884       -2.89338031164049
H            3.10401561863418        2.05931192528964       -1.82939221592308
H            1.18447417950068        3.26327392964217       -1.39557765556378
H            1.03532406968667        5.56789857202456       -2.22263638197641
H           -0.57559121525280        7.15340722241957       -1.27290919726256
H           -2.11308683053713        6.45498010542677        0.53520759641087
H           -3.47723527915064        5.08950143672826        2.47702316406536
H           -4.32216280024764        3.39445017324691        4.06780535975473
H           -3.31427415912984        1.16087320348400        4.16402181609645
H           -1.48392217877477        0.53036401277181        2.65355319771078
H           -1.37130999086986        2.07503927995964       -1.86966630143680
H           -3.15739657042078        3.39069554169825       -2.91294733286306
H           -5.51740532675418        2.94438034176015       -2.41419591916287
H           -6.15448163199058        1.12292266576956       -0.86767250094519
H           -6.17611740248782       -0.99732974650094        0.87380779817535
H           -5.57620833878622       -2.83105015261540        2.42065169430666
H           -3.22575843421485       -3.32467411215614        2.92007760650774
H           -1.41326785436074       -2.04600414004363        1.87640454985387
H            1.11622135096657       -3.29045284836445        1.39572426684848
H            0.91971362022845       -5.59188708143942        2.22242007534095
H           -0.72723757730920       -7.14197082172705        1.27618677097793
H           -2.25431038913558       -6.40978009487037       -0.52747674409176
H           -3.59387106523382       -5.01431495177711       -2.46530685598364
H           -4.40524586047779       -3.30112339875587       -4.05410375395018
H           -3.34792357917608       -1.09058547204952       -4.15374018608918
H           -1.49994360834002       -0.50078419010132       -2.64825191431127

          :  Hamiltonian                  GFN2-xTB          :
         :: gradient norm              0.000057949095 Eh/a0 ::
         :: HOMO-LUMO gap              1.833915858061 eV    ::
         :: SCC energy              -156.875074704191 Eh    ::
         :: -> dispersion             -0.170879448014 Eh    ::
         :: -> Gsolv                  -0.060659141270 Eh    ::
         :: repulsion energy           2.952512337569 Eh    ::

    * Orbital Energies and Occupations

         #    Occupation            Energy/Eh            Energy/eV
      -------------------------------------------------------------
         1        2.0000           -0.7233690             -19.6839
       ...           ...                  ...                  ...
       131        2.0000           -0.4294051             -11.6847
       132        2.0000           -0.4195452             -11.4164
       133        2.0000           -0.4192755             -11.4091
       134        2.0000           -0.4185680             -11.3898
       135        2.0000           -0.4165737             -11.3355
       136        2.0000           -0.3947131             -10.7407
       137        2.0000           -0.3933789             -10.7044
       138        2.0000           -0.3929333             -10.6923
       139        2.0000           -0.3900897             -10.6149
       140        2.0000           -0.3865961             -10.5198
       141        2.0000           -0.3856615             -10.4944
       142        2.0000           -0.3841975             -10.4545
       143        2.0000           -0.3783478             -10.2954 (HOMO)
       144                         -0.3109525              -8.4614 (LUMO)
       145                         -0.2977320              -8.1017
       146                         -0.2596438              -7.0653
       147                         -0.2592715              -7.0551
       148                         -0.2590723              -7.0497
       149                         -0.2577803              -7.0146
       150                         -0.2402945              -6.5387
       151                         -0.2390115              -6.5038
       152                         -0.2386169              -6.4931
       153                         -0.2364605              -6.4344
       154                         -0.2352672              -6.4019
       ...                                ...                  ...
       280                          1.1401798              31.0259
      -------------------------------------------------------------
                  HL-Gap            0.0673953 Eh            1.8339 eV

     #   Z          covCN         q      C6AA      α(0)
     1   7 N        0.911    -0.256    26.656     7.467
     2   6 C        1.912     0.130    27.911     8.532
     3   6 C        2.973    -0.021    28.523     8.760
     4   6 C        2.922     0.075    26.328     8.414
     5   7 N        2.801    -0.060    22.394     7.028
     6   6 C        3.065     0.048    26.861     8.499
     7   6 C        2.910    -0.048    29.183     8.858
     8   6 C        2.924    -0.031    28.766     8.796
     9   6 C        2.920    -0.037    28.914     8.818
    10   6 C        2.913    -0.031    28.768     8.795
    11   6 C        3.066    -0.013    28.274     8.719
    12   6 C        3.066    -0.013    28.274     8.719
    13   6 C        2.913    -0.031    28.767     8.795
    14   6 C        2.920    -0.037    28.914     8.818
    15   6 C        2.924    -0.031    28.766     8.796
    16   6 C        2.910    -0.048    29.184     8.858
    17   6 C        3.065     0.048    26.860     8.499
    18   6 C        2.973    -0.021    28.523     8.760
    19   6 C        1.912     0.130    27.911     8.532
    20   7 N        0.911    -0.256    26.657     7.467
    21   6 C        2.915     0.065    26.537     8.447
    22   7 N        2.800    -0.052    22.235     7.003
    23   6 C        3.064     0.050    26.817     8.492
    24   6 C        2.911    -0.046    29.154     8.854
    25   6 C        2.924    -0.031    28.766     8.796
    26   6 C        2.920    -0.036    28.907     8.817
    27   6 C        2.913    -0.031    28.762     8.794
    28   6 C        3.066    -0.013    28.261     8.717
    29   6 C        3.065    -0.013    28.282     8.720
    30   6 C        2.913    -0.031    28.780     8.797
    31   6 C        2.920    -0.037    28.909     8.817
    32   6 C        2.925    -0.031    28.780     8.798
    33   6 C        2.911    -0.049    29.213     8.863
    34   6 C        3.066     0.049    26.844     8.496
    35   6 C        2.909     0.039    27.136     8.542
    36   7 N        2.801    -0.050    22.208     6.999
    37   6 C        3.069     0.049    26.831     8.494
    38   6 C        2.911    -0.049    29.223     8.864
    39   6 C        2.924    -0.032    28.803     8.801
    40   6 C        2.920    -0.038    28.944     8.823
    41   6 C        2.913    -0.032    28.787     8.798
    42   6 C        3.067    -0.015    28.316     8.726
    43   6 C        3.067    -0.015    28.317     8.726
    44   6 C        2.913    -0.032    28.787     8.798
    45   6 C        2.920    -0.038    28.944     8.823
    46   6 C        2.924    -0.032    28.803     8.801
    47   6 C        2.911    -0.049    29.222     8.864
    48   6 C        3.069     0.049    26.831     8.494
    49   6 C        2.915     0.065    26.537     8.447
    50   7 N        2.800    -0.052    22.236     7.003
    51   6 C        3.064     0.050    26.817     8.492
    52   6 C        2.911    -0.046    29.153     8.854
    53   6 C        2.924    -0.031    28.766     8.796
    54   6 C        2.920    -0.036    28.907     8.817
    55   6 C        2.913    -0.031    28.762     8.794
    56   6 C        3.066    -0.013    28.261     8.717
    57   6 C        3.065    -0.013    28.282     8.721
    58   6 C        2.913    -0.031    28.780     8.797
    59   6 C        2.920    -0.037    28.909     8.817
    60   6 C        2.925    -0.031    28.780     8.798
    61   6 C        2.911    -0.049    29.213     8.863
    62   6 C        3.066     0.049    26.844     8.496
    63   1 H        0.926     0.015     2.816     2.624
    64   1 H        0.926     0.042     2.419     2.432
    65   1 H        0.926     0.044     2.390     2.417
    66   1 H        0.926     0.047     2.360     2.402
    67   1 H        0.926     0.047     2.360     2.402
    68   1 H        0.926     0.045     2.390     2.417
    69   1 H        0.926     0.042     2.419     2.432
    70   1 H        0.926     0.015     2.817     2.624
    71   1 H        0.926     0.014     2.826     2.629
    72   1 H        0.926     0.041     2.433     2.439
    73   1 H        0.926     0.044     2.400     2.422
    74   1 H        0.926     0.046     2.369     2.407
    75   1 H        0.926     0.045     2.379     2.412
    76   1 H        0.926     0.043     2.411     2.428
    77   1 H        0.926     0.040     2.451     2.448
    78   1 H        0.926     0.022     2.696     2.568
    79   1 H        0.926     0.016     2.796     2.615
    80   1 H        0.926     0.037     2.490     2.467
    81   1 H        0.926     0.040     2.447     2.446
    82   1 H        0.926     0.043     2.415     2.430
    83   1 H        0.926     0.043     2.415     2.430
    84   1 H        0.926     0.040     2.447     2.446
    85   1 H        0.926     0.037     2.490     2.467
    86   1 H        0.926     0.016     2.796     2.615
    87   1 H        0.926     0.014     2.827     2.629
    88   1 H        0.926     0.041     2.433     2.439
    89   1 H        0.926     0.044     2.400     2.422
    90   1 H        0.926     0.046     2.369     2.407
    91   1 H        0.926     0.045     2.379     2.412
    92   1 H        0.926     0.043     2.411     2.428
    93   1 H        0.926     0.040     2.452     2.449
    94   1 H        0.926     0.022     2.697     2.568

molecular dipole:
                 x           y           z       tot (Debye)
 q only:       -1.677       0.019       0.002
   full:       -1.897       0.022       0.002       4.822

 projected vibrational frequencies (cm⁻¹)
eigval :       -0.00    -0.00    -0.00     0.00     0.00     0.00
eigval :       15.30    18.66    23.36    24.94    25.42    27.45
eigval :       29.04    44.58    51.17    51.92    61.66    64.63
eigval :       86.62    92.73   103.29   105.41   105.56   116.97
eigval :      118.12   121.43   122.49   128.13   131.81   143.34
eigval :      146.59   151.33   158.49   165.94   176.77   197.89
eigval :      198.62   212.07   235.29   255.77   258.65   269.14
eigval :      272.62   273.53   278.17   279.97   280.79   290.71
eigval :      348.08   348.91   357.85   379.46   381.28   393.24
eigval :      399.08   401.03   407.78   415.98   420.64   420.82
eigval :      426.70   428.32   433.38   437.15   437.39   443.75
eigval :      474.26   482.92   487.11   515.47   517.66   518.04
eigval :      518.33   524.45   526.29   528.75   530.74   540.95
eigval :      541.56   542.13   545.01   547.21   558.92   570.14
eigval :      579.42   586.39   588.20   589.12   592.97   595.63
eigval :      603.54   638.81   651.78   654.46   662.66   670.64
eigval :      671.01   672.62   673.27   693.06   704.78   705.16
eigval :      705.96   707.11   728.38   729.01   737.06   753.27
eigval :      755.46   757.38   758.81   762.90   768.24   769.57
eigval :      771.67   775.35   781.40   781.84   782.32   806.53
eigval :      857.79   860.20   868.00   869.32   874.47   875.71
eigval :      876.55   879.65   887.79   892.70   894.06   895.35
eigval :      897.86   900.84   902.24   902.74   903.49   903.67
eigval :      905.82   906.54   907.45   918.99   921.34   921.91
eigval :      923.86   924.69   924.95   925.20   925.30   960.69
eigval :     1003.36  1012.26  1012.50  1014.37  1017.83  1068.57
eigval :     1068.94  1070.05  1070.25  1071.50  1073.05  1073.22
eigval :     1075.32  1076.36  1078.63  1114.50  1139.26  1148.11
eigval :     1151.01  1152.21  1152.90  1159.55  1160.79  1175.48
eigval :     1176.15  1177.48  1178.88  1179.36  1179.49  1180.71
eigval :     1181.98  1196.19  1215.15  1228.11  1228.60  1228.69
eigval :     1232.49  1233.82  1234.84  1245.92  1262.73  1285.81
eigval :     1286.94  1287.81  1289.98  1292.16  1292.54  1296.08
eigval :     1296.67  1299.43  1316.79  1316.92  1355.51  1356.16
eigval :     1356.65  1357.82  1357.99  1358.23  1358.50  1361.76
eigval :     1362.40  1403.19  1411.84  1413.11  1419.77  1421.81
eigval :     1424.58  1425.01  1426.26  1428.61  1430.77  1459.44
eigval :     1468.90  1469.85  1470.41  1472.96  1483.59  1483.65
eigval :     1484.07  1485.72  1487.00  1494.69  1577.19  1577.95
eigval :     1578.08  1578.27  1591.61  1591.78  1592.10  1592.85
eigval :     1599.20  1599.47  1600.24  1600.84  1610.75  1611.07
eigval :     1611.52  1614.14  2355.62  2359.73  3072.85  3073.14
eigval :     3074.06  3074.43  3076.90  3077.15  3082.96  3083.11
eigval :     3083.64  3083.78  3084.87  3085.18  3085.29  3085.55
eigval :     3088.55  3088.56  3090.41  3091.42  3092.25  3092.60
eigval :     3092.95  3093.31  3095.58  3095.61  3098.75  3100.90
eigval :     3101.08  3101.15  3101.28  3103.06  3103.21  3103.49

   temp. (K)  partition function   enthalpy   heat capacity  entropy
                                   cal/mol     cal/K/mol   cal/K/mol   J/K/mol
 298.15  VIB  0.423E+21            27977.665    178.845    171.762
         ROT  0.470E+08              888.752      2.981     38.088
         INT  0.199E+29            28866.417    181.826    209.850
         TR   0.214E+29             1481.254      4.968     45.854
         TOT                       30347.6710   186.7945   255.7041  1069.8658

       T/K    H(0)-H(T)+PV         H(T)/Eh          T*S/Eh         G(T)/Eh
   ------------------------------------------------------------------------
    298.15    0.483621E-01    0.749112E+00    0.121493E+00    0.627618E+00
   ------------------------------------------------------------------------

         :::::::::::::::::::::::::::::::::::::::::::::::::::::
         ::                  THERMODYNAMIC                  ::
         :::::::::::::::::::::::::::::::::::::::::::::::::::::
         :: total free energy        -153.294943891825 Eh   ::
         ::.................................................::
         :: total energy             -153.922562368627 Eh   ::
         :: zero point energy           0.700749640373 Eh   ::
         :: G(RRHO) w/o ZPVE           -0.073131163570 Eh   ::
         :: G(RRHO) contrib.            0.627618476802 Eh   ::
         :::::::::::::::::::::::::::::::::::::::::::::::::::::

           -------------------------------------------------
          | TOTAL ENERGY             -153.922562368627 Eh   |
          | TOTAL ENTHALPY           -153.173450636119 Eh   |
          | TOTAL FREE ENERGY        -153.294943891825 Eh   |
          | GRADIENT NORM               0.000058088105 Eh/α |
          | HOMO-LUMO GAP               1.833919846801 eV   |
           -------------------------------------------------

 * finished run on 2025/07/16 at 16:12:14.283
