   * xtb version 6.7.1 (edcfbbe) compiled by 'albert@albert-system' on 2024-07-22

   ID    Z sym.   atoms
    1    6 C      1-9, 11-14, 16-21, 23-28, 31-38
    2    7 N      10, 15, 22, 29, 30
    3    1 H      39-63

          program call               : xtb data2507/gas/DPQ-DMAC/DPQ-DMAC_gas_T1_crest.xyz --gfn 2 --spinpol --tblite --uhf 2 --ohess vtight --parallel 40 --molden --ceasefiles --namespace data2507/gas/DPQ-DMAC/DPQ-DMAC_gas_T1_finalOpt
 * total energy  :   -98.0037905 Eh     change       -0.1471776E-08 Eh
 * total energy  :   -98.0038221 Eh     change       -0.3157525E-04 Eh
 * total energy  :   -98.0038344 Eh     change       -0.1233886E-04 Eh
 * total energy  :   -98.0038379 Eh     change       -0.3479052E-05 Eh
 * total energy  :   -98.0038413 Eh     change       -0.3357014E-05 Eh
 * total energy  :   -98.0038448 Eh     change       -0.3547982E-05 Eh
 * total energy  :   -98.0038485 Eh     change       -0.3686429E-05 Eh
 * total energy  :   -98.0038507 Eh     change       -0.2239357E-05 Eh
 * total energy  :   -98.0038510 Eh     change       -0.2950147E-06 Eh
 * total energy  :   -98.0038520 Eh     change       -0.1015829E-05 Eh
 * total energy  :   -98.0038785 Eh     change       -0.8815083E-06 Eh
 * total energy  :   -98.0038794 Eh     change       -0.8343473E-06 Eh
 * total energy  :   -98.0038798 Eh     change       -0.4704366E-06 Eh
 * total energy  :   -98.0038804 Eh     change       -0.5411205E-06 Eh
 * total energy  :   -98.0038809 Eh     change       -0.5096228E-06 Eh
 * total energy  :   -98.0038815 Eh     change       -0.5881545E-06 Eh
 * total energy  :   -98.0038818 Eh     change       -0.3262802E-06 Eh
 * total energy  :   -98.0038820 Eh     change       -0.1715883E-06 Eh
 * total energy  :   -98.0038820 Eh     change       -0.3311726E-08 Eh
   *** GEOMETRY OPTIMIZATION CONVERGED AFTER 44 ITERATIONS ***

 final structure:
================
63
 xtb: 6.7.1 (edcfbbe)
C           -6.34466608366053       -1.21370587541045       -1.44724901370776
C           -5.81358572141631       -0.28484477149935       -0.33967629406606
C           -6.98632371507732        0.35804698265827        0.42381973608135
C           -4.99435668067811       -1.10938683432966        0.63361259077345
C           -5.59073427676972       -2.16346937066961        1.31148860734778
C           -4.89002152615115       -2.94842396288752        2.20858136917319
C           -3.55165007462022       -2.68254794581652        2.44273822273290
C           -2.93354679163869       -1.64215829620393        1.78438390656348
C           -3.64070160522886       -0.84468177680978        0.87722386843420
N           -2.99299043423858        0.19231574894245        0.23413411521049
C           -1.62006825573480        0.43637194443000        0.52684167403861
C           -1.27524953357188        1.29155689410091        1.56421541585504
C            0.05511358290016        1.53865414355825        1.85271116610670
C            1.07379825163736        0.93487945457735        1.11190422111632
N            2.36180107533906        1.16897362587830        1.34274273085006
C            3.32612107903000        0.58840384663068        0.62043143771817
C            4.70598218670239        0.95539915384018        0.84332981183219
C            5.07544895242921        1.60312491582439        2.03271588811086
C            6.39760460280950        1.94189461359899        2.21789812065110
C            7.32200098074907        1.64006969416363        1.22309194068424
C            6.85655548401653        1.02014723487849        0.07315264092142
N            5.59575167997590        0.69561516752016       -0.11435612013672
C            2.95848800845037       -0.34300430808760       -0.37265576744320
C            3.98748858367943       -1.11519511493913       -1.09715873315797
C            4.10643729934140       -1.00236132983804       -2.48076049520298
C            5.06431008492684       -1.76941541880029       -3.11837454228631
C            5.85222879385926       -2.62578453439936       -2.36446614284269
C            5.62941738352599       -2.68408231995595       -0.99678933043406
N            4.72337960107476       -1.95249090200191       -0.37992063714316
N            1.69485947587806       -0.56957246201119       -0.64454116426547
C            0.70884082890972        0.03646486726770        0.04208722867361
C           -0.63114591015281       -0.18964090794155       -0.23010281191106
C           -3.63778252752169        1.00652852517342       -0.67632747488140
C           -2.92870774343105        2.03916353223375       -1.30087929927776
C           -3.54391617690460        2.86954711207005       -2.21187874710582
C           -4.88157596778109        2.68628416919767       -2.51806753446162
C           -5.58471418166375        1.66693263488857       -1.90280634190595
C           -4.99127749317074        0.81496514076354       -0.98186997583573
H           -6.95137623116260       -0.66104406334394       -2.15911651289419
H           -5.51119893868978       -1.66427240161496       -1.98282557015424
H           -6.95300911293828       -2.00979290778759       -1.02724941245005
H           -7.60938842417225       -0.40125890988414        0.88805831810215
H           -7.60813798385172        0.94682580169994       -0.24474955591257
H           -6.60457813124376        1.01354102082956        1.20434611701520
H           -6.63333650651107       -2.38403643217945        1.13895958856582
H           -5.38514595854814       -3.76044641615284        2.71882205557700
H           -2.98742732763284       -3.28555086119376        3.13814045388865
H           -1.89024964720832       -1.43771096611353        1.96748966948692
H           -2.05417203849268        1.76484482400602        2.14283065023433
H            0.33180983492724        2.21014658644094        2.64951945668651
H            4.31681758556235        1.81433939151193        2.76950007519792
H            6.71371705163148        2.43533129181468        3.12611311793981
H            8.36634511014702        1.88515577485305        1.33418468082894
H            7.52444901078891        0.77639133202840       -0.74371997834495
H            3.46627050389005       -0.32724631030657       -3.02594547260765
H            5.19433347136338       -1.70195876941448       -4.18922713847419
H            6.61493537915500       -3.23475028446513       -2.82449898784285
H            6.20116376421599       -3.34874458926918       -0.36188331754818
H           -0.89938920472111       -0.86287601839429       -1.02880333517082
H           -1.88639415824418        2.18414997246907       -1.06323140540725
H           -2.97831206241483        3.65991543235567       -2.68209310431470
H           -5.37450758409828        3.33096761257796       -3.22960313852712
H           -6.62706144507927        1.53701921793965       -2.15189669198184

 projected vibrational frequencies (cm⁻¹)
eigval :       -0.00    -0.00     0.00     0.00     0.00     0.00
eigval :        5.89    10.64    19.00    19.87    41.13    45.98
eigval :       51.50    58.45    73.75    83.02    95.94   101.03
eigval :      129.78   135.57   139.45   162.18   178.73   191.57
eigval :      210.74   217.31   218.94   234.29   246.61   284.87
eigval :      290.31   304.87   315.55   329.08   341.20   347.45
eigval :      367.61   372.53   379.02   382.33   394.61   409.91
eigval :      415.30   446.29   446.48   450.58   494.51   511.78
eigval :      513.28   535.50   540.27   544.53   545.47   556.90
eigval :      582.46   585.80   589.16   595.58   596.78   626.78
eigval :      645.66   655.13   681.49   684.39   685.63   696.30
eigval :      696.66   705.27   726.30   727.87   761.69   765.58
eigval :      775.09   776.73   796.03   816.88   825.64   835.31
eigval :      847.11   866.06   866.73   873.58   880.29   883.54
eigval :      908.77   913.42   914.23   914.35   914.55   921.19
eigval :      921.43   924.70   930.00   932.98   938.04   957.38
eigval :      981.14   992.54  1011.51  1014.00  1077.00  1083.91
eigval :     1084.53  1090.38  1106.78  1109.64  1116.62  1117.47
eigval :     1127.91  1131.89  1139.80  1156.03  1157.20  1161.74
eigval :     1163.26  1183.90  1185.94  1186.29  1214.88  1226.08
eigval :     1235.79  1238.71  1241.74  1246.64  1254.66  1263.18
eigval :     1274.71  1282.90  1293.10  1294.81  1295.69  1306.28
eigval :     1324.95  1335.22  1337.49  1338.82  1354.30  1388.45
eigval :     1401.93  1403.11  1411.25  1419.92  1421.85  1434.34
eigval :     1435.19  1437.46  1441.73  1468.07  1472.30  1488.48
eigval :     1489.36  1490.05  1499.72  1503.87  1516.07  1527.18
eigval :     1533.77  1554.27  1566.72  1567.35  1571.94  1581.61
eigval :     1586.52  1596.86  3027.79  3029.92  3040.47  3042.97
eigval :     3046.51  3049.47  3052.81  3053.30  3069.00  3069.69
eigval :     3079.92  3080.23  3084.75  3085.24  3089.90  3093.74
eigval :     3095.60  3095.99  3097.86  3101.59  3102.04  3102.77
eigval :     3104.20  3104.94  3105.21

   temp. (K)  partition function   enthalpy   heat capacity  entropy
                                   cal/mol     cal/K/mol   cal/K/mol   J/K/mol
 298.15  VIB  0.225E+15            17932.998    113.256    112.199
         ROT  0.419E+08              888.752      2.981     37.861
         INT  0.945E+22            18821.750    116.237    150.060
         TR   0.105E+29             1481.254      4.968     44.445
         TOT                       20303.0038   121.2051   194.5047   813.8077

       T/K    H(0)-H(T)+PV         H(T)/Eh          T*S/Eh         G(T)/Eh
   ------------------------------------------------------------------------
    298.15    0.323549E-01    0.515757E+00    0.924155E-01    0.423341E+00
   ------------------------------------------------------------------------

         :::::::::::::::::::::::::::::::::::::::::::::::::::::
         ::                  THERMODYNAMIC                  ::
         :::::::::::::::::::::::::::::::::::::::::::::::::::::
         :: total free energy         -97.580540576443 Eh   ::
         ::.................................................::
         :: total energy              -98.003881907210 Eh   ::
         :: zero point energy           0.483401900435 Eh   ::
         :: G(RRHO) w/o ZPVE           -0.060060569668 Eh   ::
         :: G(RRHO) contrib.            0.423341330767 Eh   ::
         :::::::::::::::::::::::::::::::::::::::::::::::::::::

           -------------------------------------------------
          | TOTAL ENERGY              -98.003881907210 Eh   |
          | TOTAL ENTHALPY            -97.488125110770 Eh   |
          | TOTAL FREE ENERGY         -97.580540576443 Eh   |
          | GRADIENT NORM               0.000080883291 Eh/α |
           -------------------------------------------------

 * finished run on 2025/07/20 at 14:42:31.010
