   * xtb version 6.7.1 (edcfbbe) compiled by 'albert@albert-system' on 2024-07-22

   ID    Z sym.   atoms
    1    6 C      1-9, 11-14, 16-21, 23-28, 31-38
    2    7 N      10, 15, 22, 29, 30
    3    1 H      39-63

          program call               : xtb data2507/gas/DPQ-DMAC/DPQ-DMAC_gas_S0_finalOpt.xtbopt.xyz --gfn 2 --spinpol --tblite --uhf 2 --ohess vtight --parallel 40 --molden --ceasefiles --namespace data2507/gas/DPQ-DMAC/DPQ-DMAC_gas_T1_preOpt
 * total energy  :   -97.9991709 Eh     change        0.4736705E-08 Eh
 * total energy  :   -98.0023648 Eh     change       -0.3193903E-02 Eh
 * total energy  :   -98.0032698 Eh     change       -0.9050133E-03 Eh
 * total energy  :   -98.0034311 Eh     change       -0.1612921E-03 Eh
 * total energy  :   -98.0035265 Eh     change       -0.9539348E-04 Eh
 * total energy  :   -98.0035546 Eh     change       -0.2810358E-04 Eh
 * total energy  :   -98.0035900 Eh     change       -0.3546825E-04 Eh
 * total energy  :   -98.0036373 Eh     change       -0.4722312E-04 Eh
 * total energy  :   -98.0036852 Eh     change       -0.4794019E-04 Eh
 * total energy  :   -98.0037195 Eh     change       -0.3432436E-04 Eh
 * total energy  :   -98.0038601 Eh     change       -0.5556494E-06 Eh
 * total energy  :   -98.0038606 Eh     change       -0.5118490E-06 Eh
 * total energy  :   -98.0038609 Eh     change       -0.3141125E-06 Eh
 * total energy  :   -98.0038614 Eh     change       -0.4484182E-06 Eh
 * total energy  :   -98.0038618 Eh     change       -0.3755030E-06 Eh
 * total energy  :   -98.0038620 Eh     change       -0.2392251E-06 Eh
 * total energy  :   -98.0038621 Eh     change       -0.1212998E-06 Eh
 * total energy  :   -98.0038623 Eh     change       -0.1221348E-06 Eh
 * total energy  :   -98.0038624 Eh     change       -0.9585214E-07 Eh
   *** GEOMETRY OPTIMIZATION CONVERGED AFTER 65 ITERATIONS ***

 final structure:
================
63
 xtb: 6.7.1 (edcfbbe)
C           -6.36747187200816        1.29096641799837       -1.32598709813153
C           -5.81286059819004        0.38971629394105       -0.20718684751440
C           -6.96605285906579       -0.17310273572570        0.64429325841900
C           -5.06741988298556       -0.76698436276529       -0.84295794228285
C           -5.74006370135266       -1.62905861970381       -1.69780144235899
C           -5.10643779177600       -2.69109860646977       -2.31610009357676
C           -3.75745508890086       -2.90273793472685       -2.08778170085185
C           -3.06476457910228       -2.06388762472711       -1.24257801674267
C           -3.70656281868491       -0.99655958656633       -0.60369106828478
N           -2.98638433572153       -0.17799661100823        0.24511681363551
C           -1.61323349883063       -0.46975039188184        0.48584588637121
C           -1.26688214873520       -1.44305495919166        1.41110025765482
C            0.06801052637270       -1.72789293369332        1.65436125116680
C            1.07839075983467       -1.04737156813252        0.98132354794618
N            2.37517405140750       -1.26725863604012        1.21862069473396
C            3.32629367126890       -0.60658834835055        0.57270698026377
C            4.71555747298206       -0.80096243394433        0.97968807699167
C            5.15070946391070       -2.06618115066949        1.38371540192719
C            6.46489452036821       -2.21462625956264        1.78125504771971
C            7.30020267601321       -1.10623905217136        1.77736817119986
C            6.76263179575912        0.11196943724892        1.38681997811352
N            5.51242240122289        0.26259925297104        1.00448791614017
C            2.97290394984858        0.30227600453063       -0.44415747649338
C            3.98009957541307        0.91907381377873       -1.30247363848947
C            3.79144566640593        2.22290596102291       -1.77002712758302
C            4.75428211908728        2.77296983637021       -2.59289349456880
C            5.86391427784287        2.01266898839077       -2.93544508510406
C            5.94201438071226        0.71758650744206       -2.44326459024108
N            5.03064931807144        0.18578914365850       -1.65695376350928
N            1.69350251937275        0.57446841920877       -0.66487505973370
C            0.71615450137720       -0.04304527135451        0.00806697990432
C           -0.62863730203992        0.22452943882294       -0.21443091968480
C           -3.56168986435744        0.90600457712404        0.88012347001045
C           -2.78674106703567        1.69500526978711        1.73820261141443
C           -3.33044547419019        2.78531788440395        2.38131926504105
C           -4.66216904655590        3.10847982907750        2.18481538555213
C           -5.43351153918221        2.32397463685997        1.34734339279149
C           -4.91291889094889        1.22016870161552        0.68634556298656
H           -7.03249169749873        0.73341607243274       -1.97952032520728
H           -6.92151698685886        2.12821052109972       -0.91091801618674
H           -5.54772411830690        1.68398790004661       -1.92438403925875
H           -7.64330929445675       -0.76625106731231        0.03618457792720
H           -7.53566178622351        0.62936302335139        1.10460169316564
H           -6.56749016312184       -0.80784338204695        1.43352908712671
H           -6.79035299366939       -1.47217155879675       -1.89190238910684
H           -5.66034344162707       -3.34344963292871       -2.97373470100719
H           -3.24275579962719       -3.72074938460049       -2.56898380702812
H           -2.01236431416603       -2.22783592793292       -1.07138641879497
H           -2.04251259383765       -1.97508087760378        1.94053068593051
H            0.34868089292913       -2.47250463116083        2.38182472685871
H            4.45975750487582       -2.89396529275806        1.37383810949146
H            6.83643368935784       -3.18107266347904        2.09136770469457
H            8.33406393385802       -1.18223686485406        2.07581493195754
H            7.36071051755399        1.01453849006863        1.38546516587801
H            2.90844467359236        2.76893744543866       -1.47870599304355
H            4.64411622554088        3.78185431821935       -2.96473109060023
H            6.64035531591476        2.40853452581661       -3.57113926897661
H            6.77281437171955        0.07064568092141       -2.69537895532571
H           -0.90220364292368        0.96951699888581       -0.94461090341704
H           -1.75030166729956        1.44276153385935        1.89850152926002
H           -2.71379466601467        3.38108813093764        3.03738042776329
H           -5.09894626416740        3.96085171416884        2.68236568914184
H           -6.47221490528793        2.58408153453551        1.21011416986480

 projected vibrational frequencies (cm⁻¹)
eigval :       -0.00    -0.00    -0.00     0.00     0.00     0.00
eigval :        6.70     8.91    18.16    18.67    38.61    43.58
eigval :       51.54    58.82    78.20    81.67    96.22   101.50
eigval :      129.32   137.66   141.80   159.14   181.21   191.25
eigval :      212.95   218.81   222.22   235.49   256.81   277.16
eigval :      285.65   304.21   313.61   329.32   339.17   348.16
eigval :      370.81   374.34   378.55   382.78   390.92   409.94
eigval :      414.24   445.89   450.75   455.52   494.74   511.70
eigval :      516.09   536.26   540.04   544.46   545.55   555.76
eigval :      582.67   585.88   591.54   594.46   598.45   623.42
eigval :      640.99   654.83   681.39   683.61   684.84   696.38
eigval :      703.00   704.18   726.72   729.49   764.91   765.04
eigval :      775.04   776.68   796.27   809.50   825.57   834.56
eigval :      846.65   866.15   866.96   874.43   879.94   880.26
eigval :      911.88   912.19   913.41   914.23   914.56   921.17
eigval :      921.29   927.47   927.74   932.27   937.93   957.15
eigval :      982.73   993.89  1011.09  1013.75  1076.94  1083.85
eigval :     1087.89  1089.09  1107.38  1110.61  1116.42  1117.11
eigval :     1125.27  1132.63  1140.03  1157.08  1159.04  1160.01
eigval :     1163.09  1184.49  1186.10  1186.64  1214.98  1233.12
eigval :     1234.17  1239.95  1242.55  1247.03  1258.40  1263.58
eigval :     1275.17  1285.86  1290.97  1294.38  1294.86  1305.52
eigval :     1311.76  1324.92  1335.62  1338.00  1352.73  1386.01
eigval :     1401.57  1403.62  1411.24  1419.08  1420.44  1434.18
eigval :     1434.59  1436.57  1437.72  1467.77  1472.55  1488.62
eigval :     1488.75  1489.45  1499.08  1503.19  1516.69  1527.18
eigval :     1538.72  1545.76  1566.70  1567.67  1569.29  1581.54
eigval :     1586.42  1597.80  3027.71  3029.81  3040.45  3042.99
eigval :     3048.91  3049.43  3050.11  3052.66  3069.29  3069.61
eigval :     3080.17  3080.33  3085.28  3085.46  3092.12  3095.64
eigval :     3095.87  3095.93  3096.64  3102.96  3103.18  3103.48
eigval :     3104.81  3105.42  3106.13

   temp. (K)  partition function   enthalpy   heat capacity  entropy
                                   cal/mol     cal/K/mol   cal/K/mol   J/K/mol
 298.15  VIB  0.267E+15            17926.317    113.166    112.154
         ROT  0.419E+08              888.752      2.981     37.860
         INT  0.112E+23            18815.070    116.147    150.015
         TR   0.105E+29             1481.254      4.968     44.445
         TOT                       20296.3237   121.1151   194.4592   813.6174

       T/K    H(0)-H(T)+PV         H(T)/Eh          T*S/Eh         G(T)/Eh
   ------------------------------------------------------------------------
    298.15    0.323443E-01    0.515715E+00    0.923939E-01    0.423321E+00
   ------------------------------------------------------------------------

         :::::::::::::::::::::::::::::::::::::::::::::::::::::
         ::                  THERMODYNAMIC                  ::
         :::::::::::::::::::::::::::::::::::::::::::::::::::::
         :: total free energy         -97.580541240131 Eh   ::
         ::.................................................::
         :: total energy              -98.003862350760 Eh   ::
         :: zero point energy           0.483370710796 Eh   ::
         :: G(RRHO) w/o ZPVE           -0.060049600167 Eh   ::
         :: G(RRHO) contrib.            0.423321110629 Eh   ::
         :::::::::::::::::::::::::::::::::::::::::::::::::::::

           -------------------------------------------------
          | TOTAL ENERGY              -98.003862350760 Eh   |
          | TOTAL ENTHALPY            -97.488147389401 Eh   |
          | TOTAL FREE ENERGY         -97.580541240131 Eh   |
          | GRADIENT NORM               0.000042521851 Eh/α |
           -------------------------------------------------

 * finished run on 2025/07/20 at 14:38:39.204
