   * xtb version 6.7.1 (edcfbbe) compiled by 'albert@albert-system' on 2024-07-22

   ID    Z sym.   atoms
    1    6 C      1-9, 11-14, 16-21, 23-28, 31-38
    2    7 N      10, 15, 22, 29, 30
    3    1 H      39-63

          program call               : xtb data2507/gas/DPQ-DMAC/DPQ-DMAC_gas_S0_crest.xyz --gfn 2 --ohess vtight --parallel 40 --molden --ceasefiles --namespace data2507/gas/DPQ-DMAC/DPQ-DMAC_gas_S0_finalOpt
          :  Hamiltonian                  GFN2-xTB          :
 * total energy  :   -98.0515990 Eh     change       -0.2826141E-08 Eh
 * total energy  :   -98.0516000 Eh     change       -0.1023000E-05 Eh
 * total energy  :   -98.0516017 Eh     change       -0.1692526E-05 Eh
 * total energy  :   -98.0516044 Eh     change       -0.2703905E-05 Eh
 * total energy  :   -98.0516061 Eh     change       -0.1661725E-05 Eh
 * total energy  :   -98.0516071 Eh     change       -0.1016394E-05 Eh
 * total energy  :   -98.0516080 Eh     change       -0.8790253E-06 Eh
 * total energy  :   -98.0516087 Eh     change       -0.6982582E-06 Eh
 * total energy  :   -98.0516092 Eh     change       -0.5006694E-06 Eh
 * total energy  :   -98.0516095 Eh     change       -0.3253900E-06 Eh
 * total energy  :   -98.0516096 Eh     change       -0.1438614E-06 Eh
 * total energy  :   -98.0516096 Eh     change        0.1342704E-07 Eh
 * total energy  :   -98.0516097 Eh     change       -0.9915540E-07 Eh
   *** GEOMETRY OPTIMIZATION CONVERGED AFTER 13 ITERATIONS ***

 final structure:
================
63
 xtb: 6.7.1 (edcfbbe)
C           -6.42193239620130        1.21567797275832       -1.31053009486051
C           -5.82132664100448        0.37719350988048       -0.16735512665278
C           -6.93493290392508       -0.12023749547551        0.77231305894749
C           -5.11767567858634       -0.82294680970814       -0.77014587514263
C           -5.84292191959458       -1.72306852934957       -1.53912197736267
C           -5.25155319532277       -2.81642729976066       -2.14360006897015
C           -3.89017394888381       -3.01266073232186       -1.99941767003534
C           -3.14627071279150       -2.13423013251186       -1.24041809463572
C           -3.74815096284889       -1.04754076137788       -0.59842208868079
N           -2.97448805282775       -0.18994682631730        0.17159258437725
C           -1.60425689106906       -0.49474151497874        0.36206290804709
C           -1.25778715389454       -1.60247247377724        1.16787131504593
C            0.05021337781577       -1.92046958145649        1.39640632154438
C            1.07240338201220       -1.13717427629673        0.82415599352885
N            2.36245525222800       -1.38938014308340        1.11552009243676
C            3.28199346519648       -0.64900455393973        0.54893486500344
C            4.67543194225142       -0.82887686713254        0.97222400687783
C            5.18077126807613       -2.10256501823781        1.22512279003090
C            6.50295047553100       -2.22085186710576        1.61333160571018
C            7.26597355464395       -1.07105453946914        1.74690611392016
C            6.65876537717058        0.15076485235256        1.49386291165453
N            5.40210207411104        0.27622383419383        1.11767614081387
C            2.93531832319033        0.33814706634663       -0.42920087231123
C            3.97447936097808        0.99453208813935       -1.23137529184526
C            3.87507720039284        2.34716850110845       -1.55046614095423
C            4.88513249474226        2.92214424060805       -2.30034591857462
C            5.94517365193708        2.12985421688965       -2.71325401483323
C            5.93520627362253        0.78745301725182       -2.36170447109938
N            4.98222614098995        0.22940800277719       -1.64281079350633
N            1.68585988289507        0.65228094188914       -0.65920092199606
C            0.72553827407518       -0.04278696455880       -0.01694685613287
C           -0.62843148426217        0.27257358269035       -0.22542818450233
C           -3.51570365982475        0.93478398730494        0.78130271340470
C           -2.71072496537422        1.74771905513512        1.58472449868063
C           -3.22114983543462        2.87354005247805        2.19542292712519
C           -4.55214207971343        3.20745581781211        2.02363998577400
C           -5.35756299727594        2.38946754681171        1.25426580384898
C           -4.87035650243591        1.24867998832044        0.63024461770731
H           -7.12388486267644        0.62844867214922       -1.89600369655133
H           -6.94655233606637        2.08383010392560       -0.92136431720290
H           -5.62878635036975        1.56105792727682       -1.97104406081276
H           -7.64543465524565       -0.74342161856648        0.23635866621699
H           -7.47656997655890        0.71399581372805        1.20931914103138
H           -6.50235747221102       -0.70870929888521        1.57939944133256
H           -6.90272066841261       -1.56990011233014       -1.67602372126799
H           -5.84614353215946       -3.49914627747824       -2.73114987670367
H           -3.40211689028713       -3.84678387256075       -2.48104663603685
H           -2.08177617580020       -2.28644217562664       -1.15002966738376
H           -2.05368060479903       -2.18580974383456        1.60730344726787
H            0.33146964589810       -2.75186718072269        2.02343924248223
H            4.54101065052229       -2.96213768468818        1.10739873239683
H            6.93308581478426       -3.19262056505223        1.81009247315276
H            8.30186904472480       -1.11858021235113        2.04521308296685
H            7.20463342942053        1.07987605885293        1.60006137853210
H            3.02638466268050        2.91480041631600       -1.20480351164061
H            4.84756425302042        3.97041953489481       -2.56063190828628
H            6.75498494039602        2.53878927693032       -3.29746664414392
H            6.72979316581845        0.12114223407621       -2.67334114085073
H           -0.87890564744094        1.11423842910467       -0.85243137465727
H           -1.67409230837139        1.49089753101357        1.73750547785464
H           -2.57642197448816        3.48615308573440        2.80774920150239
H           -4.96300582892801        4.08885661673484        2.49181407806328
H           -6.39894285833837        2.65083311217031        1.14218753335462

          :  Hamiltonian                  GFN2-xTB          :
         :: gradient norm              0.000070185311 Eh/a0 ::
         :: HOMO-LUMO gap              1.271554233508 eV    ::
         :: SCC energy               -99.773048513796 Eh    ::
         :: -> dispersion             -0.086667772863 Eh    ::
         :: repulsion energy           1.721438790924 Eh    ::

    * Orbital Energies and Occupations

         #    Occupation            Energy/Eh            Energy/eV
      -------------------------------------------------------------
         1        2.0000           -0.6801685             -18.5083
       ...           ...                  ...                  ...
        79        2.0000           -0.4211882             -11.4611
        80        2.0000           -0.4192716             -11.4090
        81        2.0000           -0.4100026             -11.1567
        82        2.0000           -0.4067726             -11.0688
        83        2.0000           -0.4041325             -10.9970
        84        2.0000           -0.4013554             -10.9214
        85        2.0000           -0.3997943             -10.8790
        86        2.0000           -0.3958308             -10.7711
        87        2.0000           -0.3905989             -10.6287
        88        2.0000           -0.3722206             -10.1286
        89        2.0000           -0.3697666             -10.0619
        90        2.0000           -0.3535401              -9.6203
        91        2.0000           -0.3454818              -9.4010 (HOMO)
        92                         -0.2987531              -8.1295 (LUMO)
        93                         -0.2728582              -7.4248
        94                         -0.2465232              -6.7082
        95                         -0.2451040              -6.6696
        96                         -0.2315897              -6.3019
        97                         -0.2274619              -6.1896
        98                         -0.2223212              -6.0497
        99                         -0.2170999              -5.9076
       100                         -0.2167432              -5.8979
       101                         -0.2139508              -5.8219
       102                         -0.1882905              -5.1236
       ...                                ...                  ...
       177                          0.6913299              18.8120
      -------------------------------------------------------------
                  HL-Gap            0.0467286 Eh            1.2716 eV

     #   Z          covCN         q      C6AA      α(0)
     1   6 C        3.761    -0.103    22.518     6.765
     2   6 C        3.909     0.021    20.157     6.381
     3   6 C        3.761    -0.103    22.514     6.764
     4   6 C        2.980    -0.013    28.336     8.732
     5   6 C        2.928    -0.036    28.897     8.816
     6   6 C        2.917    -0.044    29.094     8.845
     7   6 C        2.920    -0.033    28.814     8.803
     8   6 C        2.924    -0.058    29.444     8.899
     9   6 C        2.928     0.058    26.701     8.474
    10   7 N        2.754    -0.067    22.547     7.052
    11   6 C        2.924     0.072    26.382     8.423
    12   6 C        2.919    -0.036    28.907     8.817
    13   6 C        2.916    -0.038    28.950     8.823
    14   6 C        2.969     0.079    26.244     8.403
    15   7 N        1.849    -0.225    26.764     7.667
    16   6 C        2.960     0.094    25.914     8.350
    17   6 C        2.972     0.101    25.757     8.325
    18   6 C        2.919    -0.032    28.805     8.801
    19   6 C        2.928    -0.009    28.241     8.715
    20   6 C        2.915    -0.038    28.949     8.823
    21   6 C        2.910     0.064    26.577     8.453
    22   7 N        1.843    -0.229    26.852     7.680
    23   6 C        2.959     0.095    25.880     8.344
    24   6 C        2.973     0.101    25.757     8.325
    25   6 C        2.919    -0.032    28.800     8.800
    26   6 C        2.928    -0.009    28.238     8.715
    27   6 C        2.915    -0.038    28.944     8.822
    28   6 C        2.910     0.064    26.576     8.453
    29   7 N        1.843    -0.229    26.844     7.679
    30   7 N        1.849    -0.226    26.786     7.671
    31   6 C        2.968     0.081    26.199     8.396
    32   6 C        2.920    -0.050    29.250     8.869
    33   6 C        2.926     0.058    26.704     8.475
    34   6 C        2.924    -0.058    29.446     8.899
    35   6 C        2.920    -0.032    28.807     8.801
    36   6 C        2.917    -0.044    29.094     8.845
    37   6 C        2.928    -0.036    28.897     8.816
    38   6 C        2.980    -0.013    28.337     8.732
    39   1 H        0.925     0.039     2.459     2.452
    40   1 H        0.925     0.039     2.457     2.451
    41   1 H        0.925     0.032     2.558     2.501
    42   1 H        0.925     0.039     2.458     2.452
    43   1 H        0.925     0.039     2.457     2.451
    44   1 H        0.925     0.031     2.570     2.507
    45   1 H        0.926     0.030     2.581     2.512
    46   1 H        0.926     0.027     2.635     2.538
    47   1 H        0.926     0.028     2.616     2.529
    48   1 H        0.926     0.024     2.670     2.555
    49   1 H        0.926     0.051     2.312     2.378
    50   1 H        0.926     0.060     2.203     2.321
    51   1 H        0.926     0.052     2.290     2.366
    52   1 H        0.926     0.040     2.454     2.450
    53   1 H        0.926     0.038     2.479     2.462
    54   1 H        0.925     0.037     2.490     2.468
    55   1 H        0.926     0.053     2.282     2.362
    56   1 H        0.926     0.040     2.450     2.448
    57   1 H        0.926     0.038     2.476     2.461
    58   1 H        0.925     0.037     2.488     2.467
    59   1 H        0.926     0.062     2.171     2.304
    60   1 H        0.926     0.024     2.671     2.556
    61   1 H        0.926     0.028     2.613     2.528
    62   1 H        0.926     0.027     2.635     2.539
    63   1 H        0.926     0.030     2.581     2.512

molecular dipole:
                 x           y           z       tot (Debye)
 q only:        0.162      -0.013       0.009
   full:        0.457       0.015      -0.015       1.163

 projected vibrational frequencies (cm⁻¹)
eigval :       -0.00     0.00     0.00     0.00     0.00     0.00
eigval :       11.81    16.27    18.31    28.33    38.24    44.04
eigval :       53.72    60.89    75.63    77.08    98.64   103.01
eigval :      128.02   137.67   142.15   153.29   182.67   189.69
eigval :      216.36   220.33   225.80   237.34   263.13   280.46
eigval :      299.32   306.68   312.87   331.92   343.13   352.23
eigval :      368.24   373.26   376.27   382.56   396.71   409.54
eigval :      415.93   451.20   453.78   461.95   490.33   508.38
eigval :      514.91   539.74   545.33   547.44   554.06   566.52
eigval :      586.64   593.43   595.10   599.33   604.74   639.76
eigval :      655.64   683.03   685.97   691.37   694.07   710.57
eigval :      716.36   730.62   735.22   757.20   770.73   776.90
eigval :      778.11   783.96   819.36   828.70   841.66   855.59
eigval :      866.86   867.32   881.46   887.74   888.00   913.20
eigval :      914.08   915.33   916.53   916.68   920.87   921.52
eigval :      922.91   933.42   933.49   938.47   957.28   964.94
eigval :      987.02   998.34  1014.55  1028.72  1077.21  1080.37
eigval :     1088.69  1090.08  1106.65  1114.85  1120.40  1120.52
eigval :     1124.90  1141.35  1143.15  1160.20  1160.52  1161.63
eigval :     1163.45  1184.52  1188.61  1188.89  1210.76  1236.36
eigval :     1243.03  1244.38  1249.27  1253.05  1268.46  1269.71
eigval :     1288.02  1290.51  1293.75  1295.43  1298.18  1323.97
eigval :     1332.75  1335.08  1341.51  1378.55  1396.96  1402.92
eigval :     1407.72  1416.27  1420.96  1425.62  1436.34  1440.21
eigval :     1442.65  1455.92  1479.50  1481.15  1490.03  1491.03
eigval :     1495.27  1500.55  1505.31  1522.16  1533.85  1559.12
eigval :     1561.06  1575.67  1576.17  1579.45  1590.11  1593.21
eigval :     1596.61  1603.26  3026.76  3029.19  3039.70  3042.39
eigval :     3048.61  3050.13  3050.50  3052.61  3070.54  3070.80
eigval :     3078.68  3078.88  3083.44  3083.76  3087.25  3093.49
eigval :     3093.81  3094.17  3095.10  3100.74  3102.56  3103.50
eigval :     3104.16  3108.29  3108.71

   temp. (K)  partition function   enthalpy   heat capacity  entropy
                                   cal/mol     cal/K/mol   cal/K/mol   J/K/mol
 298.15  VIB  0.491E+14            17740.805    112.111    109.983
         ROT  0.416E+08              888.752      2.981     37.842
         INT  0.204E+22            18629.558    115.092    147.825
         TR   0.105E+29             1481.254      4.968     44.445
         TOT                       20110.8115   120.0601   192.2699   804.4572

       T/K    H(0)-H(T)+PV         H(T)/Eh          T*S/Eh         G(T)/Eh
   ------------------------------------------------------------------------
    298.15    0.320486E-01    0.518150E+00    0.913536E-01    0.426796E+00
   ------------------------------------------------------------------------

         :::::::::::::::::::::::::::::::::::::::::::::::::::::
         ::                  THERMODYNAMIC                  ::
         :::::::::::::::::::::::::::::::::::::::::::::::::::::
         :: total free energy         -97.624813761570 Eh   ::
         ::.................................................::
         :: total energy              -98.051609722876 Eh   ::
         :: zero point energy           0.486100967935 Eh   ::
         :: G(RRHO) w/o ZPVE           -0.059305006628 Eh   ::
         :: G(RRHO) contrib.            0.426795961306 Eh   ::
         :::::::::::::::::::::::::::::::::::::::::::::::::::::

           -------------------------------------------------
          | TOTAL ENERGY              -98.051609722876 Eh   |
          | TOTAL ENTHALPY            -97.533460136875 Eh   |
          | TOTAL FREE ENERGY         -97.624813761570 Eh   |
          | GRADIENT NORM               0.000070127110 Eh/α |
          | HOMO-LUMO GAP               1.271550398207 eV   |
           -------------------------------------------------

 * finished run on 2025/07/20 at 14:38:31.424
