   * xtb version 6.7.1 (edcfbbe) compiled by 'albert@albert-system' on 2024-07-22

   ID    Z sym.   atoms
    1    6 C      1-9, 11-14, 16-21, 23-28, 31-38
    2    7 N      10, 15, 22, 29, 30
    3    1 H      39-63

          program call               : xtb data2507/gas/DPQ-DMAC/DPQ-DMAC.xyz --gfn 2 --ohess vtight --parallel 40 --molden --ceasefiles --namespace data2507/gas/DPQ-DMAC/DPQ-DMAC_gas_S0_preOpt
          :  Hamiltonian                  GFN2-xTB          :
 * total energy  :   -98.0244750 Eh     change       -0.1076785E-08 Eh
 * total energy  :   -98.0422873 Eh     change       -0.1781235E-01 Eh
 * total energy  :   -98.0480597 Eh     change       -0.5772397E-02 Eh
 * total energy  :   -98.0491360 Eh     change       -0.1076266E-02 Eh
 * total energy  :   -98.0500277 Eh     change       -0.8917238E-03 Eh
 * total energy  :   -98.0503135 Eh     change       -0.2858348E-03 Eh
 * total energy  :   -98.0505542 Eh     change       -0.2406642E-03 Eh
 * total energy  :   -98.0508016 Eh     change       -0.2474236E-03 Eh
 * total energy  :   -98.0510334 Eh     change       -0.2317823E-03 Eh
 * total energy  :   -98.0511913 Eh     change       -0.1578629E-03 Eh
 * total energy  :   -98.0516052 Eh     change       -0.4185093E-06 Eh
 * total energy  :   -98.0516056 Eh     change       -0.3754886E-06 Eh
 * total energy  :   -98.0516060 Eh     change       -0.4108406E-06 Eh
 * total energy  :   -98.0516065 Eh     change       -0.4601710E-06 Eh
 * total energy  :   -98.0516070 Eh     change       -0.5381367E-06 Eh
 * total energy  :   -98.0516076 Eh     change       -0.6000859E-06 Eh
 * total energy  :   -98.0516081 Eh     change       -0.5377438E-06 Eh
 * total energy  :   -98.0516084 Eh     change       -0.3089242E-06 Eh
 * total energy  :   -98.0516085 Eh     change       -0.5378227E-07 Eh
   *** GEOMETRY OPTIMIZATION CONVERGED AFTER 78 ITERATIONS ***

 final structure:
================
63
 xtb: 6.7.1 (edcfbbe)
C           -5.99622479980230        0.04359289868738       -1.62612723584604
C           -5.36863374551794        0.05066034577094       -0.22021065020283
C           -6.46526987877188        0.17172877360722        0.85366615181389
C           -4.62836605331273       -1.25694529920405       -0.01726466614177
C           -5.32476722199293       -2.45504188090567       -0.10089416966054
C           -4.69971646173388       -3.67961888932980        0.04187153803401
C           -3.33371517117730       -3.71935759176515        0.25441654002019
C           -2.61799558586314       -2.54417617604186        0.34281444754085
C           -3.25323505257580       -1.30342756343416        0.23238551541031
N           -2.50687587220204       -0.13827133339272        0.33947918676586
C           -1.12900601676121       -0.23811731273584        0.65433179880634
C           -0.75465167379254       -0.63428457228926        1.95776935048996
C            0.56100703235317       -0.71899552077616        2.31314223730268
C            1.56259271178358       -0.40892922290877        1.37161721073103
N            2.85789032805965       -0.39869939234567        1.73861120213076
C            3.75834800283653       -0.12331817094085        0.82859107985911
C            5.15269853561420        0.03138875318402        1.25821630649490
C            5.69088604511146       -0.80604060787013        2.23336740521826
C            7.01181137785095       -0.62449163823818        2.60079672329859
C            7.74127859833161        0.38693653030229        1.99500347257812
C            7.10293165038521        1.18007284760633        1.05207990020383
N            5.84693419011484        1.01391597831416        0.68979090144155
C            3.38805353029613        0.06279558301780       -0.54253360498566
C            4.40995052608719        0.12667027890462       -1.59395539554634
C            4.26808038110599        1.00453968020074       -2.66668963677439
C            5.26174203620807        1.03430728865282       -3.62833339276089
C            6.34846519529084        0.18418900754204       -3.49319866938952
C            6.38063356353576       -0.66877049319399       -2.39902989180626
N            5.44340936657246       -0.70255447576041       -1.47335041021736
N            2.13098632197160        0.14285289250302       -0.89768597536143
C            1.18814887234645       -0.04858528061742        0.04665738260346
C           -0.17340917500114        0.04650168440585       -0.28995881808817
C           -3.08135234640354        1.11610601277510        0.17942952800181
C           -2.30062345579805        2.26526784164476        0.33484967416810
C           -2.84470832755736        3.52206403809865        0.17541380739527
C           -4.18555404700990        3.65845530433608       -0.13454044404508
C           -4.96617242409209        2.52508585405370       -0.26085470795210
C           -4.44477847237954        1.24777102918530       -0.10368142735440
H           -6.68168009511036       -0.79133941410457       -1.74171705685886
H           -6.54560244484117        0.96246887146312       -1.81108424476953
H           -5.21498177660284       -0.04700155285011       -2.37850941726866
H           -7.15579128679120       -0.66534084792659        0.79932361328502
H           -7.03287652444822        1.08954876541536        0.72812026635475
H           -6.01361844993819        0.18064034017681        1.84399298126079
H           -6.38831575320488       -2.43828227356060       -0.28521059220522
H           -5.27236490746358       -4.59202999865704       -0.02470290619141
H           -2.82031967051235       -4.66473413687663        0.34732066202814
H           -1.54990936224011       -2.58672691254151        0.49102346850310
H           -1.53544481855707       -0.85804422252774        2.66988042391446
H            0.86323635648849       -1.00131076576898        3.30935919459038
H            5.07621051821324       -1.57490009826709        2.67271151184399
H            7.46663794123314       -1.25929692828469        3.34794168276896
H            8.77508484974925        0.56114526696840        2.25040184638167
H            7.62194708542866        1.99399973780826        0.56151418595761
H            3.39995392445131        1.64111880083019       -2.72222696907336
H            5.19102383781048        1.70749066586179       -4.47086787424068
H            7.14672604056577        0.17690821818109       -4.21918380273377
H            7.19756718219097       -1.36485062705130       -2.25567832914465
H           -0.44555221474802        0.33809654712299       -1.29253149937987
H           -1.25634732356468        2.17257416950368        0.58951110449087
H           -2.21836428453787        4.39316249509259        0.29708816245465
H           -4.62285482098547        4.63629506699599       -0.26669739095257
H           -6.01515348668703        2.64512963198043       -0.48577228519235

          :  Hamiltonian                  GFN2-xTB          :
         :: gradient norm              0.000114011967 Eh/a0 ::
         :: HOMO-LUMO gap              1.263811004374 eV    ::
         :: SCC energy               -99.773123625293 Eh    ::
         :: -> dispersion             -0.086639709610 Eh    ::
         :: repulsion energy           1.721515130117 Eh    ::

    * Orbital Energies and Occupations

         #    Occupation            Energy/Eh            Energy/eV
      -------------------------------------------------------------
         1        2.0000           -0.6802878             -18.5116
       ...           ...                  ...                  ...
        79        2.0000           -0.4212756             -11.4635
        80        2.0000           -0.4194065             -11.4126
        81        2.0000           -0.4099422             -11.1551
        82        2.0000           -0.4066505             -11.0655
        83        2.0000           -0.4041443             -10.9973
        84        2.0000           -0.4012694             -10.9191
        85        2.0000           -0.3997285             -10.8772
        86        2.0000           -0.3957487             -10.7689
        87        2.0000           -0.3905152             -10.6265
        88        2.0000           -0.3722673             -10.1299
        89        2.0000           -0.3697726             -10.0620
        90        2.0000           -0.3536614              -9.6236
        91        2.0000           -0.3453507              -9.3975 (HOMO)
        92                         -0.2989069              -8.1337 (LUMO)
        93                         -0.2731679              -7.4333
        94                         -0.2465652              -6.7094
        95                         -0.2450501              -6.6682
        96                         -0.2316307              -6.3030
        97                         -0.2274470              -6.1891
        98                         -0.2221962              -6.0463
        99                         -0.2169967              -5.9048
       100                         -0.2166542              -5.8955
       101                         -0.2139342              -5.8214
       102                         -0.1881616              -5.1201
       ...                                ...                  ...
       177                          0.6913095              18.8115
      -------------------------------------------------------------
                  HL-Gap            0.0464438 Eh            1.2638 eV

     #   Z          covCN         q      C6AA      α(0)
     1   6 C        3.761    -0.103    22.518     6.765
     2   6 C        3.909     0.021    20.157     6.381
     3   6 C        3.761    -0.103    22.513     6.764
     4   6 C        2.980    -0.013    28.338     8.732
     5   6 C        2.928    -0.036    28.897     8.816
     6   6 C        2.917    -0.044    29.095     8.845
     7   6 C        2.920    -0.033    28.814     8.803
     8   6 C        2.924    -0.058    29.444     8.899
     9   6 C        2.928     0.058    26.700     8.474
    10   7 N        2.754    -0.068    22.552     7.053
    11   6 C        2.925     0.073    26.379     8.423
    12   6 C        2.919    -0.036    28.906     8.817
    13   6 C        2.916    -0.038    28.948     8.823
    14   6 C        2.969     0.079    26.244     8.403
    15   7 N        1.849    -0.225    26.762     7.667
    16   6 C        2.959     0.094    25.914     8.350
    17   6 C        2.972     0.101    25.759     8.325
    18   6 C        2.919    -0.032    28.807     8.801
    19   6 C        2.928    -0.009    28.242     8.715
    20   6 C        2.915    -0.038    28.947     8.823
    21   6 C        2.910     0.064    26.577     8.453
    22   7 N        1.843    -0.229    26.848     7.679
    23   6 C        2.959     0.095    25.880     8.344
    24   6 C        2.973     0.101    25.756     8.325
    25   6 C        2.919    -0.032    28.800     8.800
    26   6 C        2.928    -0.009    28.239     8.715
    27   6 C        2.915    -0.038    28.944     8.822
    28   6 C        2.910     0.064    26.577     8.453
    29   7 N        1.843    -0.228    26.839     7.678
    30   7 N        1.849    -0.226    26.783     7.670
    31   6 C        2.968     0.081    26.199     8.396
    32   6 C        2.920    -0.050    29.246     8.868
    33   6 C        2.926     0.058    26.703     8.474
    34   6 C        2.924    -0.058    29.448     8.899
    35   6 C        2.920    -0.032    28.807     8.802
    36   6 C        2.917    -0.044    29.096     8.845
    37   6 C        2.928    -0.036    28.897     8.816
    38   6 C        2.980    -0.013    28.339     8.732
    39   1 H        0.925     0.039     2.459     2.452
    40   1 H        0.925     0.039     2.457     2.451
    41   1 H        0.925     0.032     2.558     2.501
    42   1 H        0.925     0.039     2.458     2.452
    43   1 H        0.925     0.039     2.458     2.452
    44   1 H        0.925     0.031     2.571     2.507
    45   1 H        0.926     0.030     2.582     2.513
    46   1 H        0.926     0.027     2.636     2.539
    47   1 H        0.926     0.028     2.617     2.530
    48   1 H        0.926     0.024     2.674     2.557
    49   1 H        0.926     0.051     2.312     2.378
    50   1 H        0.926     0.060     2.203     2.321
    51   1 H        0.926     0.053     2.287     2.365
    52   1 H        0.926     0.040     2.454     2.449
    53   1 H        0.926     0.038     2.478     2.462
    54   1 H        0.925     0.037     2.490     2.467
    55   1 H        0.926     0.053     2.281     2.362
    56   1 H        0.926     0.040     2.450     2.448
    57   1 H        0.926     0.038     2.476     2.461
    58   1 H        0.925     0.037     2.488     2.467
    59   1 H        0.926     0.062     2.170     2.304
    60   1 H        0.926     0.024     2.674     2.557
    61   1 H        0.926     0.028     2.614     2.528
    62   1 H        0.926     0.027     2.636     2.539
    63   1 H        0.926     0.030     2.582     2.513

molecular dipole:
                 x           y           z       tot (Debye)
 q only:        0.176       0.002       0.018
   full:        0.468       0.019      -0.019       1.192

 projected vibrational frequencies (cm⁻¹)
eigval :       -0.00    -0.00    -0.00     0.00     0.00     0.00
eigval :       11.64    16.34    18.27    28.89    38.21    43.89
eigval :       53.14    60.80    75.53    77.15    98.28   102.92
eigval :      128.17   137.42   142.07   153.19   182.63   189.72
eigval :      216.33   220.22   225.83   237.06   263.13   280.71
eigval :      299.12   306.62   312.96   331.89   343.26   352.13
eigval :      368.08   373.36   376.18   382.45   396.46   409.51
eigval :      415.90   451.09   453.58   461.53   490.04   508.50
eigval :      514.95   539.69   545.24   547.45   553.95   566.38
eigval :      586.60   593.49   595.00   599.26   604.70   639.80
eigval :      655.74   682.96   685.84   691.41   694.02   710.48
eigval :      716.29   730.54   735.35   757.03   770.67   776.87
eigval :      778.08   783.96   819.09   828.62   841.78   855.69
eigval :      866.67   867.18   881.02   887.77   888.01   913.20
eigval :      914.07   915.32   916.53   916.68   920.85   921.50
eigval :      922.52   933.43   933.48   938.53   957.28   964.85
eigval :      987.04   998.34  1014.55  1028.62  1077.20  1080.39
eigval :     1088.66  1090.04  1106.62  1114.75  1120.28  1120.49
eigval :     1124.89  1141.40  1143.01  1160.22  1160.56  1161.62
eigval :     1163.45  1184.40  1188.43  1188.84  1210.70  1236.38
eigval :     1243.05  1244.34  1249.41  1253.09  1268.53  1269.76
eigval :     1288.15  1290.58  1293.89  1295.42  1298.22  1324.15
eigval :     1332.92  1335.19  1341.80  1378.55  1396.73  1402.84
eigval :     1407.64  1416.22  1421.04  1425.68  1436.35  1440.25
eigval :     1442.72  1455.97  1479.66  1481.15  1490.02  1490.92
eigval :     1495.41  1500.62  1505.31  1522.18  1533.50  1559.13
eigval :     1561.03  1575.70  1576.06  1579.39  1590.13  1593.22
eigval :     1596.61  1603.31  3026.83  3029.30  3039.61  3042.31
eigval :     3048.59  3050.13  3050.48  3052.47  3070.50  3070.73
eigval :     3078.62  3078.82  3083.30  3083.68  3087.37  3093.48
eigval :     3093.79  3094.02  3094.95  3100.45  3102.56  3103.52
eigval :     3104.22  3108.48  3108.73

   temp. (K)  partition function   enthalpy   heat capacity  entropy
                                   cal/mol     cal/K/mol   cal/K/mol   J/K/mol
 298.15  VIB  0.499E+14            17743.922    112.109    110.015
         ROT  0.416E+08              888.752      2.981     37.843
         INT  0.208E+22            18632.675    115.090    147.858
         TR   0.105E+29             1481.254      4.968     44.445
         TOT                       20113.9288   120.0584   192.3024   804.5933

       T/K    H(0)-H(T)+PV         H(T)/Eh          T*S/Eh         G(T)/Eh
   ------------------------------------------------------------------------
    298.15    0.320536E-01    0.518141E+00    0.913691E-01    0.426772E+00
   ------------------------------------------------------------------------

         :::::::::::::::::::::::::::::::::::::::::::::::::::::
         ::                  THERMODYNAMIC                  ::
         :::::::::::::::::::::::::::::::::::::::::::::::::::::
         :: total free energy         -97.624836718263 Eh   ::
         ::.................................................::
         :: total energy              -98.051608495183 Eh   ::
         :: zero point energy           0.486087271237 Eh   ::
         :: G(RRHO) w/o ZPVE           -0.059315494317 Eh   ::
         :: G(RRHO) contrib.            0.426771776920 Eh   ::
         :::::::::::::::::::::::::::::::::::::::::::::::::::::

           -------------------------------------------------
          | TOTAL ENERGY              -98.051608495183 Eh   |
          | TOTAL ENTHALPY            -97.533467638165 Eh   |
          | TOTAL FREE ENERGY         -97.624836718263 Eh   |
          | GRADIENT NORM               0.000113885398 Eh/α |
          | HOMO-LUMO GAP               1.263800724679 eV   |
           -------------------------------------------------

 * finished run on 2025/07/20 at 14:36:01.846
