   * xtb version 6.7.1 (edcfbbe) compiled by 'albert@albert-system' on 2024-07-22

   ID    Z sym.   atoms
    1    6 C      1-20, 22-25, 27-30, 32-55
    2    7 N      21, 26, 31
    3    1 H      56-110

          program call               : xtb data2507/gas/tBuCz2/tBuCz2_gas_S0_crest.xyz --gfn 2 --ohess vtight --parallel 40 --molden --ceasefiles --namespace data2507/gas/tBuCz2/tBuCz2_gas_S0_finalOpt
          :  Hamiltonian                  GFN2-xTB          :
 * total energy  :  -148.3540370 Eh     change       -0.5400381E-08 Eh
 * total energy  :  -148.3540389 Eh     change       -0.1935224E-05 Eh
 * total energy  :  -148.3540413 Eh     change       -0.2433218E-05 Eh
 * total energy  :  -148.3540470 Eh     change       -0.5651035E-05 Eh
 * total energy  :  -148.3540526 Eh     change       -0.5671375E-05 Eh
 * total energy  :  -148.3540560 Eh     change       -0.3331682E-05 Eh
 * total energy  :  -148.3540586 Eh     change       -0.2665088E-05 Eh
 * total energy  :  -148.3540618 Eh     change       -0.3114264E-05 Eh
 * total energy  :  -148.3540653 Eh     change       -0.3492535E-05 Eh
 * total energy  :  -148.3540679 Eh     change       -0.2645634E-05 Eh
 * total energy  :  -148.3541610 Eh     change       -0.8560493E-06 Eh
 * total energy  :  -148.3541619 Eh     change       -0.8856679E-06 Eh
 * total energy  :  -148.3541628 Eh     change       -0.9007530E-06 Eh
 * total energy  :  -148.3541637 Eh     change       -0.8983336E-06 Eh
 * total energy  :  -148.3541646 Eh     change       -0.8660970E-06 Eh
 * total energy  :  -148.3541654 Eh     change       -0.8355964E-06 Eh
 * total energy  :  -148.3541662 Eh     change       -0.8014865E-06 Eh
 * total energy  :  -148.3541670 Eh     change       -0.7778670E-06 Eh
 * total energy  :  -148.3541670 Eh     change       -0.2378300E-08 Eh
   *** GEOMETRY OPTIMIZATION CONVERGED AFTER 68 ITERATIONS ***

 final structure:
================
110
 xtb: 6.7.1 (edcfbbe)
C            9.72303877511234       -2.74418828768348        1.39161867044459
C            8.79775281328633       -1.89671577702760        2.27644712592078
C            9.54501970638759       -0.61338462695763        2.64971504426977
C            8.47922652273001       -2.65543244243052        3.57246648899428
C            7.50320529638692       -1.62192552102611        1.52463088120156
C            6.71652279450678       -2.70707365056218        1.11424961857913
C            5.53521595221450       -2.55651383653811        0.41765675384394
C            5.12109373814478       -1.27016550323937        0.10709667925584
C            5.87934203265403       -0.15930562059938        0.53427243499466
C            7.06476140615713       -0.34085147032499        1.23481745659859
C            5.16484647497801        1.01023140338272        0.10458828408566
C            5.41699408512900        2.37122076957090        0.22200919841766
C            4.53084487554768        3.28440214935989       -0.32393580368022
C            4.73564774589212        4.78932121982549       -0.22494475081655
C            6.00511408023536        5.16079318126650        0.54632262562542
C            3.53727241218475        5.41324237501323        0.50430853600840
C            4.84854615790918        5.37832014626164       -1.63825319418598
C            3.40395465880842        2.79973547504602       -1.00210792559017
C            3.12888667489486        1.45444726587931       -1.13445962911872
C            4.00863377083509        0.54973220411906       -0.55989791902194
N            3.99196765307419       -0.83093560032950       -0.55341766661534
C            3.00479686075610       -1.63720560368698       -1.13813913726369
C            3.38417749130983       -2.68335492552554       -1.98979320667878
C            2.44589466454588       -3.49170292946818       -2.59811784188111
C            1.10560771588709       -3.22536371174091       -2.36149040336557
N           -0.01556396688929       -3.84469134985241       -2.85327980503250
C           -1.13143516649083       -3.21505908780516       -2.36250013867575
C           -2.47390071819624       -3.46888617813012       -2.60049330510829
C           -3.40523370752657       -2.65224378627868       -1.99258196276092
C           -3.01707942185808       -1.61027682374321       -1.13971381332669
N           -3.99749675194373       -0.79609657363814       -0.55465739674699
C           -4.00135208720005        0.58471671775696       -0.55754210567407
C           -3.11223315226857        1.48290952377515       -1.12791948130662
C           -3.37455628356758        2.83033679697777       -0.99140367386937
C           -4.49763231974801        3.32356649372534       -0.31308360552362
C           -4.68747886378111        4.83003679559017       -0.20809622281764
C           -4.79333847912416        5.42604726654034       -1.61899129926414
C           -3.48349564332327        5.43886276796691        0.52468751331634
C           -5.95371361079487        5.21101008938966        0.56385738426301
C           -5.39368773433136        2.41708753951863        0.22781616942749
C           -5.15445509549796        1.05415803020797        0.10609661759416
C           -5.88081381471353       -0.10978937196187        0.53097849209362
C           -7.06968048639439       -0.28203132545285        1.22801010739029
C           -7.52059222187383       -1.55967826974448        1.51376385462959
C           -8.81959092000898       -1.82426350320640        2.26154082437395
C           -9.74778592733509       -2.66730127117644        1.37551174649502
C           -9.55954596178809       -0.53517176727080        2.62949841283400
C           -8.51022293784046       -2.58245128740045        3.56007365761029
C           -6.74233188581096       -2.65100223188562        1.10371336419165
C           -5.55810115771139       -2.50968930804543        0.41014662686404
C           -5.13186767727259       -1.22652529560564        0.10275943295847
C           -1.67515273238579       -1.36559015875366       -0.88490711025587
C           -0.72645096147962       -2.16115572899679       -1.50963437301266
C            0.70954745110357       -2.16763658847504       -1.50915055227408
C            1.66498334583893       -1.38024027180536       -0.88435527521544
H           10.66341126664252       -2.93453989794230        1.90510704912490
H            9.93673485630067       -2.21982538548171        0.46239642395420
H            9.27058492173574       -3.70085140025317        1.14584257044617
H            9.81343121235953       -0.04516555847522        1.76206971491672
H           10.46299615345091       -0.86808535855401        3.17603373961964
H            8.94452302741713        0.01192906190017        3.30629271759188
H            7.80545917329122       -2.06929725914531        4.19408659429438
H            8.00621508608034       -3.61162390224921        3.36688789488897
H            9.39316646972193       -2.84147030037096        4.13311428199415
H            7.03608746276919       -3.71092095004732        1.35012300405184
H            4.94937015344769       -3.41878787421563        0.13569844778935
H            7.61951913749122        0.52997242112755        1.54215679037228
H            6.30821131820130        2.68695897176021        0.73832843519578
H            5.96760832053461        4.78329211260683        1.56558073718239
H            6.09770694780648        6.24424994155881        0.59242338658897
H            6.89145861350544        4.76918734234575        0.05254956203049
H            2.60940508947907        5.23545925445712       -0.03205321923421
H            3.67410758605576        6.48852137725324        0.60038588300100
H            3.44112831206136        4.98671465239589        1.50070921597656
H            5.68189810900863        4.92252729374071       -2.16906241308583
H            5.01804582978137        6.45195126288978       -1.58531914254307
H            3.94363869487971        5.20532339500764       -2.21398247608578
H            2.71353341377365        3.49960509672812       -1.44802845288923
H            2.25853212891540        1.12305321430258       -1.68099234443111
H            4.43462275069897       -2.84206952170392       -2.18037662979504
H            2.74898054729911       -4.29607518397642       -3.25157691273492
H           -0.01884868526926       -4.62017190893941       -3.49284246621576
H           -2.78381304678858       -4.27010639391260       -3.25462283074143
H           -4.45689849556830       -2.80113290390858       -2.18433382271367
H           -2.24427099098712        1.14511414035855       -1.67432456120753
H           -2.67672428470969        3.52501694855961       -1.43389399607846
H           -3.89020047156928        5.24535133684520       -2.19513533027741
H           -4.95093271131941        6.50126953466941       -1.56168973643126
H           -5.63151321231375        4.98171773967304       -2.15191920365239
H           -3.39250071962614        5.00728997341396        1.51939951200099
H           -2.55699162519442        5.25399960152957       -0.01162933521388
H           -3.60961004585732        6.51505483452809        0.62510159832265
H           -5.92083569420002        4.82862562826194        1.58145761166832
H           -6.03529658932444        6.29513897090863        0.61469110744355
H           -6.84363387150152        4.83066277596701        0.06772529167663
H           -6.28276008466398        2.73959212975810        0.74364829473913
H           -7.61727786234152        0.59315054524215        1.53580786428955
H          -10.69175413951666       -2.84855937487761        1.88568041138077
H           -9.30206663477957       -3.62836685409136        1.13472072423823
H           -9.95348867269725       -2.14427383376810        0.44373942001841
H           -8.95799323864999        0.08679243639857        3.28827159709841
H           -9.81942926472460        0.03370624459436        1.73972879358047
H          -10.48189733821645       -0.78265181416967        3.15159482058574
H           -9.42726637372762       -2.76248340314567        4.11760364290022
H           -7.83554515490451       -1.99897760147248        4.18321349718122
H           -8.04162519970704       -3.54152375691681        3.35775043733306
H           -7.07113920218591       -3.65238093709156        1.33736582868594
H           -4.97923714179167       -3.37666120003585        0.12818593370023
H           -1.38092520014761       -0.57631547964346       -0.21087517259494
H            1.37752712083768       -0.58770182456957       -0.21121873991733

          :  Hamiltonian                  GFN2-xTB          :
         :: gradient norm              0.000038478428 Eh/a0 ::
         :: HOMO-LUMO gap              2.520268958919 eV    ::
         :: SCC energy              -150.955494813517 Eh    ::
         :: -> dispersion             -0.137999554296 Eh    ::
         :: repulsion energy           2.601327832844 Eh    ::

    * Orbital Energies and Occupations

         #    Occupation            Energy/Eh            Energy/eV
      -------------------------------------------------------------
         1        2.0000           -0.6834544             -18.5977
       ...           ...                  ...                  ...
       127        2.0000           -0.4070048             -11.0752
       128        2.0000           -0.4019129             -10.9366
       129        2.0000           -0.4018629             -10.9352
       130        2.0000           -0.3996118             -10.8740
       131        2.0000           -0.3995795             -10.8731
       132        2.0000           -0.3886850             -10.5767
       133        2.0000           -0.3885804             -10.5738
       134        2.0000           -0.3858106             -10.4984
       135        2.0000           -0.3776488             -10.2763
       136        2.0000           -0.3648977              -9.9294
       137        2.0000           -0.3648870              -9.9291
       138        2.0000           -0.3494668              -9.5095
       139        2.0000           -0.3448684              -9.3843 (HOMO)
       140                         -0.2522503              -6.8641 (LUMO)
       141                         -0.2356902              -6.4135
       142                         -0.2328265              -6.3355
       143                         -0.2275966              -6.1932
       144                         -0.2092323              -5.6935
       145                         -0.2092164              -5.6931
       146                         -0.2070155              -5.6332
       147                         -0.1972844              -5.3684
       148                         -0.1758786              -4.7859
       149                         -0.1758606              -4.7854
       150                         -0.1751870              -4.7671
       ...                                ...                  ...
       275                          0.7517192              20.4553
      -------------------------------------------------------------
                  HL-Gap            0.0926182 Eh            2.5203 eV

     #   Z          covCN         q      C6AA      α(0)
     1   6 C        3.762    -0.105    22.544     6.768
     2   6 C        3.903     0.026    20.089     6.371
     3   6 C        3.761    -0.106    22.578     6.773
     4   6 C        3.761    -0.105    22.545     6.769
     5   6 C        2.973    -0.004    28.110     8.697
     6   6 C        2.931    -0.040    28.998     8.831
     7   6 C        2.908    -0.054    29.349     8.883
     8   6 C        3.081     0.042    26.969     8.514
     9   6 C        3.068    -0.021    28.461     8.748
    10   6 C        2.918    -0.044    29.097     8.846
    11   6 C        3.068    -0.021    28.461     8.748
    12   6 C        2.918    -0.044    29.097     8.846
    13   6 C        2.973    -0.003    28.105     8.696
    14   6 C        3.903     0.026    20.088     6.371
    15   6 C        3.761    -0.106    22.578     6.773
    16   6 C        3.762    -0.105    22.546     6.769
    17   6 C        3.761    -0.105    22.545     6.769
    18   6 C        2.931    -0.040    28.991     8.830
    19   6 C        2.908    -0.054    29.343     8.882
    20   6 C        3.082     0.042    26.967     8.513
    21   7 N        2.803    -0.045    22.107     6.983
    22   6 C        2.913     0.054    26.787     8.487
    23   6 C        2.927    -0.046    29.136     8.852
    24   6 C        2.909    -0.054    29.346     8.883
    25   6 C        3.073     0.051    26.779     8.485
    26   7 N        2.755    -0.119    23.595     7.214
    27   6 C        3.073     0.051    26.779     8.485
    28   6 C        2.909    -0.054    29.346     8.883
    29   6 C        2.927    -0.046    29.137     8.852
    30   6 C        2.913     0.054    26.786     8.487
    31   7 N        2.803    -0.045    22.106     6.983
    32   6 C        3.082     0.042    26.967     8.513
    33   6 C        2.908    -0.054    29.343     8.882
    34   6 C        2.931    -0.040    28.991     8.830
    35   6 C        2.973    -0.003    28.105     8.696
    36   6 C        3.903     0.026    20.088     6.371
    37   6 C        3.761    -0.105    22.545     6.769
    38   6 C        3.762    -0.105    22.546     6.769
    39   6 C        3.761    -0.106    22.578     6.773
    40   6 C        2.918    -0.044    29.097     8.846
    41   6 C        3.068    -0.021    28.461     8.748
    42   6 C        3.068    -0.021    28.461     8.748
    43   6 C        2.918    -0.044    29.097     8.846
    44   6 C        2.973    -0.004    28.109     8.697
    45   6 C        3.903     0.026    20.089     6.371
    46   6 C        3.762    -0.105    22.544     6.768
    47   6 C        3.761    -0.106    22.578     6.773
    48   6 C        3.761    -0.105    22.545     6.769
    49   6 C        2.931    -0.040    28.999     8.831
    50   6 C        2.908    -0.054    29.349     8.883
    51   6 C        3.081     0.042    26.969     8.514
    52   6 C        2.915    -0.047    29.171     8.857
    53   6 C        3.072    -0.015    28.305     8.723
    54   6 C        3.072    -0.015    28.304     8.723
    55   6 C        2.915    -0.047    29.170     8.857
    56   1 H        0.925     0.034     2.524     2.484
    57   1 H        0.925     0.033     2.551     2.498
    58   1 H        0.925     0.035     2.519     2.482
    59   1 H        0.925     0.035     2.516     2.480
    60   1 H        0.925     0.034     2.535     2.490
    61   1 H        0.925     0.035     2.515     2.480
    62   1 H        0.925     0.033     2.546     2.495
    63   1 H        0.925     0.035     2.519     2.482
    64   1 H        0.925     0.035     2.523     2.484
    65   1 H        0.926     0.026     2.641     2.541
    66   1 H        0.926     0.023     2.687     2.563
    67   1 H        0.926     0.035     2.512     2.478
    68   1 H        0.926     0.035     2.513     2.479
    69   1 H        0.925     0.035     2.515     2.480
    70   1 H        0.925     0.034     2.535     2.490
    71   1 H        0.925     0.035     2.519     2.482
    72   1 H        0.925     0.035     2.513     2.479
    73   1 H        0.925     0.035     2.523     2.484
    74   1 H        0.925     0.033     2.545     2.495
    75   1 H        0.925     0.032     2.552     2.498
    76   1 H        0.925     0.035     2.522     2.484
    77   1 H        0.925     0.035     2.517     2.481
    78   1 H        0.926     0.027     2.632     2.537
    79   1 H        0.926     0.024     2.674     2.557
    80   1 H        0.926     0.042     2.418     2.432
    81   1 H        0.926     0.030     2.581     2.512
    82   1 H        0.860     0.158     1.346     1.817
    83   1 H        0.926     0.030     2.581     2.512
    84   1 H        0.926     0.042     2.418     2.432
    85   1 H        0.926     0.024     2.673     2.557
    86   1 H        0.926     0.027     2.632     2.537
    87   1 H        0.925     0.035     2.517     2.481
    88   1 H        0.925     0.035     2.522     2.484
    89   1 H        0.925     0.032     2.552     2.498
    90   1 H        0.925     0.033     2.545     2.495
    91   1 H        0.925     0.035     2.513     2.479
    92   1 H        0.925     0.035     2.523     2.484
    93   1 H        0.925     0.035     2.515     2.480
    94   1 H        0.925     0.034     2.534     2.490
    95   1 H        0.925     0.035     2.519     2.482
    96   1 H        0.926     0.035     2.513     2.479
    97   1 H        0.926     0.035     2.511     2.478
    98   1 H        0.925     0.034     2.524     2.485
    99   1 H        0.925     0.035     2.519     2.482
   100   1 H        0.925     0.033     2.551     2.497
   101   1 H        0.925     0.035     2.515     2.480
   102   1 H        0.925     0.035     2.516     2.480
   103   1 H        0.925     0.034     2.535     2.490
   104   1 H        0.925     0.035     2.523     2.484
   105   1 H        0.925     0.033     2.546     2.495
   106   1 H        0.925     0.035     2.519     2.482
   107   1 H        0.926     0.026     2.641     2.541
   108   1 H        0.926     0.023     2.687     2.563
   109   1 H        0.926     0.044     2.394     2.420
   110   1 H        0.926     0.044     2.394     2.420

molecular dipole:
                 x           y           z       tot (Debye)
 q only:       -0.004      -0.621      -0.519
   full:       -0.005      -0.961      -0.779       3.145

 projected vibrational frequencies (cm⁻¹)
eigval :       -0.00    -0.00    -0.00     0.00     0.00     0.00
eigval :        8.14     8.35    11.00    22.98    26.08    31.00
eigval :       31.28    33.66    33.90    42.64    59.46    62.17
eigval :       64.82    75.98    76.20    84.95    98.97   113.71
eigval :      115.25   122.63   139.74   160.19   160.89   173.80
eigval :      175.65   180.88   184.85   188.38   195.32   202.60
eigval :      203.01   205.74   219.06   219.39   221.89   224.63
eigval :      230.53   230.86   238.94   247.74   259.17   259.45
eigval :      270.97   279.92   281.07   310.99   317.30   317.35
eigval :      321.65   321.78   326.82   328.93   333.59   344.06
eigval :      344.80   355.02   359.34   360.12   360.20   365.87
eigval :      382.87   387.35   392.76   399.94   400.51   408.31
eigval :      411.62   412.36   428.81   441.18   442.19   443.15
eigval :      443.44   451.02   456.66   460.83   465.16   466.19
eigval :      466.25   473.24   500.85   506.49   519.02   522.25
eigval :      549.12   556.85   569.32   583.45   583.79   586.32
eigval :      589.69   606.39   619.12   632.02   632.56   639.33
eigval :      639.35   646.52   658.58   682.12   687.49   687.56
eigval :      707.13   707.29   708.22   715.63   720.15   720.33
eigval :      729.11   806.22   815.89   815.96   821.97   822.67
eigval :      826.32   826.81   830.80   833.88   857.49   861.39
eigval :      868.99   869.30   872.76   873.02   873.86   874.32
eigval :      883.10   885.97   905.90   906.11   915.75   916.91
eigval :      919.27   919.80   926.51   926.76   929.85   933.29
eigval :      952.90   960.08   960.12   960.18   960.19   962.56
eigval :      962.70   962.70   962.74   962.85   962.86   963.33
eigval :      963.34   998.10  1024.52  1031.41  1031.69  1035.70
eigval :     1035.78  1035.83  1035.85  1035.88  1035.92  1042.12
eigval :     1042.18  1108.17  1113.35  1130.29  1130.48  1133.97
eigval :     1136.95  1142.18  1153.20  1161.89  1177.13  1177.64
eigval :     1194.59  1198.14  1207.21  1226.79  1228.08  1228.16
eigval :     1228.26  1228.29  1230.39  1231.79  1232.59  1232.82
eigval :     1236.08  1238.95  1239.12  1247.08  1251.41  1261.39
eigval :     1262.19  1285.11  1286.06  1291.79  1299.60  1309.14
eigval :     1311.62  1314.06  1315.93  1342.22  1348.35  1348.61
eigval :     1358.56  1362.26  1364.48  1382.00  1397.92  1402.47
eigval :     1402.71  1404.60  1404.61  1405.72  1405.88  1405.90
eigval :     1406.06  1413.38  1414.44  1425.71  1429.28  1429.36
eigval :     1429.39  1429.46  1431.89  1448.40  1452.00  1481.01
eigval :     1483.12  1486.19  1486.70  1486.72  1492.67  1492.71
eigval :     1492.79  1492.79  1494.01  1495.45  1495.68  1495.68
eigval :     1495.81  1501.92  1502.27  1502.38  1502.56  1505.92
eigval :     1506.06  1506.12  1506.15  1514.99  1515.01  1515.22
eigval :     1515.22  1520.68  1520.75  1521.55  1521.61  1566.32
eigval :     1568.03  1571.96  1580.88  1582.34  1582.74  1604.97
eigval :     1605.31  1608.58  1618.50  1619.06  1620.96  3019.58
eigval :     3019.59  3019.71  3019.72  3020.80  3020.81  3021.01
eigval :     3021.05  3026.47  3026.47  3026.55  3026.58  3027.96
eigval :     3028.07  3028.40  3028.74  3030.56  3030.57  3030.62
eigval :     3030.71  3035.18  3035.24  3035.40  3035.53  3037.30
eigval :     3037.38  3037.55  3037.63  3046.29  3046.30  3046.70
eigval :     3046.80  3049.58  3049.59  3050.16  3050.27  3076.31
eigval :     3076.36  3077.11  3077.54  3081.03  3081.61  3089.82
eigval :     3090.03  3090.76  3091.10  3099.13  3099.97  3100.47
eigval :     3102.80  3113.70  3113.72  3117.38  3117.45  3491.47

   temp. (K)  partition function   enthalpy   heat capacity  entropy
                                   cal/mol     cal/K/mol   cal/K/mol   J/K/mol
 298.15  VIB  0.264E+24            30919.464    193.095    190.165
         ROT  0.180E+09              888.752      2.981     40.752
         INT  0.475E+32            31808.216    196.076    230.918
         TR   0.188E+29             1481.254      4.968     45.590
         TOT                       33289.4703   201.0444   276.5077  1156.9081

       T/K    H(0)-H(T)+PV         H(T)/Eh          T*S/Eh         G(T)/Eh
   ------------------------------------------------------------------------
    298.15    0.530501E-01    0.973347E+00    0.131378E+00    0.841969E+00
   ------------------------------------------------------------------------

         :::::::::::::::::::::::::::::::::::::::::::::::::::::
         ::                  THERMODYNAMIC                  ::
         :::::::::::::::::::::::::::::::::::::::::::::::::::::
         :: total free energy        -147.512197891808 Eh   ::
         ::.................................................::
         :: total energy             -148.354166980672 Eh   ::
         :: zero point energy           0.920296657158 Eh   ::
         :: G(RRHO) w/o ZPVE           -0.078327568294 Eh   ::
         :: G(RRHO) contrib.            0.841969088864 Eh   ::
         :::::::::::::::::::::::::::::::::::::::::::::::::::::

           -------------------------------------------------
          | TOTAL ENERGY             -148.354166980672 Eh   |
          | TOTAL ENTHALPY           -147.380820175760 Eh   |
          | TOTAL FREE ENERGY        -147.512197891808 Eh   |
          | GRADIENT NORM               0.000038478904 Eh/α |
          | HOMO-LUMO GAP               2.520268901176 eV   |
           -------------------------------------------------

 * finished run on 2025/09/14 at 01:32:52.599
