   * xtb version 6.7.1 (edcfbbe) compiled by 'albert@albert-system' on 2024-07-22

   ID    Z sym.   atoms
    1    6 C      1-20, 22-25, 27-30, 32-55
    2    7 N      21, 26, 31
    3    1 H      56-110

          program call               : xtb data2507/gas/tBuCz2/tBuCz2_gas_T1_crest.xyz --gfn 2 --spinpol --tblite --uhf 2 --ohess vtight --parallel 40 --molden --ceasefiles --namespace data2507/gas/tBuCz2/tBuCz2_gas_T1_finalOpt
 * total energy  :  -148.2546574 Eh     change       -0.3011007E-07 Eh
 * total energy  :  -148.2546730 Eh     change       -0.1557524E-04 Eh
 * total energy  :  -148.2546794 Eh     change       -0.6423514E-05 Eh
 * total energy  :  -148.2546802 Eh     change       -0.8248517E-06 Eh
 * total energy  :  -148.2546811 Eh     change       -0.9195319E-06 Eh
 * total energy  :  -148.2546819 Eh     change       -0.7553454E-06 Eh
 * total energy  :  -148.2546828 Eh     change       -0.8888009E-06 Eh
 * total energy  :  -148.2546834 Eh     change       -0.6170828E-06 Eh
 * total energy  :  -148.2546838 Eh     change       -0.3567335E-06 Eh
 * total energy  :  -148.2546841 Eh     change       -0.3131005E-06 Eh
 * total energy  :  -148.2546868 Eh     change       -0.2545383E-06 Eh
 * total energy  :  -148.2546871 Eh     change       -0.3456307E-06 Eh
 * total energy  :  -148.2546873 Eh     change       -0.1339091E-06 Eh
 * total energy  :  -148.2546872 Eh     change        0.1764599E-07 Eh
 * total energy  :  -148.2546875 Eh     change       -0.2797518E-06 Eh
 * total energy  :  -148.2546877 Eh     change       -0.1525252E-06 Eh
 * total energy  :  -148.2546876 Eh     change        0.4333901E-07 Eh
 * total energy  :  -148.2546878 Eh     change       -0.1237516E-06 Eh
 * total energy  :  -148.2546878 Eh     change       -0.9529413E-07 Eh
   *** GEOMETRY OPTIMIZATION CONVERGED AFTER 28 ITERATIONS ***

 final structure:
================
110
 xtb: 6.7.1 (edcfbbe)
C            9.74182022393317       -2.74028773998571        1.32350126525433
C            8.80152749974459       -1.92865295991927        2.22616662167410
C            9.53689072962676       -0.65515404405614        2.65287573206539
C            8.47116594584984       -2.73417136425703        3.49089713461819
C            7.51456891225961       -1.63730339070661        1.46953791265059
C            6.74227002243940       -2.71163227388405        1.01126641853828
C            5.56317664028581       -2.54076472231882        0.30568601520364
C            5.14670088710335       -1.24735503116727        0.03713057459156
C            5.88913395815219       -0.14526137781521        0.52014561446480
C            7.06838876674724       -0.34485849134207        1.22668000704628
C            5.16222331405513        1.03349607390934        0.14160399401363
C            5.40102179843776        2.39087763841043        0.31549922137628
C            4.50488387684095        3.31847780857024       -0.19941879263515
C            4.69703654541389        4.81839272492447       -0.03506010446099
C            5.95165465799839        5.16833260463529        0.76991760839640
C            3.48242732841255        5.40239103446699        0.70076054961785
C            4.82527600562577        5.46487054159641       -1.42187901620323
C            3.38962441282926        2.85388941676547       -0.90716249559648
C            3.12982483973047        1.50728124383798       -1.09806069418998
C            4.00997889857466        0.59033267028318       -0.54728899599391
N            4.01251182033505       -0.79034527816098       -0.60622883096088
C            3.03477062678231       -1.57977575872687       -1.20820031471687
C            3.42391750128841       -2.64139589272861       -2.03254821045244
C            2.46256012006516       -3.45044985989634       -2.65189904841509
C            1.13375181441051       -3.17077796945016       -2.41582258314360
N            0.01077034313010       -3.79937922655711       -2.88662842267436
C           -1.11468116538466       -3.18309789258913       -2.40470877201452
C           -2.44234354259323       -3.47910417970052       -2.62611104268182
C           -3.40666970865983       -2.67738190505201       -2.00158824277537
C           -3.02096868355890       -1.60470751274250       -1.19056857173678
N           -4.00199901252648       -0.81525670113290       -0.59268828081859
C           -4.01829584428416        0.56604289701090       -0.56767044440399
C           -3.15437415728543        1.48061764458721       -1.14743708290246
C           -3.43430801004218        2.82760044795127       -0.99296441884096
C           -4.55353007311722        3.29455075466006       -0.29294417442323
C           -4.77137937898512        4.79536661207773       -0.17487274612882
C           -4.92064629875968        5.39396292296298       -1.58100970938545
C           -3.56291530769649        5.42497463582343        0.53280704279245
C           -6.02690758011402        5.14858486160061        0.62725065225260
C           -5.43089995711028        2.36808452258930        0.25515605180810
C           -5.17197160084742        1.01027942272419        0.11794224068141
C           -5.87853310779791       -0.16897299563441        0.53250494409104
C           -7.04801128800279       -0.36819579142525        1.25496914970118
C           -7.47294656954828       -1.66057127419557        1.53345841856734
C           -8.74670340967814       -1.95164643297302        2.31228784719027
C           -9.68532160954219       -2.79983060851623        1.44211769957013
C           -9.49613945602897       -0.67872885425600        2.71564546553404
C           -8.38912614381980       -2.71964771449967        3.59288293348152
C           -6.69064698442447       -2.73480665991014        1.09193970010330
C           -5.52115824186548       -2.56450118943259        0.37090752176950
C           -5.12463786700732       -1.27191868727197        0.06981293331391
C           -1.67585282942659       -1.29965567604510       -0.96129547898906
C           -0.70039366717100       -2.10016313883573       -1.57045431387646
C            0.71578618091308       -2.09355150510569       -1.57584334126866
C            1.68820931702602       -1.28879258432295       -0.96759377475143
H           10.67631899303501       -2.94378447892950        1.84242727483468
H            9.96468040306334       -2.18257008646363        0.41618227407940
H            9.29754390055279       -3.68976443087112        1.03865010036723
H            9.81000997130785       -0.05325777463673        1.78920232790125
H           10.45153071468400       -0.92368656673542        3.17796506180806
H            8.92695227234097       -0.05796433111362        3.32670343458933
H            7.78562944631714       -2.17440433389997        4.12380739509296
H            8.00755286013893       -3.68556133218948        3.24599546253424
H            9.37938201059239       -2.93328319806189        4.05613513444850
H            7.06403849491591       -3.72155963899621        1.21310882739704
H            4.98444479344319       -3.39499346568158       -0.00982242796788
H            7.61138582818279        0.51600714345483        1.57867392839601
H            6.28699801893403        2.69541153123918        0.84662881820479
H            5.90423521844966        4.74603997068570        1.77103679284863
H            6.03129636084936        6.24955995802163        0.86486943632681
H            6.84933463414263        4.80895121339029        0.27218448441135
H            2.56437948747505        5.24118491217051        0.14294828327372
H            3.61030523502056        6.47344988505294        0.84373756687448
H            3.37429391525043        4.93390727472758        1.67683930423103
H            5.67077590944920        5.03855862041606       -1.95785523666899
H            4.98387842289764        6.53675473841728       -1.32234476424531
H            3.93070061180166        5.30717419661605       -2.01761968933354
H            2.69707513701517        3.56343361825348       -1.33272117887396
H            2.27228889990559        1.19027667775034       -1.67116666028373
H            4.47039562473784       -2.80174736259672       -2.23367893329242
H            2.76343668320869       -4.25178501622503       -3.30934602413878
H            0.01223973087557       -4.60700992720198       -3.48799266702121
H           -2.74060848831745       -4.28692220554720       -3.27677508486784
H           -4.45342051752524       -2.85144072390330       -2.18978043043651
H           -2.29461754004904        1.16035921562588       -1.71546084603089
H           -2.75541310781819        3.53568231641322       -1.44233839115413
H           -4.02745672622076        5.23277644341707       -2.17791258576917
H           -5.09787136508061        6.46553626370103       -1.51524478069334
H           -5.76194056259374        4.93541879268557       -2.09662522265729
H           -3.43979703641870        4.99076371771366        1.52285154552067
H           -2.64574828865331        5.26236656636978       -0.02603786937190
H           -3.70950873716196        6.49765243465988        0.64164060120601
H           -5.96562399367601        4.75935950513689        1.64093870913880
H           -6.12527753494621        6.23071931798176        0.68828184103972
H           -6.92115779135479        4.75772898580388        0.14738458910438
H           -6.31823483543502        2.67377081282788        0.78338800792017
H           -7.60007478829748        0.49309020003343        1.59154030612082
H          -10.61071903614145       -3.00306551797780        1.97720593663469
H           -9.23065733715487       -3.75001016024844        1.17668580537379
H           -9.92672357501245       -2.26915160382868        0.52340022409843
H           -8.88757142955096       -0.05580521829375        3.36704056681950
H           -9.78817597249260       -0.10290243124402        1.84045977891616
H          -10.40053900346432       -0.94736529335864        3.25813290127031
H           -9.28744634212087       -2.91821862736618        4.17390445248639
H           -7.70505900542442       -2.13355577078344        4.20315987515453
H           -7.91355124357578       -3.66971327168580        3.36643590053484
H           -6.99673196213668       -3.74398012994811        1.32027235570735
H           -4.93388401733786       -3.41749366792931        0.06788681570866
H           -1.40089388506685       -0.50598933866841       -0.28618179772311
H            1.41035154200627       -0.50519909415855       -0.28207466596725

 projected vibrational frequencies (cm⁻¹)
eigval :       -0.00    -0.00    -0.00     0.00     0.00     0.00
eigval :        8.28     8.47    11.40    23.13    26.12    30.55
eigval :       30.95    33.22    33.47    44.22    58.25    61.35
eigval :       65.23    75.28    76.07    84.67    98.03   115.89
eigval :      118.17   124.72   139.95   158.76   160.18   173.07
eigval :      175.04   180.10   184.67   187.80   193.23   199.51
eigval :      200.50   204.82   218.62   219.07   220.81   224.21
eigval :      228.33   230.57   231.23   239.62   254.53   255.58
eigval :      271.76   276.74   281.06   306.05   317.03   317.21
eigval :      321.57   321.93   325.62   327.61   331.76   336.76
eigval :      343.01   350.27   355.39   357.31   358.22   362.38
eigval :      363.32   382.70   384.36   388.98   393.60   403.69
eigval :      407.36   408.46   416.96   438.48   438.74   441.09
eigval :      441.87   456.16   459.99   464.34   465.17   469.11
eigval :      476.15   495.12   499.41   512.48   517.82   519.18
eigval :      546.24   547.16   564.41   582.02   584.48   587.44
eigval :      592.81   594.45   607.90   622.02   626.57   637.79
eigval :      637.99   638.46   649.63   656.35   667.88   685.54
eigval :      685.80   700.88   701.39   711.30   716.54   718.08
eigval :      720.58   759.81   763.48   774.40   779.36   798.24
eigval :      812.53   813.26   817.62   819.77   826.88   829.28
eigval :      829.74   831.25   849.03   849.38   857.32   857.51
eigval :      857.96   858.60   872.60   873.21   902.41   902.68
eigval :      903.18   903.83   922.86   924.15   924.58   931.55
eigval :      938.25   960.21   960.24   960.29   960.32   962.70
eigval :      962.79   962.83   962.96   962.98   962.99   963.00
eigval :      963.19   985.52  1014.45  1030.18  1030.58  1034.96
eigval :     1035.08  1035.09  1035.17  1035.60  1035.70  1040.49
eigval :     1041.02  1084.72  1092.48  1104.10  1121.34  1126.65
eigval :     1126.76  1128.73  1131.17  1136.30  1162.96  1163.72
eigval :     1166.53  1175.54  1189.70  1197.21  1211.48  1219.14
eigval :     1221.38  1226.66  1226.72  1226.75  1226.79  1230.42
eigval :     1230.47  1231.32  1231.52  1231.62  1232.26  1245.69
eigval :     1254.66  1255.50  1264.71  1269.79  1279.11  1280.35
eigval :     1289.49  1290.53  1294.75  1303.50  1330.92  1338.23
eigval :     1338.74  1339.46  1351.90  1358.67  1379.07  1385.73
eigval :     1395.63  1396.94  1402.16  1404.40  1404.64  1405.12
eigval :     1405.20  1405.30  1405.34  1405.46  1406.53  1407.73
eigval :     1417.34  1428.61  1428.95  1429.07  1429.10  1429.35
eigval :     1436.41  1458.84  1459.31  1460.76  1473.10  1474.63
eigval :     1491.76  1491.80  1491.83  1491.85  1494.62  1494.82
eigval :     1494.83  1494.98  1499.95  1500.61  1500.83  1500.95
eigval :     1504.48  1504.59  1504.67  1504.85  1506.25  1513.13
eigval :     1514.75  1514.78  1514.97  1514.99  1516.67  1519.76
eigval :     1519.86  1520.88  1521.09  1533.14  1534.50  1542.98
eigval :     1562.74  1563.82  1564.85  1565.97  1610.76  3020.84
eigval :     3020.86  3020.98  3021.00  3022.35  3022.36  3022.47
eigval :     3022.52  3027.29  3027.30  3027.38  3027.40  3029.15
eigval :     3029.20  3029.30  3029.84  3031.36  3031.38  3031.48
eigval :     3031.57  3035.71  3035.75  3035.90  3036.03  3038.24
eigval :     3038.27  3038.43  3038.63  3048.41  3048.43  3048.54
eigval :     3048.66  3051.57  3051.62  3051.73  3051.97  3081.85
eigval :     3082.64  3085.94  3086.40  3086.54  3086.85  3095.63
eigval :     3097.19  3097.57  3098.01  3104.79  3107.41  3108.83
eigval :     3109.31  3117.52  3117.67  3119.48  3120.52  3465.20

   temp. (K)  partition function   enthalpy   heat capacity  entropy
                                   cal/mol     cal/K/mol   cal/K/mol   J/K/mol
 298.15  VIB  0.338E+24            31212.321    195.434    191.658
         ROT  0.180E+09              888.752      2.981     40.756
         INT  0.609E+32            32101.074    198.415    232.414
         TR   0.188E+29             1481.254      4.968     45.590
         TOT                       33582.3277   203.3835   278.0040  1163.1686

       T/K    H(0)-H(T)+PV         H(T)/Eh          T*S/Eh         G(T)/Eh
   ------------------------------------------------------------------------
    298.15    0.535168E-01    0.967683E+00    0.132089E+00    0.835594E+00
   ------------------------------------------------------------------------

         :::::::::::::::::::::::::::::::::::::::::::::::::::::
         ::                  THERMODYNAMIC                  ::
         :::::::::::::::::::::::::::::::::::::::::::::::::::::
         :: total free energy        -147.419093980198 Eh   ::
         ::.................................................::
         :: total energy             -148.254687867415 Eh   ::
         :: zero point energy           0.914165698047 Eh   ::
         :: G(RRHO) w/o ZPVE           -0.078571810829 Eh   ::
         :: G(RRHO) contrib.            0.835593887218 Eh   ::
         :::::::::::::::::::::::::::::::::::::::::::::::::::::

           -------------------------------------------------
          | TOTAL ENERGY             -148.254687867415 Eh   |
          | TOTAL ENTHALPY           -147.287005323757 Eh   |
          | TOTAL FREE ENERGY        -147.419093980198 Eh   |
          | GRADIENT NORM               0.000084324801 Eh/α |
           -------------------------------------------------

 * finished run on 2025/09/14 at 02:02:13.626
