   * xtb version 6.7.1 (edcfbbe) compiled by 'albert@albert-system' on 2024-07-22

   ID    Z sym.   atoms
    1    6 C      1-20, 22-25, 27-30, 32-55
    2    7 N      21, 26, 31
    3    1 H      56-110

          program call               : xtb data2507/gas/tBuCz2/tBuCz2.xyz --gfn 2 --ohess vtight --parallel 40 --molden --ceasefiles --namespace data2507/gas/tBuCz2/tBuCz2_gas_S0_preOpt
          :  Hamiltonian                  GFN2-xTB          :
 * total energy  :  -148.3269613 Eh     change       -0.5353911E-08 Eh
 * total energy  :  -148.3447586 Eh     change       -0.1779725E-01 Eh
 * total energy  :  -148.3500323 Eh     change       -0.5273731E-02 Eh
 * total energy  :  -148.3515357 Eh     change       -0.1503390E-02 Eh
 * total energy  :  -148.3522371 Eh     change       -0.7013376E-03 Eh
 * total energy  :  -148.3523990 Eh     change       -0.1619083E-03 Eh
 * total energy  :  -148.3524801 Eh     change       -0.8110884E-04 Eh
 * total energy  :  -148.3525622 Eh     change       -0.8211073E-04 Eh
 * total energy  :  -148.3526031 Eh     change       -0.4089300E-04 Eh
 * total energy  :  -148.3526578 Eh     change       -0.5475751E-04 Eh
 * total energy  :  -148.3529565 Eh     change       -0.9867625E-06 Eh
 * total energy  :  -148.3529576 Eh     change       -0.1037915E-05 Eh
 * total energy  :  -148.3529586 Eh     change       -0.1037134E-05 Eh
 * total energy  :  -148.3529596 Eh     change       -0.1031813E-05 Eh
 * total energy  :  -148.3529607 Eh     change       -0.1081978E-05 Eh
 * total energy  :  -148.3529620 Eh     change       -0.1243705E-05 Eh
 * total energy  :  -148.3529635 Eh     change       -0.1574867E-05 Eh
 * total energy  :  -148.3529657 Eh     change       -0.2176377E-05 Eh
 * total energy  :  -148.3529657 Eh     change       -0.5779924E-08 Eh
   *** GEOMETRY OPTIMIZATION CONVERGED AFTER 68 ITERATIONS ***

 final structure:
================
110
 xtb: 6.7.1 (edcfbbe)
C            9.75836961300133       -0.61864639945991       -1.25186575567867
C            9.06671387050733        0.64287410978167       -1.77603029071554
C            8.91583255149634        0.50523831301849       -3.29757358736894
C            9.96288765307023        1.84592138873848       -1.44905051003862
C            7.69504650557372        0.85940713384477       -1.15303019286733
C            6.94880335706790        1.98229062777403       -1.53565021656139
C            5.70352190189022        2.26878439603986       -1.01529003769125
C            5.17928183846709        1.40567109049037       -0.06505452014038
C            5.89597616544652        0.25079425999757        0.31333327287049
C            7.14770382678816       -0.01291863576286       -0.22710735231187
C            5.06850185353312       -0.45005964984442        1.25565884802464
C            5.22996777665537       -1.62672896205667        1.96961995057090
C            4.23610030640549       -2.05518469842653        2.83918236500965
C            4.43162150716953       -3.35979918053309        3.59948132758065
C            3.24930323255017       -3.70337090514275        4.50966588266557
C            5.68828798180206       -3.24770937514129        4.47424525985949
C            4.60171912505304       -4.50510722536337        2.59096847313202
C            3.09349262418487       -1.26375127877081        2.98734884400342
C            2.90611617666820       -0.08526205492691        2.28856510131982
C            3.89096629864778        0.31619800529428        1.40169294482254
N            3.96981406909182        1.43770565526063        0.59993376166772
C            2.99203818974377        2.43556142595984        0.47889491205597
C            3.37076900613233        3.78110672551049        0.58015354654742
C            2.45055519839328        4.79965540453549        0.44292603868757
C            1.12568263894148        4.45401069030880        0.22346813096786
N            0.02527777687875        5.25479290115292        0.05180838367236
C           -1.08257990048257        4.46664370166747       -0.13029343498954
C           -2.40380169428565        4.82746428000996       -0.34727955389195
C           -3.33319766782950        3.81944814714741       -0.49945343867097
C           -2.96738942101887        2.46916975630209       -0.41470230536143
N           -3.95388736175863        1.48214718407757       -0.55194165831859
C           -5.16732985667101        1.45394346718996        0.10648781246960
C           -5.68844701083462        2.30862292884017        1.06342540080034
C           -6.94207629243293        2.03241272885844        1.57767475369304
C           -7.69423578267100        0.92467986556960        1.17719894796622
C           -9.08060942748149        0.63283457188175        1.73488867222584
C           -9.06253054518757       -0.73176357287265        2.43812600771306
C          -10.08919649235381        0.60705526123636        0.57741151491350
C           -9.54986793069097        1.68137584816029        2.74723000954376
C           -7.14725648277145        0.05700846580104        0.24115344856507
C           -5.89326426698213        0.30953383044792       -0.29115809050547
C           -5.06661386793631       -0.38731739929374       -1.23781610330166
C           -5.23486657857133       -1.55320777044180       -1.96724819997355
C           -4.24002832605204       -1.98011425168810       -2.83679541148088
C           -4.44291468306455       -3.27334710823115       -3.61436195396952
C           -3.25817967673457       -3.61658039567426       -4.52153638073276
C           -5.69301421558496       -3.13873621744148       -4.49533565520776
C           -4.62967672894149       -4.42947128575498       -2.62125126142444
C           -3.08982281571042       -1.19724079729225       -2.96882745669408
C           -2.89571939888558       -0.02925599205837       -2.25421147156712
C           -3.88153036451238        0.36995599420277       -1.36748678955266
C           -1.64568233276826        2.10517667168339       -0.19894347757073
C           -0.69479996523415        3.10700582527781       -0.07098456725179
C            0.72497434567178        3.09891501361692        0.14767059154010
C            1.66653794749191        2.08665555882215        0.26167157753448
H           10.73477990851567       -0.71913222417881       -1.72206895229761
H            9.17952981866583       -1.50864695749209       -1.48763212622786
H            9.90772428087759       -0.56392198679938       -0.17596720122044
H            8.26381885176368       -0.33274105204874       -3.53547329940302
H            9.88656977623167        0.32944708025225       -3.75689706380659
H            8.48956873512457        1.40269110702134       -3.73710504896587
H            9.55476748088866        2.76709950932762       -1.85548718462279
H           10.05677229523027        1.96152223320981       -0.37113830238543
H           10.95621133028196        1.69971369630710       -1.86872315275296
H            7.35328495696995        2.66018070279299       -2.27208389342892
H            5.15391803132799        3.13525437948891       -1.35186439677589
H            7.66778122280092       -0.90209403435051        0.08832196671739
H            6.13735178559793       -2.19591772977735        1.83753746013685
H            3.10456476059021       -2.93937953071419        5.27006642292218
H            3.44481113098737       -4.64691711312572        5.01580139598217
H            2.33235058723860       -3.81465039811016        3.93554338190430
H            6.57536310123511       -3.07169053602572        3.87229140128190
H            5.83657026530537       -4.16589751925059        5.03918479269340
H            5.58437223508697       -2.42281161927970        5.17622052669332
H            3.72221562439299       -4.57801524347796        1.95447982482433
H            4.72939482808074       -5.45098508968894        3.11367802205230
H            5.46868173203023       -4.34806477149763        1.95543333254187
H            2.31586699230671       -1.56432145687401        3.66995609142768
H            2.01596890238604        0.50576318425554        2.44494762483855
H            4.40543908434350        4.01493652777277        0.77930488998921
H            2.75411633119846        5.83344294458241        0.51376401194232
H            0.03006197468710        6.25994303898428        0.05779967932630
H           -2.69754724143095        5.86486830403323       -0.40547933536203
H           -4.36509721474343        4.06558674138619       -0.69802146265591
H           -5.13208721724989        3.16524285156132        1.41390015417289
H           -7.33450122714073        2.70965208964125        2.31822911602909
H           -8.79957261923599       -1.52909383510834        1.74870278213387
H          -10.04258902147414       -0.95242998579054        2.85647399850627
H           -8.33436959336071       -0.72750326535468        3.24665556568609
H          -10.09313269476127        1.56528183206751        0.06179376833495
H           -9.84340678857978       -0.16604720032587       -0.14512090576516
H          -11.09121213390595        0.41396640982149        0.95543278485331
H           -9.60133060902699        2.66852454338877        2.29354271200058
H          -10.54619353665529        1.42232290671082        3.10064313522215
H           -8.88800079014845        1.71803761585091        3.60943660315308
H           -7.68337362551778       -0.82208841252065       -0.08229329629819
H           -6.14811471222315       -2.11574376597462       -1.84741855800222
H           -3.45914791752514       -4.55201344843807       -5.04042580644934
H           -2.34585365135580       -3.74329239834455       -3.94325925957915
H           -3.10179724747716       -2.84470449702835       -5.27159184081031
H           -6.58207682031190       -2.96110082702371       -3.89678015236065
H           -5.57680605202825       -2.30670313425964       -5.18687784493887
H           -5.84670241275326       -4.04874108015628       -5.07194622575947
H           -4.76278802772736       -5.36755633694855       -3.15649395740049
H           -5.49903452233377       -4.27244490956284       -1.98898415367069
H           -3.75482242918254       -4.51839816598439       -1.98041570278012
H           -2.31114228576328       -1.49611649783339       -3.65097330152943
H           -1.99954312814333        0.55559669504787       -2.39873681987083
H           -1.37022552617141        1.06523483834833       -0.11843576291009
H            1.38126577120418        1.05037371919093        0.16894945617690

          :  Hamiltonian                  GFN2-xTB          :
         :: gradient norm              0.000060410707 Eh/a0 ::
         :: HOMO-LUMO gap              2.519999988918 eV    ::
         :: SCC energy              -150.953865366186 Eh    ::
         :: -> dispersion             -0.137591382547 Eh    ::
         :: repulsion energy           2.600899642743 Eh    ::

    * Orbital Energies and Occupations

         #    Occupation            Energy/Eh            Energy/eV
      -------------------------------------------------------------
         1        2.0000           -0.6832427             -18.5920
       ...           ...                  ...                  ...
       127        2.0000           -0.4071460             -11.0790
       128        2.0000           -0.4015852             -10.9277
       129        2.0000           -0.4010437             -10.9130
       130        2.0000           -0.4003539             -10.8942
       131        2.0000           -0.3997501             -10.8778
       132        2.0000           -0.3880195             -10.5585
       133        2.0000           -0.3873652             -10.5407
       134        2.0000           -0.3854804             -10.4895
       135        2.0000           -0.3775072             -10.2725
       136        2.0000           -0.3664037              -9.9704
       137        2.0000           -0.3656134              -9.9488
       138        2.0000           -0.3485168              -9.4836
       139        2.0000           -0.3446393              -9.3781 (HOMO)
       140                         -0.2520310              -6.8581 (LUMO)
       141                         -0.2355259              -6.4090
       142                         -0.2330360              -6.3412
       143                         -0.2278295              -6.1996
       144                         -0.2103908              -5.7250
       145                         -0.2097591              -5.7078
       146                         -0.2070976              -5.6354
       147                         -0.1973362              -5.3698
       148                         -0.1760704              -4.7911
       149                         -0.1758172              -4.7842
       150                         -0.1744940              -4.7482
       ...                                ...                  ...
       275                          0.7561898              20.5770
      -------------------------------------------------------------
                  HL-Gap            0.0926083 Eh            2.5200 eV

     #   Z          covCN         q      C6AA      α(0)
     1   6 C        3.761    -0.106    22.575     6.773
     2   6 C        3.903     0.026    20.088     6.371
     3   6 C        3.761    -0.105    22.545     6.769
     4   6 C        3.762    -0.105    22.544     6.768
     5   6 C        2.973    -0.004    28.110     8.697
     6   6 C        2.931    -0.040    28.997     8.831
     7   6 C        2.908    -0.054    29.352     8.884
     8   6 C        3.081     0.042    26.962     8.513
     9   6 C        3.067    -0.021    28.458     8.747
    10   6 C        2.918    -0.044    29.091     8.845
    11   6 C        3.067    -0.020    28.447     8.746
    12   6 C        2.920    -0.040    28.993     8.830
    13   6 C        2.972    -0.003    28.104     8.696
    14   6 C        3.903     0.026    20.088     6.371
    15   6 C        3.761    -0.106    22.576     6.773
    16   6 C        3.762    -0.105    22.545     6.768
    17   6 C        3.762    -0.105    22.547     6.769
    18   6 C        2.928    -0.044    29.100     8.847
    19   6 C        2.909    -0.055    29.360     8.885
    20   6 C        3.079     0.042    26.966     8.513
    21   7 N        2.802    -0.045    22.113     6.984
    22   6 C        2.912     0.054    26.789     8.487
    23   6 C        2.927    -0.046    29.138     8.852
    24   6 C        2.909    -0.054    29.348     8.883
    25   6 C        3.073     0.051    26.779     8.485
    26   7 N        2.755    -0.119    23.594     7.214
    27   6 C        3.073     0.051    26.780     8.485
    28   6 C        2.909    -0.054    29.348     8.883
    29   6 C        2.927    -0.046    29.140     8.853
    30   6 C        2.912     0.054    26.789     8.487
    31   7 N        2.802    -0.046    22.119     6.985
    32   6 C        3.079     0.043    26.961     8.513
    33   6 C        2.909    -0.055    29.369     8.886
    34   6 C        2.928    -0.044    29.105     8.847
    35   6 C        2.972    -0.004    28.109     8.697
    36   6 C        3.903     0.026    20.088     6.371
    37   6 C        3.762    -0.105    22.544     6.768
    38   6 C        3.762    -0.105    22.544     6.768
    39   6 C        3.761    -0.106    22.574     6.773
    40   6 C        2.920    -0.040    28.986     8.829
    41   6 C        3.066    -0.020    28.443     8.745
    42   6 C        3.066    -0.020    28.445     8.746
    43   6 C        2.920    -0.040    28.986     8.829
    44   6 C        2.972    -0.003    28.104     8.696
    45   6 C        3.903     0.026    20.088     6.371
    46   6 C        3.761    -0.106    22.577     6.773
    47   6 C        3.762    -0.105    22.543     6.768
    48   6 C        3.762    -0.105    22.545     6.768
    49   6 C        2.928    -0.044    29.096     8.846
    50   6 C        2.909    -0.055    29.362     8.885
    51   6 C        3.078     0.043    26.958     8.512
    52   6 C        2.915    -0.047    29.175     8.857
    53   6 C        3.071    -0.015    28.305     8.723
    54   6 C        3.071    -0.015    28.305     8.723
    55   6 C        2.915    -0.047    29.173     8.857
    56   1 H        0.925     0.034     2.534     2.490
    57   1 H        0.925     0.035     2.517     2.481
    58   1 H        0.925     0.035     2.517     2.481
    59   1 H        0.925     0.033     2.546     2.495
    60   1 H        0.925     0.035     2.522     2.484
    61   1 H        0.925     0.035     2.518     2.482
    62   1 H        0.925     0.035     2.519     2.482
    63   1 H        0.925     0.033     2.550     2.497
    64   1 H        0.925     0.034     2.524     2.484
    65   1 H        0.926     0.026     2.640     2.541
    66   1 H        0.926     0.023     2.684     2.562
    67   1 H        0.926     0.035     2.520     2.482
    68   1 H        0.926     0.028     2.610     2.526
    69   1 H        0.925     0.034     2.525     2.485
    70   1 H        0.925     0.034     2.531     2.488
    71   1 H        0.925     0.035     2.519     2.482
    72   1 H        0.925     0.036     2.508     2.477
    73   1 H        0.925     0.034     2.524     2.484
    74   1 H        0.925     0.032     2.554     2.499
    75   1 H        0.925     0.033     2.549     2.497
    76   1 H        0.925     0.034     2.525     2.485
    77   1 H        0.925     0.036     2.507     2.476
    78   1 H        0.926     0.034     2.532     2.488
    79   1 H        0.926     0.024     2.670     2.555
    80   1 H        0.926     0.042     2.417     2.431
    81   1 H        0.926     0.030     2.582     2.513
    82   1 H        0.860     0.158     1.345     1.817
    83   1 H        0.926     0.030     2.582     2.513
    84   1 H        0.926     0.042     2.418     2.431
    85   1 H        0.926     0.023     2.684     2.562
    86   1 H        0.926     0.033     2.541     2.493
    87   1 H        0.925     0.036     2.508     2.477
    88   1 H        0.925     0.034     2.524     2.484
    89   1 H        0.925     0.033     2.550     2.497
    90   1 H        0.925     0.032     2.554     2.499
    91   1 H        0.925     0.036     2.507     2.476
    92   1 H        0.925     0.034     2.525     2.485
    93   1 H        0.925     0.034     2.526     2.486
    94   1 H        0.925     0.034     2.531     2.488
    95   1 H        0.925     0.034     2.524     2.485
    96   1 H        0.926     0.028     2.617     2.530
    97   1 H        0.926     0.028     2.618     2.530
    98   1 H        0.925     0.034     2.530     2.488
    99   1 H        0.925     0.035     2.519     2.482
   100   1 H        0.925     0.034     2.525     2.485
   101   1 H        0.925     0.035     2.511     2.478
   102   1 H        0.925     0.032     2.553     2.499
   103   1 H        0.925     0.034     2.523     2.484
   104   1 H        0.925     0.034     2.525     2.485
   105   1 H        0.925     0.036     2.509     2.477
   106   1 H        0.925     0.033     2.548     2.496
   107   1 H        0.926     0.034     2.530     2.487
   108   1 H        0.926     0.024     2.668     2.554
   109   1 H        0.926     0.044     2.398     2.422
   110   1 H        0.926     0.044     2.398     2.421

molecular dipole:
                 x           y           z       tot (Debye)
 q only:        0.005       0.816       0.006
   full:        0.004       1.216      -0.002       3.090

 projected vibrational frequencies (cm⁻¹)
eigval :       -0.00    -0.00    -0.00     0.00     0.00     0.00
eigval :        8.27     8.57    11.31    23.49    24.23    30.44
eigval :       30.87    32.12    32.39    45.23    58.82    63.29
eigval :       65.75    77.27    78.23    80.98    93.38   113.99
eigval :      116.84   125.46   144.38   155.67   158.90   174.01
eigval :      174.30   178.61   181.86   183.51   187.50   191.97
eigval :      194.89   202.39   217.19   217.82   221.29   223.74
eigval :      234.19   240.63   246.33   261.03   265.13   273.73
eigval :      274.23   298.12   298.33   300.11   303.28   314.20
eigval :      318.39   321.25   325.64   327.33   328.34   342.76
eigval :      350.61   355.68   356.33   357.71   361.16   365.76
eigval :      378.52   390.27   391.45   399.84   403.23   406.44
eigval :      412.23   412.68   428.72   442.00   443.95   444.78
eigval :      445.91   451.10   458.08   460.75   465.83   468.48
eigval :      468.68   470.75   499.58   507.96   518.96   521.54
eigval :      547.41   557.11   569.69   581.89   583.14   586.60
eigval :      589.19   609.42   613.82   627.49   637.58   638.50
eigval :      638.93   642.96   658.92   681.89   687.50   687.65
eigval :      707.05   707.44   708.09   715.47   719.31   719.92
eigval :      728.60   806.00   813.68   815.10   818.84   819.85
eigval :      825.55   827.03   832.12   834.98   857.33   860.80
eigval :      871.84   873.78   874.31   875.27   876.23   880.33
eigval :      884.84   885.76   902.06   906.14   910.89   911.02
eigval :      917.73   920.21   926.70   926.92   928.44   931.94
eigval :      952.47   959.90   959.93   959.94   960.19   962.35
eigval :      962.41   962.43   962.49   962.56   962.76   962.88
eigval :      963.16   998.02  1024.57  1032.72  1035.69  1035.80
eigval :     1035.85  1035.88  1035.90  1035.97  1036.00  1037.42
eigval :     1040.73  1108.74  1114.31  1131.15  1131.84  1134.00
eigval :     1137.70  1142.92  1153.45  1161.94  1179.60  1181.58
eigval :     1196.17  1200.12  1206.74  1224.84  1226.91  1227.84
eigval :     1227.94  1228.00  1228.23  1231.43  1232.90  1232.98
eigval :     1236.33  1237.24  1239.89  1251.75  1254.56  1261.01
eigval :     1262.08  1285.65  1286.52  1292.16  1297.88  1307.10
eigval :     1307.70  1310.94  1314.58  1341.79  1347.06  1349.15
eigval :     1361.76  1363.92  1368.28  1382.65  1397.14  1402.19
eigval :     1402.53  1404.46  1404.58  1405.71  1405.73  1405.82
eigval :     1405.86  1413.40  1414.47  1425.78  1429.18  1429.28
eigval :     1429.33  1429.37  1431.17  1447.38  1451.12  1475.57
eigval :     1476.22  1476.61  1483.24  1485.31  1492.60  1492.65
eigval :     1492.67  1492.74  1493.49  1495.31  1495.54  1495.65
eigval :     1495.80  1502.25  1502.59  1503.16  1503.49  1506.01
eigval :     1506.05  1506.29  1506.37  1515.15  1515.71  1515.74
eigval :     1515.77  1521.05  1521.12  1521.16  1521.24  1566.97
eigval :     1569.50  1572.75  1580.78  1584.47  1586.34  1605.32
eigval :     1605.71  1608.52  1620.04  1620.48  1621.59  3019.16
eigval :     3019.22  3019.26  3019.62  3020.70  3020.76  3020.80
eigval :     3020.91  3026.22  3026.44  3026.47  3026.49  3027.79
eigval :     3027.92  3028.26  3028.54  3030.38  3030.51  3030.59
eigval :     3030.62  3034.90  3035.19  3035.27  3035.40  3037.10
eigval :     3037.36  3037.53  3037.59  3046.35  3046.93  3047.03
eigval :     3047.25  3049.77  3050.51  3050.65  3050.88  3076.72
eigval :     3079.58  3080.35  3080.75  3081.14  3081.67  3084.90
eigval :     3087.12  3088.69  3090.21  3099.30  3100.20  3100.73
eigval :     3102.90  3115.24  3116.64  3117.36  3117.45  3491.89

   temp. (K)  partition function   enthalpy   heat capacity  entropy
                                   cal/mol     cal/K/mol   cal/K/mol   J/K/mol
 298.15  VIB  0.283E+24            30920.711    193.071    190.220
         ROT  0.180E+09              888.752      2.981     40.757
         INT  0.510E+32            31809.464    196.052    230.977
         TR   0.188E+29             1481.254      4.968     45.590
         TOT                       33290.7175   201.0199   276.5675  1157.1582

       T/K    H(0)-H(T)+PV         H(T)/Eh          T*S/Eh         G(T)/Eh
   ------------------------------------------------------------------------
    298.15    0.530521E-01    0.973337E+00    0.131406E+00    0.841931E+00
   ------------------------------------------------------------------------

         :::::::::::::::::::::::::::::::::::::::::::::::::::::
         ::                  THERMODYNAMIC                  ::
         :::::::::::::::::::::::::::::::::::::::::::::::::::::
         :: total free energy        -147.511034985128 Eh   ::
         ::.................................................::
         :: total energy             -148.352965723443 Eh   ::
         :: zero point energy           0.920284726466 Eh   ::
         :: G(RRHO) w/o ZPVE           -0.078353988151 Eh   ::
         :: G(RRHO) contrib.            0.841930738315 Eh   ::
         :::::::::::::::::::::::::::::::::::::::::::::::::::::

           -------------------------------------------------
          | TOTAL ENERGY             -148.352965723443 Eh   |
          | TOTAL ENTHALPY           -147.379628861755 Eh   |
          | TOTAL FREE ENERGY        -147.511034985128 Eh   |
          | GRADIENT NORM               0.000060411561 Eh/α |
          | HOMO-LUMO GAP               2.520000059975 eV   |
           -------------------------------------------------

 * finished run on 2025/09/14 at 01:08:43.448
