   * xtb version 6.7.1 (edcfbbe) compiled by 'albert@albert-system' on 2024-07-22

   ID    Z sym.   atoms
    1    6 C      1-20, 22-25, 27-30, 32-55
    2    7 N      21, 26, 31
    3    1 H      56-110

          program call               : xtb data2507/gas/tBuCz2/tBuCz2_gas_S0_finalOpt.xtbopt.xyz --gfn 2 --spinpol --tblite --uhf 2 --ohess vtight --parallel 40 --molden --ceasefiles --namespace data2507/gas/tBuCz2/tBuCz2_gas_T1_preOpt
 * total energy  :  -148.2521416 Eh     change        0.6824905E-09 Eh
 * total energy  :  -148.2540271 Eh     change       -0.1885411E-02 Eh
 * total energy  :  -148.2545456 Eh     change       -0.5185894E-03 Eh
 * total energy  :  -148.2546075 Eh     change       -0.6184159E-04 Eh
 * total energy  :  -148.2546442 Eh     change       -0.3669619E-04 Eh
 * total energy  :  -148.2546563 Eh     change       -0.1209970E-04 Eh
 * total energy  :  -148.2546704 Eh     change       -0.1409973E-04 Eh
 * total energy  :  -148.2546767 Eh     change       -0.6268860E-05 Eh
 * total energy  :  -148.2546824 Eh     change       -0.5721868E-05 Eh
 * total energy  :  -148.2546859 Eh     change       -0.3501247E-05 Eh
 * total energy  :  -148.2546887 Eh     change       -0.2777803E-05 Eh
 * total energy  :  -148.2546906 Eh     change       -0.1911439E-05 Eh
 * total energy  :  -148.2546915 Eh     change       -0.9597214E-06 Eh
 * total energy  :  -148.2546923 Eh     change       -0.8054929E-06 Eh
 * total energy  :  -148.2546929 Eh     change       -0.5712715E-06 Eh
 * total energy  :  -148.2546937 Eh     change       -0.7549908E-06 Eh
 * total energy  :  -148.2546940 Eh     change       -0.3363152E-06 Eh
 * total energy  :  -148.2546941 Eh     change       -0.7796660E-07 Eh
   *** GEOMETRY OPTIMIZATION CONVERGED AFTER 18 ITERATIONS ***

 final structure:
================
110
 xtb: 6.7.1 (edcfbbe)
C            9.72677398210037       -2.75206766808530        1.39468457144504
C            8.79672666004207       -1.90062998920359        2.27089804265892
C            9.54411106202522       -0.61858461012249        2.64831818293576
C            8.46502241726539       -2.65704489381101        3.56524996085214
C            7.50892222338579       -1.62629914139836        1.50933159988515
C            6.72678544743727       -2.71020299639917        1.09196028708334
C            5.54610398113604       -2.55527929690329        0.38556913901609
C            5.13784575385701       -1.26885009267509        0.07414230026977
C            5.89049895868852       -0.15615396505963        0.51510337330946
C            7.07136934725302       -0.33983449792836        1.22315368254583
C            5.17070303246522        1.01401838719723        0.09815578836495
C            5.42135713009032        2.37479592027942        0.22120923604789
C            4.53022590058901        3.29038971293456       -0.32292323914072
C            4.73662202504952        4.79366698809150       -0.21654734128136
C            5.99978152172673        5.16234535743223        0.56640511303395
C            3.53233097461906        5.41645525107842        0.50420608883206
C            4.86134005097704        5.38575089395935       -1.62780100926313
C            3.40694966218432        2.80951810930580       -1.00672336057319
C            3.13548426785382        1.45914027507772       -1.14743253281000
C            4.01183781401068        0.55554008534558       -0.56918973360744
N            4.00415532937224       -0.82633096023939       -0.57969960401006
C            3.02158397543821       -1.62826402860332       -1.15722593944984
C            3.40448086981505       -2.71409740652355       -1.95230437797883
C            2.43831773375214       -3.53054771911745       -2.55422182876646
C            1.11119209645458       -3.23390373670847       -2.32980816441304
N           -0.01566190141996       -3.86150619245688       -2.79302491446195
C           -1.13719805870721       -3.22355543601357       -2.33110858569161
C           -2.46675398223702       -3.50778547065240       -2.55726534895470
C           -3.42603337295531       -2.68279946622287       -1.95601880102035
C           -3.03413967468260       -1.60123099908507       -1.15945713011312
N           -4.00999286477221       -0.79140084719802       -0.58170335976606
C           -4.00475322180047        0.59049126178322       -0.56770876620050
C           -3.11916603313936        1.48739830755153       -1.14228310835216
C           -3.37786127909826        2.83991951611329       -0.99785875975408
C           -4.49731358264228        3.32949003170614       -0.31397663609698
C           -4.68910563211414        4.83434596562693       -0.20273147145077
C           -4.80586033393924        5.43258014846117       -1.61206585462015
C           -3.47980262945376        5.44267053917824        0.52198624971045
C           -5.94973461766992        5.21270695603150        0.57968557085811
C           -5.39804793274545        2.42084139714931        0.22597768811259
C           -5.16024649529557        1.05809386161378        0.09918672488135
C           -5.89171511216879       -0.10629060209899        0.51189397092487
C           -7.07559013267078       -0.28059447248630        1.21731848479185
C           -7.52569084020994       -1.56358858852033        1.49960991726270
C           -8.81754920019323       -1.82767522733488        2.25792139373938
C           -9.75296826659412       -2.67008309833876        1.37869508394734
C           -9.55473149319114       -0.53965098168766        2.63505854225494
C           -8.49520585242607       -2.58837883792076        3.55212275973264
C           -6.75271119361111       -2.65373833986211        1.08147867531006
C           -5.56935538008184       -2.50816907657527        0.37752506299949
C           -5.14875700007863       -1.22491270960794        0.06946866628134
C           -1.68690207061460       -1.30814291936608       -0.92567157934951
C           -0.71655577849084       -2.12874633350380       -1.51574359310243
C            0.69968844070650       -2.13513943065648       -1.51510259928431
C            1.67688855575886       -1.32283145039161       -0.92485476694243
H           10.66186297300700       -2.94396009362999        1.91695536151602
H            9.95011082122488       -2.22952770138585        0.46677464145705
H            9.27395409444705       -3.70774510669286        1.14638522149853
H            9.81797525954000       -0.05035592937765        1.76235759403838
H           10.45902229300539       -0.87546123322208        3.17874155298668
H            8.94209603775825        0.00737024910947        3.30288828594735
H            7.78691788903201       -2.06889741745941        4.18018063238606
H            7.99234396948258       -3.61264319366940        3.35674470111513
H            9.37392070792150       -2.84334933237143        4.13374713938155
H            7.04204786117968       -3.71480675203108        1.32777711722705
H            4.95982556497143       -3.41549742346670        0.10177343039812
H            7.62238564814729        0.52868319103316        1.54236289818588
H            6.31274261329848        2.69108561212404        0.73617566877867
H            5.95574988423270        4.77831589411328        1.58296366403608
H            6.08941898259439        6.24561911164291        0.62019734674782
H            6.89079569995127        4.77657420948263        0.07650228830754
H            2.60889034453697        5.24112561703636       -0.04029175321427
H            3.67002593449977        6.49120781070419        0.60381035690383
H            3.42761161142190        4.98780260597351        1.49878434032505
H            5.69814732762153        4.93015439877712       -2.15322879400501
H            5.03219338126431        6.45882365757770       -1.57018437092746
H            3.96066610038756        5.21548765441484       -2.21076234572781
H            2.71753218422266        3.50882535108839       -1.45378306344041
H            2.27218168509614        1.12859287622704       -1.70399914602910
H            4.45019464838568       -2.88762102700440       -2.14649777674566
H            2.73445017473513       -4.34975994736192       -3.19148776662140
H           -0.01910223628898       -4.68104164601389       -3.37806083605564
H           -2.76969429741607       -4.32390870190594       -3.19529345489357
H           -4.47304145750012       -2.84644762579483       -2.15177354663783
H           -2.25836584838878        1.15034787045032       -1.69881627095539
H           -2.68115457211215        3.53390524740928       -1.44189494894428
H           -3.90603909399212        5.25548975061607       -2.19430813280173
H           -4.96618904531876        6.50707855417852       -1.55089321732479
H           -5.64634522736834        4.98713618951614       -2.14032036197723
H           -3.38088588889872        5.00960096381559        1.51524589440730
H           -2.55729991517812        5.26004223036747       -0.02170360804872
H           -3.60698838506899        6.51838786387866        0.62507866707360
H           -5.91097984671996        4.82475720623784        1.59497097816511
H           -6.02877620173406        6.29661723350309        0.63711476294854
H           -6.84378734315881        4.83743181962317        0.08717010927393
H           -6.28711089810475        2.74409088143978        0.74063536768701
H           -7.61907456843440        0.59228642922059        1.53753698381210
H          -10.69099801489856       -2.85407195924741        1.89853011516304
H           -9.30812010796909       -3.62956944736719        1.13069172679422
H           -9.96939017385582       -2.14480469105454        0.45069251160059
H           -8.94912228646263        0.08015615562186        3.29215567493154
H           -9.82116418565781        0.03213113727102        1.74911353589092
H          -10.47330595298642       -0.78925304638855        3.16261339197475
H           -9.40697228963074       -2.76788395120564        4.11820782897024
H           -7.81375374710696       -2.00660046143704        4.16940928638044
H           -8.02989301431735       -3.54756773518166        3.34350985911395
H           -7.07755438417496       -3.65590126928427        1.31465100093319
H           -4.99049610734809       -3.37318201592640        0.09309129415147
H           -1.40708647702769       -0.50811070179921       -0.26020251639648
H            1.40378330271461       -0.51947274584011       -0.26059496937949

 projected vibrational frequencies (cm⁻¹)
eigval :       -0.00    -0.00    -0.00     0.00     0.00     0.00
eigval :        8.45     8.53    11.44    23.52    26.22    30.59
eigval :       30.97    33.25    33.50    44.15    58.33    61.41
eigval :       65.20    75.33    76.17    84.79    97.90   116.06
eigval :      118.31   124.93   139.91   158.81   160.26   173.16
eigval :      175.10   180.22   184.71   187.82   193.89   199.52
eigval :      200.62   204.90   218.60   219.06   220.87   224.24
eigval :      228.41   230.42   231.20   239.69   254.62   255.57
eigval :      271.65   276.80   281.11   305.84   317.02   317.22
eigval :      321.64   321.96   325.46   327.48   331.73   336.82
eigval :      343.00   350.28   355.44   357.36   358.17   362.37
eigval :      363.33   382.68   384.32   388.94   393.65   403.73
eigval :      407.34   408.52   417.14   438.51   438.78   441.07
eigval :      441.86   456.25   460.06   464.34   465.18   469.16
eigval :      476.04   495.39   498.98   509.62   517.85   519.24
eigval :      546.46   547.04   564.39   582.04   584.48   587.34
eigval :      592.91   594.38   607.90   621.94   626.55   637.84
eigval :      638.02   638.45   649.31   656.28   667.91   685.58
eigval :      685.73   700.99   701.31   711.25   716.22   718.08
eigval :      720.21   759.68   764.27   774.89   780.24   797.30
eigval :      812.55   813.07   817.62   819.79   826.98   829.32
eigval :      829.55   831.01   848.98   849.16   857.52   857.55
eigval :      857.92   858.51   872.63   873.19   902.44   902.82
eigval :      903.11   903.84   923.05   924.25   924.81   931.77
eigval :      937.54   960.22   960.26   960.31   960.33   962.71
eigval :      962.79   962.83   962.96   962.99   963.00   963.02
eigval :      963.17   983.59  1014.59  1030.33  1030.72  1034.99
eigval :     1035.10  1035.10  1035.20  1035.61  1035.70  1040.61
eigval :     1041.12  1084.26  1092.18  1103.95  1121.09  1126.63
eigval :     1126.79  1128.09  1130.56  1136.29  1162.93  1163.65
eigval :     1165.90  1174.80  1188.93  1196.28  1211.54  1220.86
eigval :     1221.59  1226.65  1226.73  1226.77  1226.80  1230.34
eigval :     1230.36  1231.35  1231.40  1231.61  1232.17  1245.17
eigval :     1255.18  1255.51  1264.87  1269.57  1278.90  1280.28
eigval :     1289.55  1290.40  1294.47  1303.54  1330.74  1338.52
eigval :     1338.60  1339.69  1351.71  1358.67  1378.95  1385.28
eigval :     1395.54  1396.86  1402.22  1404.39  1404.58  1404.95
eigval :     1405.10  1405.31  1405.33  1405.44  1406.45  1407.70
eigval :     1417.10  1428.42  1428.68  1428.81  1428.85  1429.02
eigval :     1436.02  1459.02  1459.11  1461.04  1473.40  1474.60
eigval :     1491.79  1491.83  1491.87  1491.87  1494.63  1494.83
eigval :     1494.84  1494.99  1499.87  1500.61  1500.85  1500.95
eigval :     1504.55  1504.67  1504.78  1504.93  1506.15  1513.34
eigval :     1514.77  1514.80  1514.99  1515.00  1516.40  1519.75
eigval :     1519.83  1520.88  1521.10  1533.55  1533.97  1542.89
eigval :     1562.98  1563.28  1565.33  1565.52  1610.68  3020.76
eigval :     3020.77  3020.89  3020.90  3022.28  3022.28  3022.37
eigval :     3022.41  3027.19  3027.20  3027.27  3027.29  3028.94
eigval :     3029.00  3029.10  3029.64  3031.19  3031.20  3031.31
eigval :     3031.38  3035.55  3035.59  3035.73  3035.86  3037.95
eigval :     3037.96  3038.10  3038.25  3048.18  3048.18  3048.29
eigval :     3048.40  3051.35  3051.38  3051.48  3051.68  3081.24
eigval :     3082.23  3085.80  3086.15  3086.30  3086.43  3096.33
eigval :     3097.25  3097.38  3097.61  3104.42  3107.13  3108.97
eigval :     3109.72  3117.27  3117.28  3119.62  3120.42  3463.66

   temp. (K)  partition function   enthalpy   heat capacity  entropy
                                   cal/mol     cal/K/mol   cal/K/mol   J/K/mol
 298.15  VIB  0.318E+24            31210.743    195.453    191.596
         ROT  0.180E+09              888.752      2.981     40.754
         INT  0.572E+32            32099.495    198.434    232.350
         TR   0.188E+29             1481.254      4.968     45.590
         TOT                       33580.7494   203.4017   277.9402  1162.9018

       T/K    H(0)-H(T)+PV         H(T)/Eh          T*S/Eh         G(T)/Eh
   ------------------------------------------------------------------------
    298.15    0.535143E-01    0.967636E+00    0.132058E+00    0.835577E+00
   ------------------------------------------------------------------------

         :::::::::::::::::::::::::::::::::::::::::::::::::::::
         ::                  THERMODYNAMIC                  ::
         :::::::::::::::::::::::::::::::::::::::::::::::::::::
         :: total free energy        -147.419117006812 Eh   ::
         ::.................................................::
         :: total energy             -148.254694147478 Eh   ::
         :: zero point energy           0.914121172213 Eh   ::
         :: G(RRHO) w/o ZPVE           -0.078544031547 Eh   ::
         :: G(RRHO) contrib.            0.835577140666 Eh   ::
         :::::::::::::::::::::::::::::::::::::::::::::::::::::

           -------------------------------------------------
          | TOTAL ENERGY             -148.254694147478 Eh   |
          | TOTAL ENTHALPY           -147.287058644782 Eh   |
          | TOTAL FREE ENERGY        -147.419117006812 Eh   |
          | GRADIENT NORM               0.000159520349 Eh/α |
           -------------------------------------------------

 * finished run on 2025/09/14 at 01:33:11.029
