   * xtb version 6.7.1 (edcfbbe) compiled by 'albert@albert-system' on 2024-07-22

   ID    Z sym.   atoms
    1    6 C      1-5, 7-20, 22-29
    2    7 N      6, 21
    3    1 H      30-47

          program call               : xtb data2507/gas/PPI/PPI_gas_S0_finalOpt.xtbopt.xyz --gfn 2 --spinpol --tblite --uhf 2 --ohess vtight --parallel 40 --molden --ceasefiles --namespace data2507/gas/PPI/PPI_gas_T1_preOpt
 * total energy  :   -72.7741133 Eh     change        0.9654883E-08 Eh
 * total energy  :   -72.7810923 Eh     change       -0.6979005E-02 Eh
 * total energy  :   -72.7834725 Eh     change       -0.2380168E-02 Eh
 * total energy  :   -72.7838950 Eh     change       -0.4225412E-03 Eh
 * total energy  :   -72.7845405 Eh     change       -0.6454850E-03 Eh
 * total energy  :   -72.7849195 Eh     change       -0.3789528E-03 Eh
 * total energy  :   -72.7852175 Eh     change       -0.2980679E-03 Eh
 * total energy  :   -72.7853998 Eh     change       -0.1822722E-03 Eh
 * total energy  :   -72.7855260 Eh     change       -0.1262180E-03 Eh
 * total energy  :   -72.7856371 Eh     change       -0.1110708E-03 Eh
 * total energy  :   -72.7859598 Eh     change       -0.1534675E-05 Eh
 * total energy  :   -72.7859608 Eh     change       -0.1052963E-05 Eh
 * total energy  :   -72.7859614 Eh     change       -0.5684033E-06 Eh
 * total energy  :   -72.7859618 Eh     change       -0.4101112E-06 Eh
 * total energy  :   -72.7859621 Eh     change       -0.2560861E-06 Eh
 * total energy  :   -72.7859621 Eh     change       -0.1313784E-07 Eh
 * total energy  :   -72.7859622 Eh     change       -0.1405142E-06 Eh
 * total energy  :   -72.7859623 Eh     change       -0.1079693E-06 Eh
 * total energy  :   -72.7859624 Eh     change       -0.3947402E-07 Eh
   *** GEOMETRY OPTIMIZATION CONVERGED AFTER 37 ITERATIONS ***

 final structure:
================
47
 xtb: 6.7.1 (edcfbbe)
C           -5.04993145477268       -2.68970514009578        0.08616561244040
C           -4.86096658102238       -1.36295948269370        0.47148256929000
C           -3.61832094623890       -0.78419592727946        0.43946753004482
C           -2.48634913737093       -1.52844008028421        0.00237768766461
C           -1.17572400241514       -1.04350757942667       -0.07895890909592
N           -0.11261849170696       -1.87890706315954       -0.16752623913679
C            0.96974960752119       -1.14261941600785       -0.07427888718672
C            2.32497227700764       -1.58832191663033       -0.04308714621975
C            2.62250416419207       -2.95098052642235       -0.05387199287093
C            3.93353022133030       -3.38061214781457        0.02020268272645
C            4.94627546492543       -2.43962149470023        0.11550885510030
C            4.65952288492041       -1.08460953662212        0.11994166352259
C            3.34622025967330       -0.61278585922583        0.02990315431945
C            3.01327710210601        0.80444435451608       -0.01161602444610
C            4.00160079921271        1.78127342771874       -0.05529451560037
C            3.70975788077037        3.13191222114880       -0.13707632837066
C            2.37928810254290        3.55360049834644       -0.20423451728681
C            1.36939890280717        2.63475895130267       -0.15758357770726
C            1.63667534824018        1.24289540511120       -0.03905584647464
C            0.64516286962120        0.26543764985950        0.01182569550434
N           -0.73105742203712        0.30783695838344        0.00895717031310
C           -1.56335489165918        1.43164492074992        0.01086323511121
C           -1.52532479570253        2.33719716268594        1.07292216455564
C           -2.36557884192549        3.43299411535978        1.07195723385815
C           -3.24909708511488        3.63766519718627        0.02218728926723
C           -3.29050399784581        2.73712734676206       -1.03127958526811
C           -2.45543198724395        1.63729623994259       -1.04293197631560
C           -2.69639625929447       -2.89831526394158       -0.34119783858472
C           -3.94609349763090       -3.45161542101372       -0.30617082845615
H           -6.03560965183106       -3.12800046931329        0.10864118531230
H           -5.70656783322975       -0.78279294482311        0.81274353770537
H           -3.49733210033008        0.22578147214814        0.79390884310188
H            1.80116332656477       -3.64763564849184       -0.11401284111841
H            4.16585898416883       -4.43466663037587        0.01107507538911
H            5.97537554515447       -2.76112089520709        0.18638753149538
H            5.48457378191155       -0.39509218192843        0.19941676990792
H            5.04100857085446        1.49450081649624       -0.03827786861444
H            4.51003771401954        3.85536570955414       -0.16651825755754
H            2.15090661482736        4.60482234601770       -0.29952004722659
H            0.34713909723172        2.96505877092203       -0.23622551117609
H           -0.83997430787813        2.16610983736026        1.89039575339648
H           -2.33675945014023        4.12788924140945        1.89807964153158
H           -3.90466750988783        4.49498779650772        0.02753260422820
H           -3.97603778513161        2.89479742457548       -1.85041559122824
H           -2.48347572262171        0.92925035571963       -1.85768439775729
H           -1.83565780521346       -3.47090544686654       -0.64610510829279
H           -4.08541432135433       -4.48608876288194       -0.58511510890481

 projected vibrational frequencies (cm⁻¹)
eigval :       -0.00    -0.00    -0.00     0.00     0.00     0.00
eigval :       19.12    33.76    37.30    51.49    66.90    67.53
eigval :       80.82   100.27   127.72   156.18   179.46   211.95
eigval :      217.63   237.90   249.82   255.83   287.67   307.14
eigval :      354.87   370.25   380.15   388.30   392.74   403.66
eigval :      417.31   433.35   452.62   475.45   486.95   511.01
eigval :      518.34   570.23   578.06   580.28   590.46   619.65
eigval :      626.60   635.10   645.07   654.61   658.89   666.27
eigval :      692.36   717.45   722.04   725.27   743.28   756.36
eigval :      767.88   789.09   822.79   839.30   855.84   857.30
eigval :      871.21   886.01   891.93   904.04   907.36   910.66
eigval :      913.06   917.53   918.55   924.68   925.61   928.18
eigval :      941.30   978.26   983.44  1033.80  1060.03  1074.57
eigval :     1076.23  1084.52  1098.44  1116.46  1117.00  1129.12
eigval :     1147.29  1160.80  1170.94  1176.44  1178.61  1179.50
eigval :     1182.96  1185.57  1202.10  1239.07  1244.46  1266.67
eigval :     1268.88  1274.25  1281.88  1317.18  1322.35  1328.54
eigval :     1340.26  1347.54  1367.29  1385.26  1388.83  1402.18
eigval :     1414.31  1431.52  1433.83  1440.08  1471.52  1490.23
eigval :     1492.80  1501.81  1540.47  1547.80  1554.62  1557.19
eigval :     1562.20  1568.19  1588.09  3072.08  3075.74  3075.75
eigval :     3078.99  3079.44  3081.91  3088.77  3089.11  3091.03
eigval :     3093.49  3095.74  3099.23  3100.65  3108.03  3109.68
eigval :     3115.22  3122.28  3127.38

   temp. (K)  partition function   enthalpy   heat capacity  entropy
                                   cal/mol     cal/K/mol   cal/K/mol   J/K/mol
 298.15  VIB  0.375E+09            12342.385     82.567     74.691
         ROT  0.151E+08              888.752      2.981     35.834
         INT  0.567E+16            13231.137     85.548    110.525
         TR   0.690E+28             1481.254      4.968     43.602
         TOT                       14712.3913    90.5164   154.1267   644.8660

       T/K    H(0)-H(T)+PV         H(T)/Eh          T*S/Eh         G(T)/Eh
   ------------------------------------------------------------------------
    298.15    0.234457E-01    0.380293E+00    0.732306E-01    0.307062E+00
   ------------------------------------------------------------------------

         :::::::::::::::::::::::::::::::::::::::::::::::::::::
         ::                  THERMODYNAMIC                  ::
         :::::::::::::::::::::::::::::::::::::::::::::::::::::
         :: total free energy         -72.478900164790 Eh   ::
         ::.................................................::
         :: total energy              -72.785962352184 Eh   ::
         :: zero point energy           0.356847050190 Eh   ::
         :: G(RRHO) w/o ZPVE           -0.049784862796 Eh   ::
         :: G(RRHO) contrib.            0.307062187394 Eh   ::
         :::::::::::::::::::::::::::::::::::::::::::::::::::::

           -------------------------------------------------
          | TOTAL ENERGY              -72.785962352184 Eh   |
          | TOTAL ENTHALPY            -72.405669614039 Eh   |
          | TOTAL FREE ENERGY         -72.478900164790 Eh   |
          | GRADIENT NORM               0.000186652983 Eh/α |
           -------------------------------------------------

 * finished run on 2025/09/07 at 05:29:19.572
