   * xtb version 6.7.1 (edcfbbe) compiled by 'albert@albert-system' on 2024-07-22

   ID    Z sym.   atoms
    1    6 C      1-5, 7-20, 22-29
    2    7 N      6, 21
    3    1 H      30-47

          program call               : xtb data2507/gas/PPI/PPI.xyz --gfn 2 --ohess vtight --parallel 40 --molden --ceasefiles --namespace data2507/gas/PPI/PPI_gas_S0_preOpt
          :  Hamiltonian                  GFN2-xTB          :
 * total energy  :   -72.8642938 Eh     change       -0.1314177E-08 Eh
 * total energy  :   -72.8723870 Eh     change       -0.8093226E-02 Eh
 * total energy  :   -72.8743282 Eh     change       -0.1941171E-02 Eh
 * total energy  :   -72.8747230 Eh     change       -0.3948479E-03 Eh
 * total energy  :   -72.8750070 Eh     change       -0.2839411E-03 Eh
 * total energy  :   -72.8752440 Eh     change       -0.2370124E-03 Eh
 * total energy  :   -72.8755476 Eh     change       -0.3036062E-03 Eh
 * total energy  :   -72.8758898 Eh     change       -0.3421604E-03 Eh
 * total energy  :   -72.8761698 Eh     change       -0.2800590E-03 Eh
 * total energy  :   -72.8763534 Eh     change       -0.1835338E-03 Eh
 * total energy  :   -72.8772646 Eh     change       -0.1674810E-05 Eh
 * total energy  :   -72.8772659 Eh     change       -0.1335532E-05 Eh
 * total energy  :   -72.8772670 Eh     change       -0.1080200E-05 Eh
 * total energy  :   -72.8772679 Eh     change       -0.8669458E-06 Eh
 * total energy  :   -72.8772687 Eh     change       -0.7887924E-06 Eh
 * total energy  :   -72.8772695 Eh     change       -0.8115347E-06 Eh
 * total energy  :   -72.8772702 Eh     change       -0.7564137E-06 Eh
 * total energy  :   -72.8772707 Eh     change       -0.4835305E-06 Eh
 * total energy  :   -72.8772707 Eh     change       -0.5515531E-08 Eh
   *** GEOMETRY OPTIMIZATION CONVERGED AFTER 44 ITERATIONS ***

 final structure:
================
47
 xtb: 6.7.1 (edcfbbe)
C           -5.10263940436068       -2.40506968548140       -0.13009229257587
C           -4.14519734979551       -3.13379134767838        0.55754415401954
C           -2.83158733820486       -2.70934126210339        0.57496827788246
C           -2.45606262165795       -1.54294189546023       -0.09274153750045
C           -1.05551872135777       -1.15325534507506       -0.04284342484739
N           -0.07639372337333       -2.02241413641315       -0.01327431711170
C            1.07086274459669       -1.29636626747259        0.01584346329862
C            2.40919450686669       -1.77910364617530        0.01284144152290
C            2.68473630604214       -3.14973351684546       -0.03074084561646
C            3.98243613695128       -3.59472369407897       -0.06669264045358
C            5.02354641001238       -2.66846695513801       -0.06462755385766
C            4.76391710449980       -1.31881299164462       -0.01611070540138
C            3.45136333104058       -0.82443387343525        0.03243871710409
C            3.14440677890300        0.59277084631752        0.12148084913711
C            4.15624366798813        1.55791874027627        0.22414964447223
C            3.87713901986279        2.89752260351731        0.35543981696741
C            2.55708988116385        3.33317782779884        0.40786574113486
C            1.53588966498897        2.42156543749115        0.30209350950305
C            1.79884898083434        1.05394220061855        0.13792176036430
C            0.77973971505260        0.06681177391148        0.02170810552119
N           -0.59424112152001        0.14571023063269       -0.02748933970584
C           -1.40668436628784        1.29591480758432       -0.05984538341648
C           -2.28646095955404        1.54808569475797        0.98594062586468
C           -3.10774927186213        2.66001064322020        0.93596236426255
C           -3.05420307827079        3.51856746847525       -0.14929465983064
C           -2.17679139022315        3.26541857913653       -1.19171693484129
C           -1.35422339049403        2.15504704231162       -1.15388117191149
C           -3.41905683070326       -0.82988616819175       -0.80399325577528
C           -4.73302329491851       -1.26024921234185       -0.81553546684818
H           -6.13145504653536       -2.73346003100591       -0.14031125118924
H           -4.42603717667582       -4.03523523096357        1.08208481591795
H           -2.07329981724278       -3.26737128801174        1.10163988039889
H            1.84875734707385       -3.83169960308234       -0.04179569735672
H            4.20037056508233       -4.65197270366683       -0.10161091675625
H            6.04689039137574       -3.01356573880186       -0.10146518079684
H            5.60217427703913       -0.64021576724480       -0.01989959760656
H            5.19031973209387        1.25358047508328        0.21111412412212
H            4.68417113901916        3.61130259571734        0.43212562339210
H            2.33498944498695        4.38236895721305        0.53584564520917
H            0.51472404293623        2.76291992679253        0.36313147859611
H           -2.32188986563834        0.87053771669253        1.82600793174382
H           -3.79027291937568        2.85637593292107        1.74892875837907
H           -3.69648939092065        4.38542447810929       -0.18433269648393
H           -2.13514985420422        3.93225409842936       -2.03984340732617
H           -0.66730811403617        1.94583293418483       -1.96112637511108
H           -3.14444994060611        0.04830791601434       -1.36836484967429
H           -5.47162520059264       -0.69926056689722       -1.36944722682412

          :  Hamiltonian                  GFN2-xTB          :
         :: gradient norm              0.000052951194 Eh/a0 ::
         :: HOMO-LUMO gap              2.789487684570 eV    ::
         :: SCC energy               -74.252777413940 Eh    ::
         :: -> dispersion             -0.064513851538 Eh    ::
         :: repulsion energy           1.375506698547 Eh    ::

    * Orbital Energies and Occupations

         #    Occupation            Energy/Eh            Energy/eV
      -------------------------------------------------------------
         1        2.0000           -0.6845376             -18.6272
       ...           ...                  ...                  ...
        56        2.0000           -0.4267200             -11.6116
        57        2.0000           -0.4239762             -11.5370
        58        2.0000           -0.4231119             -11.5135
        59        2.0000           -0.4195478             -11.4165
        60        2.0000           -0.4155669             -11.3082
        61        2.0000           -0.4123309             -11.2201
        62        2.0000           -0.4077443             -11.0953
        63        2.0000           -0.4048886             -11.0176
        64        2.0000           -0.4032547             -10.9731
        65        2.0000           -0.3940376             -10.7223
        66        2.0000           -0.3780566             -10.2874
        67        2.0000           -0.3735162             -10.1639
        68        2.0000           -0.3608027              -9.8179 (HOMO)
        69                         -0.2582909              -7.0285 (LUMO)
        70                         -0.2472789              -6.7288
        71                         -0.2420290              -6.5859
        72                         -0.2391617              -6.5079
        73                         -0.2374006              -6.4600
        74                         -0.2251493              -6.1266
        75                         -0.2058064              -5.6003
        76                         -0.1855004              -5.0477
        77                         -0.1702416              -4.6325
        78                         -0.1357735              -3.6946
        79                         -0.1122044              -3.0532
       ...                                ...                  ...
       134                          0.7311827              19.8965
      -------------------------------------------------------------
                  HL-Gap            0.1025118 Eh            2.7895 eV

     #   Z          covCN         q      C6AA      α(0)
     1   6 C        2.920    -0.029    28.722     8.789
     2   6 C        2.918    -0.027    28.682     8.782
     3   6 C        2.929    -0.027    28.683     8.783
     4   6 C        2.974     0.003    27.949     8.672
     5   6 C        3.191     0.127    24.769     8.117
     6   7 N        1.896    -0.291    28.387     7.899
     7   6 C        3.207     0.057    26.139     8.326
     8   6 C        2.986     0.003    27.955     8.673
     9   6 C        2.922    -0.031    28.777     8.797
    10   6 C        2.917    -0.030    28.757     8.794
    11   6 C        2.917    -0.033    28.822     8.804
    12   6 C        2.922    -0.035    28.869     8.811
    13   6 C        2.979    -0.002    28.060     8.689
    14   6 C        2.980     0.002    27.979     8.677
    15   6 C        2.922    -0.034    28.842     8.807
    16   6 C        2.916    -0.033    28.834     8.805
    17   6 C        2.917    -0.032    28.797     8.800
    18   6 C        2.919    -0.040    29.003     8.831
    19   6 C        2.978    -0.002    28.067     8.690
    20   6 C        3.074     0.020    27.495     8.597
    21   7 N        2.841    -0.046    22.123     6.986
    22   6 C        2.913     0.069    26.446     8.433
    23   6 C        2.922    -0.037    28.932     8.821
    24   6 C        2.920    -0.026    28.643     8.776
    25   6 C        2.920    -0.030    28.749     8.793
    26   6 C        2.920    -0.027    28.677     8.782
    27   6 C        2.921    -0.037    28.909     8.817
    28   6 C        2.922    -0.034    28.852     8.809
    29   6 C        2.919    -0.029    28.727     8.789
    30   1 H        0.926     0.033     2.540     2.492
    31   1 H        0.926     0.036     2.502     2.474
    32   1 H        0.926     0.052     2.293     2.368
    33   1 H        0.926     0.050     2.317     2.380
    34   1 H        0.926     0.030     2.591     2.517
    35   1 H        0.926     0.027     2.623     2.533
    36   1 H        0.926     0.030     2.585     2.514
    37   1 H        0.926     0.034     2.530     2.487
    38   1 H        0.926     0.028     2.613     2.528
    39   1 H        0.926     0.026     2.640     2.541
    40   1 H        0.926     0.025     2.658     2.550
    41   1 H        0.926     0.040     2.450     2.448
    42   1 H        0.926     0.040     2.446     2.446
    43   1 H        0.926     0.039     2.460     2.452
    44   1 H        0.926     0.040     2.447     2.446
    45   1 H        0.926     0.043     2.413     2.429
    46   1 H        0.926     0.026     2.638     2.540
    47   1 H        0.926     0.031     2.570     2.507

molecular dipole:
                 x           y           z       tot (Debye)
 q only:       -0.752       0.674       0.032
   full:       -0.771       1.136       0.020       3.491

 projected vibrational frequencies (cm⁻¹)
eigval :       -0.00    -0.00    -0.00    -0.00     0.00     0.00
eigval :       23.14    29.54    39.37    56.25    61.65    68.48
eigval :       83.30    94.18   129.66   164.89   188.15   209.30
eigval :      235.36   238.33   254.61   268.46   286.23   336.74
eigval :      363.81   373.18   376.93   397.96   403.67   435.72
eigval :      442.11   466.43   475.09   496.82   517.18   523.52
eigval :      535.23   584.71   586.08   590.27   630.53   639.11
eigval :      649.90   653.44   664.00   676.01   678.51   684.37
eigval :      701.53   732.00   735.58   760.58   765.24   767.16
eigval :      782.60   793.45   862.58   874.83   875.68   876.40
eigval :      900.33   903.30   907.51   914.22   923.91   927.27
eigval :      928.55   928.90   931.75   932.52   939.23   945.78
eigval :      976.08  1010.49  1025.17  1068.81  1079.21  1083.29
eigval :     1085.95  1108.57  1115.21  1121.08  1133.84  1152.64
eigval :     1173.85  1180.46  1181.24  1183.02  1186.26  1189.23
eigval :     1199.73  1210.58  1253.67  1258.04  1275.21  1279.78
eigval :     1284.36  1303.25  1313.50  1322.54  1331.31  1338.97
eigval :     1348.11  1375.27  1407.63  1419.02  1427.17  1432.68
eigval :     1434.76  1438.12  1457.97  1480.89  1514.08  1514.50
eigval :     1544.60  1561.79  1567.50  1582.11  1582.95  1594.33
eigval :     1594.79  1597.98  1604.98  3071.75  3074.53  3075.05
eigval :     3079.82  3081.97  3083.32  3084.55  3085.63  3090.06
eigval :     3090.35  3095.43  3096.60  3097.87  3101.95  3104.96
eigval :     3106.33  3110.45  3113.73

   temp. (K)  partition function   enthalpy   heat capacity  entropy
                                   cal/mol     cal/K/mol   cal/K/mol   J/K/mol
 298.15  VIB  0.222E+09            11980.419     80.267     72.610
         ROT  0.149E+08              888.752      2.981     35.800
         INT  0.329E+16            12869.172     83.248    108.411
         TR   0.690E+28             1481.254      4.968     43.602
         TOT                       14350.4254    88.2157   152.0124   636.0198

       T/K    H(0)-H(T)+PV         H(T)/Eh          T*S/Eh         G(T)/Eh
   ------------------------------------------------------------------------
    298.15    0.228689E-01    0.384583E+00    0.722260E-01    0.312357E+00
   ------------------------------------------------------------------------

         :::::::::::::::::::::::::::::::::::::::::::::::::::::
         ::                  THERMODYNAMIC                  ::
         :::::::::::::::::::::::::::::::::::::::::::::::::::::
         :: total free energy         -72.564913889660 Eh   ::
         ::.................................................::
         :: total energy              -72.877270715393 Eh   ::
         :: zero point energy           0.361713956187 Eh   ::
         :: G(RRHO) w/o ZPVE           -0.049357130455 Eh   ::
         :: G(RRHO) contrib.            0.312356825733 Eh   ::
         :::::::::::::::::::::::::::::::::::::::::::::::::::::

           -------------------------------------------------
          | TOTAL ENERGY              -72.877270715393 Eh   |
          | TOTAL ENTHALPY            -72.492687900619 Eh   |
          | TOTAL FREE ENERGY         -72.564913889660 Eh   |
          | GRADIENT NORM               0.000052935170 Eh/α |
          | HOMO-LUMO GAP               2.789487382688 eV   |
           -------------------------------------------------

 * finished run on 2025/09/07 at 05:28:18.395
