   * xtb version 6.7.1 (edcfbbe) compiled by 'albert@albert-system' on 2024-07-22

   ID    Z sym.   atoms
    1    6 C      1-5, 7-20, 22-29
    2    7 N      6, 21
    3    1 H      30-47

          program call               : xtb data2507/gas/PPI/PPI_gas_T1_crest.xyz --gfn 2 --spinpol --tblite --uhf 2 --ohess vtight --parallel 40 --molden --ceasefiles --namespace data2507/gas/PPI/PPI_gas_T1_finalOpt
 * total energy  :   -72.7859472 Eh     change        0.1704578E-08 Eh
 * total energy  :   -72.7859566 Eh     change       -0.9378451E-05 Eh
 * total energy  :   -72.7859603 Eh     change       -0.3684825E-05 Eh
 * total energy  :   -72.7859608 Eh     change       -0.4959570E-06 Eh
 * total energy  :   -72.7859612 Eh     change       -0.4516622E-06 Eh
 * total energy  :   -72.7859615 Eh     change       -0.2563022E-06 Eh
 * total energy  :   -72.7859618 Eh     change       -0.3161600E-06 Eh
 * total energy  :   -72.7859620 Eh     change       -0.1945303E-06 Eh
 * total energy  :   -72.7859621 Eh     change       -0.1452568E-06 Eh
 * total energy  :   -72.7859622 Eh     change       -0.1162969E-06 Eh
 * total energy  :   -72.7859623 Eh     change       -0.1001731E-06 Eh
 * total energy  :   -72.7859625 Eh     change       -0.1455650E-06 Eh
 * total energy  :   -72.7859626 Eh     change       -0.9561282E-07 Eh
   *** GEOMETRY OPTIMIZATION CONVERGED AFTER 13 ITERATIONS ***

 final structure:
================
47
 xtb: 6.7.1 (edcfbbe)
C           -5.06397213165434       -2.66054774745523       -0.11695035332520
C           -4.86547294832106       -1.33134551697082       -0.48879284008861
C           -3.61875883349616       -0.76177787212066       -0.45044920580162
C           -2.49218875341670       -1.51845913725659       -0.02081069025165
C           -1.17802525106323       -1.04370165551860        0.06439633476818
N           -0.12063407980368       -1.88725047781043        0.14192237360504
C            0.96668735210120       -1.15762705051717        0.05327620033723
C            2.31857271615720       -1.61249454785233        0.01345258249650
C            2.60661953775361       -2.97723971236753        0.01058397485103
C            3.91433387413656       -3.41526175456232       -0.07248368963868
C            4.93325501939752       -2.48054320261480       -0.16350295424523
C            4.65596742560870       -1.12357029099949       -0.15430802771962
C            3.34642933909690       -0.64350629912279       -0.05425212920243
C            3.02364883811522        0.77556134828112        0.00280706124321
C            4.01902481237896        1.74487720477539        0.05241157520398
C            3.73706698200871        3.09659157396104        0.14969799798259
C            2.40995440856579        3.52680128234076        0.22743981071474
C            1.39339958268120        2.61561235516214        0.17528763386271
C            1.65035204217284        1.22330281642109        0.04039484733666
C            0.65173972774355        0.25347331371611       -0.01753069563585
N           -0.72410423476024        0.30553339173832       -0.01008008751658
C           -1.54859909799756        1.43492493098598        0.00103938123843
C           -2.43884719911483        1.63483724751036        1.05756862437495
C           -3.26654881304395        2.74027208356771        1.05867885280682
C           -3.21952688550127        3.65235531342434        0.01540739242469
C           -2.33771506485824        3.45360058707745       -1.03694473095921
C           -1.50492367884641        2.35221294749843       -1.05072973467097
C           -2.71202824118494       -2.89018137230998        0.30882269058275
C           -3.96569891472452       -3.43417063802381        0.26795692607792
H           -6.05277550800852       -3.09149998157086       -0.14400706181183
H           -5.70690805965068       -0.74157440009166       -0.82387408096790
H           -3.49047673104150        0.25090426119612       -0.79441730711959
H            1.78074602941604       -3.66881113159562        0.06743126623346
H            4.13929415415558       -4.47095923230664       -0.07360149496542
H            5.95982374614317       -2.80850373402128       -0.24144130238702
H            5.48553289212012       -0.43914307391369       -0.23093579937498
H            5.05630625907610        1.45104254254770        0.02777075384102
H            4.54258235097963        3.81403166243379        0.18321245507570
H            2.18940812527852        4.57849781496427        0.33527146603289
H            0.37384778873025        2.95217009543890        0.26229907784975
H           -2.47132905493256        0.91796212776881        1.86440348816520
H           -3.95050625505612        2.89338581280496        1.88000047592009
H           -3.86934345812264        4.51405131102847        0.01999999998881
H           -2.30462868423035        4.15741879690943       -1.85533286003830
H           -0.82125454443879        2.18579989660331       -1.87057475149136
H           -1.85556500637935       -3.47211896387312        0.60805700274226
H           -4.11249016876978       -4.47030285218054        0.53671205255530

 projected vibrational frequencies (cm⁻¹)
eigval :       -0.00    -0.00    -0.00     0.00     0.00     0.00
eigval :       19.04    34.19    37.38    51.40    66.86    67.50
eigval :       81.20   100.45   127.88   156.34   179.48   212.06
eigval :      217.66   237.92   249.78   255.89   287.72   307.27
eigval :      354.82   369.90   380.16   388.56   392.78   403.62
eigval :      417.35   433.38   452.64   475.50   486.91   510.81
eigval :      518.41   570.26   578.06   580.29   590.36   619.67
eigval :      626.65   635.09   645.09   654.56   658.89   666.50
eigval :      692.29   717.16   722.10   725.35   743.30   756.33
eigval :      767.93   789.30   822.81   839.35   855.92   857.37
eigval :      871.17   886.04   891.84   903.95   907.43   910.73
eigval :      913.08   917.52   918.61   924.54   925.61   928.09
eigval :      941.55   978.27   983.36  1034.05  1060.27  1074.52
eigval :     1076.49  1084.61  1098.72  1116.45  1117.08  1128.86
eigval :     1147.19  1160.75  1170.96  1176.65  1178.51  1179.35
eigval :     1182.89  1185.54  1202.07  1238.84  1244.40  1266.63
eigval :     1269.02  1274.17  1282.27  1317.17  1322.32  1328.44
eigval :     1340.16  1347.34  1367.30  1385.01  1388.75  1402.08
eigval :     1414.07  1431.49  1433.67  1440.02  1471.44  1490.21
eigval :     1492.79  1501.77  1540.61  1547.71  1554.70  1557.12
eigval :     1562.17  1568.22  1588.13  3071.99  3075.64  3075.84
eigval :     3078.66  3079.41  3081.63  3088.48  3089.11  3090.95
eigval :     3093.16  3095.53  3099.26  3100.36  3107.86  3109.42
eigval :     3115.03  3122.30  3127.13

   temp. (K)  partition function   enthalpy   heat capacity  entropy
                                   cal/mol     cal/K/mol   cal/K/mol   J/K/mol
 298.15  VIB  0.370E+09            12340.661     82.574     74.677
         ROT  0.151E+08              888.752      2.981     35.834
         INT  0.559E+16            13229.413     85.555    110.510
         TR   0.690E+28             1481.254      4.968     43.602
         TOT                       14710.6669    90.5231   154.1119   644.8042

       T/K    H(0)-H(T)+PV         H(T)/Eh          T*S/Eh         G(T)/Eh
   ------------------------------------------------------------------------
    298.15    0.234429E-01    0.380286E+00    0.732235E-01    0.307062E+00
   ------------------------------------------------------------------------

         :::::::::::::::::::::::::::::::::::::::::::::::::::::
         ::                  THERMODYNAMIC                  ::
         :::::::::::::::::::::::::::::::::::::::::::::::::::::
         :: total free energy         -72.478900236840 Eh   ::
         ::.................................................::
         :: total energy              -72.785962641446 Eh   ::
         :: zero point energy           0.356843007312 Eh   ::
         :: G(RRHO) w/o ZPVE           -0.049780602706 Eh   ::
         :: G(RRHO) contrib.            0.307062404606 Eh   ::
         :::::::::::::::::::::::::::::::::::::::::::::::::::::

           -------------------------------------------------
          | TOTAL ENERGY              -72.785962641446 Eh   |
          | TOTAL ENTHALPY            -72.405676694243 Eh   |
          | TOTAL FREE ENERGY         -72.478900236840 Eh   |
          | GRADIENT NORM               0.000102007143 Eh/α |
           -------------------------------------------------

 * finished run on 2025/09/07 at 05:30:22.393
