   * xtb version 6.7.1 (edcfbbe) compiled by 'albert@albert-system' on 2024-07-22

   ID    Z sym.   atoms
    1    6 C      1-5, 7-20, 22-29
    2    7 N      6, 21
    3    1 H      30-47

          program call               : xtb data2507/gas/PPI/PPI_gas_S0_crest.xyz --gfn 2 --ohess vtight --parallel 40 --molden --ceasefiles --namespace data2507/gas/PPI/PPI_gas_S0_finalOpt
          :  Hamiltonian                  GFN2-xTB          :
 * total energy  :   -72.8772698 Eh     change       -0.9342500E-09 Eh
 * total energy  :   -72.8772703 Eh     change       -0.4642383E-06 Eh
 * total energy  :   -72.8772706 Eh     change       -0.3253069E-06 Eh
 * total energy  :   -72.8772711 Eh     change       -0.4662554E-06 Eh
 * total energy  :   -72.8772713 Eh     change       -0.2206738E-06 Eh
 * total energy  :   -72.8772713 Eh     change       -0.1703751E-07 Eh
   *** GEOMETRY OPTIMIZATION CONVERGED AFTER 6 ITERATIONS ***

 final structure:
================
47
 xtb: 6.7.1 (edcfbbe)
C           -5.11555122135742       -2.48722127335387        0.00035379415431
C           -4.80765178772481       -1.32722625504444        0.69074980307876
C           -3.51071697513766       -0.84829343433807        0.71350219204284
C           -2.50262722327936       -1.52762557625635        0.03239944093607
C           -1.11627138918990       -1.08757822728604        0.01925545552060
N           -0.10643672517462       -1.92142496656997        0.01737880317673
C            1.01462312814662       -1.15512780324771        0.01579284814875
C            2.36868036001750       -1.59018647078995        0.05252863398229
C            2.69115871757952       -2.95018244113661        0.10639742185853
C            4.00252664729434       -3.34912681771743        0.17307525792509
C            5.01020527897551       -2.38676407751014        0.19114010251011
C            4.70444335064425       -1.04718732111120        0.13316907570421
C            3.37669503057345       -0.59936724324896        0.05455407115666
C            3.02199249468295        0.80605630102819       -0.04340777140895
C            4.00122329821798        1.80652247641400       -0.12135833835889
C            3.67815281577778        3.13550617229975       -0.25942614005279
C            2.34517984589213        3.52425547775129       -0.34401976534270
C            1.35462180237200        2.57698231472432       -0.26333086586590
C            1.66174558506635        1.21935594065516       -0.09293748260213
C            0.67557632205644        0.19685823070271       -0.00115501568514
N           -0.70116881548336        0.22690973108286        0.01249378548968
C           -1.55533706657032        1.34703680367675        0.01800161572138
C           -1.56812487437516        2.20846966099861        1.11138769796960
C           -2.43199667851968        3.28767827695785        1.12175646635569
C           -3.28583954270867        3.50728960196637        0.05251506251506
C           -3.27422008289013        2.64653973417398       -1.03226981145721
C           -2.41123796703387        1.56575541196929       -1.05478395584993
C           -2.81621352235992       -2.70923448008158       -0.64058142006789
C           -4.11317412857634       -3.18204336617843       -0.65773822243513
H           -6.13139019973046       -2.85355525404904       -0.01646505476039
H           -5.58161380597623       -0.79213489872641        1.22152299404080
H           -3.28467952402828        0.04141250474052        1.28136920160991
H            1.87963553151158       -3.66113579247394        0.10044521444201
H            4.25661622884850       -4.39796990760143        0.21638115685590
H            6.04400366665174       -2.69555268851989        0.25128635282852
H            5.51812194060221       -0.33957145348624        0.15283683087261
H            5.04479725866466        1.53904804223756       -0.08246463666986
H            4.46104816954844        3.87747336381965       -0.31623027949509
H            2.08931849000914        4.56507202391592       -0.47720338820570
H            0.32375805381083        2.88200727287680       -0.34881288723452
H           -0.89932613310394        2.02540321059111        1.93990941328639
H           -2.44137786682272        3.95611745603787        1.96958864866733
H           -3.96067509655487        4.34967648333911        0.06625395975882
H           -3.93808983011359        2.81697817592025       -1.86624181987920
H           -2.39550591741880        0.88672705613727       -1.89426486901588
H           -2.02338578215763       -3.24048140303414       -1.14353667663589
H           -4.34578265735617       -4.09501707025536       -1.18592080158548

          :  Hamiltonian                  GFN2-xTB          :
         :: gradient norm              0.000099602791 Eh/a0 ::
         :: HOMO-LUMO gap              2.789770850442 eV    ::
         :: SCC energy               -74.252777254824 Eh    ::
         :: -> dispersion             -0.064505358484 Eh    ::
         :: repulsion energy           1.375505964003 Eh    ::

    * Orbital Energies and Occupations

         #    Occupation            Energy/Eh            Energy/eV
      -------------------------------------------------------------
         1        2.0000           -0.6845202             -18.6267
       ...           ...                  ...                  ...
        56        2.0000           -0.4267233             -11.6117
        57        2.0000           -0.4239601             -11.5365
        58        2.0000           -0.4231263             -11.5139
        59        2.0000           -0.4195453             -11.4164
        60        2.0000           -0.4155700             -11.3082
        61        2.0000           -0.4123271             -11.2200
        62        2.0000           -0.4077215             -11.0947
        63        2.0000           -0.4048807             -11.0174
        64        2.0000           -0.4032685             -10.9735
        65        2.0000           -0.3940388             -10.7223
        66        2.0000           -0.3780489             -10.2872
        67        2.0000           -0.3735001             -10.1635
        68        2.0000           -0.3607856              -9.8175 (HOMO)
        69                         -0.2582634              -7.0277 (LUMO)
        70                         -0.2472646              -6.7284
        71                         -0.2420622              -6.5868
        72                         -0.2392377              -6.5100
        73                         -0.2373932              -6.4598
        74                         -0.2251282              -6.1261
        75                         -0.2057778              -5.5995
        76                         -0.1854869              -5.0474
        77                         -0.1702029              -4.6315
        78                         -0.1357442              -3.6938
        79                         -0.1122703              -3.0550
       ...                                ...                  ...
       134                          0.7312219              19.8976
      -------------------------------------------------------------
                  HL-Gap            0.1025222 Eh            2.7898 eV

     #   Z          covCN         q      C6AA      α(0)
     1   6 C        2.920    -0.029    28.722     8.789
     2   6 C        2.919    -0.029    28.727     8.789
     3   6 C        2.922    -0.034    28.853     8.809
     4   6 C        2.974     0.003    27.950     8.672
     5   6 C        3.191     0.127    24.769     8.117
     6   7 N        1.896    -0.291    28.388     7.899
     7   6 C        3.207     0.057    26.138     8.325
     8   6 C        2.986     0.003    27.955     8.673
     9   6 C        2.922    -0.031    28.778     8.797
    10   6 C        2.917    -0.030    28.757     8.794
    11   6 C        2.917    -0.033    28.822     8.804
    12   6 C        2.922    -0.035    28.869     8.811
    13   6 C        2.979    -0.002    28.060     8.689
    14   6 C        2.980     0.002    27.979     8.677
    15   6 C        2.922    -0.034    28.842     8.807
    16   6 C        2.916    -0.033    28.834     8.805
    17   6 C        2.917    -0.032    28.797     8.800
    18   6 C        2.919    -0.040    29.003     8.831
    19   6 C        2.978    -0.002    28.067     8.690
    20   6 C        3.074     0.020    27.495     8.597
    21   7 N        2.841    -0.046    22.124     6.986
    22   6 C        2.913     0.069    26.445     8.433
    23   6 C        2.921    -0.037    28.909     8.817
    24   6 C        2.920    -0.027    28.677     8.782
    25   6 C        2.920    -0.030    28.748     8.792
    26   6 C        2.920    -0.026    28.643     8.776
    27   6 C        2.922    -0.037    28.931     8.821
    28   6 C        2.929    -0.027    28.684     8.783
    29   6 C        2.918    -0.027    28.682     8.782
    30   1 H        0.926     0.033     2.540     2.492
    31   1 H        0.926     0.031     2.570     2.507
    32   1 H        0.926     0.026     2.638     2.540
    33   1 H        0.926     0.050     2.317     2.380
    34   1 H        0.926     0.030     2.591     2.517
    35   1 H        0.926     0.027     2.623     2.533
    36   1 H        0.926     0.030     2.585     2.514
    37   1 H        0.926     0.034     2.530     2.488
    38   1 H        0.926     0.028     2.614     2.528
    39   1 H        0.926     0.026     2.640     2.541
    40   1 H        0.926     0.025     2.658     2.550
    41   1 H        0.926     0.043     2.413     2.429
    42   1 H        0.926     0.040     2.446     2.446
    43   1 H        0.926     0.039     2.459     2.452
    44   1 H        0.926     0.040     2.446     2.446
    45   1 H        0.926     0.040     2.450     2.447
    46   1 H        0.926     0.052     2.292     2.367
    47   1 H        0.926     0.036     2.502     2.474

molecular dipole:
                 x           y           z       tot (Debye)
 q only:       -0.775       0.647      -0.054
   full:       -0.811       1.108      -0.044       3.493

 projected vibrational frequencies (cm⁻¹)
eigval :       -0.00    -0.00    -0.00     0.00     0.00     0.00
eigval :       23.29    29.53    39.33    55.94    61.63    68.44
eigval :       83.21    93.90   129.58   164.85   188.27   209.24
eigval :      235.33   238.04   254.55   268.50   286.18   336.69
eigval :      364.06   373.15   376.81   398.03   403.61   435.68
eigval :      442.11   466.47   474.89   496.85   517.20   523.49
eigval :      535.22   584.71   586.11   590.30   630.49   639.10
eigval :      649.87   653.45   663.97   675.99   678.51   684.37
eigval :      701.50   731.98   735.57   760.58   765.23   767.13
eigval :      782.59   793.48   862.51   874.81   875.67   876.35
eigval :      900.33   903.27   907.48   914.24   923.88   927.31
eigval :      928.52   928.87   931.74   932.51   939.24   945.77
eigval :      976.12  1010.48  1025.18  1068.82  1079.20  1083.30
eigval :     1085.95  1108.55  1115.19  1121.08  1133.84  1152.64
eigval :     1173.83  1180.45  1181.23  1183.04  1186.25  1189.21
eigval :     1199.74  1210.58  1253.65  1258.03  1275.19  1279.78
eigval :     1284.36  1303.37  1313.43  1322.59  1331.39  1338.98
eigval :     1348.16  1375.29  1407.60  1419.04  1427.16  1432.68
eigval :     1434.73  1438.15  1457.98  1480.88  1514.04  1514.50
eigval :     1544.53  1561.81  1567.50  1582.14  1582.95  1594.31
eigval :     1594.80  1597.96  1604.99  3071.65  3074.52  3075.05
eigval :     3079.84  3082.02  3083.25  3084.61  3085.63  3090.07
eigval :     3090.36  3095.45  3096.60  3097.92  3101.98  3104.95
eigval :     3106.43  3110.46  3113.78

   temp. (K)  partition function   enthalpy   heat capacity  entropy
                                   cal/mol     cal/K/mol   cal/K/mol   J/K/mol
 298.15  VIB  0.223E+09            11981.744     80.262     72.621
         ROT  0.149E+08              888.752      2.981     35.801
         INT  0.331E+16            12870.496     83.242    108.421
         TR   0.690E+28             1481.254      4.968     43.602
         TOT                       14351.7502    88.2106   152.0230   636.0643

       T/K    H(0)-H(T)+PV         H(T)/Eh          T*S/Eh         G(T)/Eh
   ------------------------------------------------------------------------
    298.15    0.228710E-01    0.384582E+00    0.722310E-01    0.312351E+00
   ------------------------------------------------------------------------

         :::::::::::::::::::::::::::::::::::::::::::::::::::::
         ::                  THERMODYNAMIC                  ::
         :::::::::::::::::::::::::::::::::::::::::::::::::::::
         :: total free energy         -72.564920404953 Eh   ::
         ::.................................................::
         :: total energy              -72.877271290821 Eh   ::
         :: zero point energy           0.361710955963 Eh   ::
         :: G(RRHO) w/o ZPVE           -0.049360070095 Eh   ::
         :: G(RRHO) contrib.            0.312350885869 Eh   ::
         :::::::::::::::::::::::::::::::::::::::::::::::::::::

           -------------------------------------------------
          | TOTAL ENERGY              -72.877271290821 Eh   |
          | TOTAL ENTHALPY            -72.492689365172 Eh   |
          | TOTAL FREE ENERGY         -72.564920404953 Eh   |
          | GRADIENT NORM               0.000099601533 Eh/α |
          | HOMO-LUMO GAP               2.789770620830 eV   |
           -------------------------------------------------

 * finished run on 2025/09/07 at 05:29:16.208
