   * xtb version 6.7.1 (edcfbbe) compiled by 'albert@albert-system' on 2024-07-22

   ID    Z sym.   atoms
    1    6 C      1-10, 12, 14-17, 19-22, 24-33, 35-39
    2    7 N      11, 13, 23, 34
    3   16 S      18
    4    1 H      40-59

          program call               : xtb data2507/gas/NDN/NDN_gas_T1_crest.xyz --gfn 2 --spinpol --tblite --uhf 2 --ohess vtight --parallel 40 --molden --ceasefiles --namespace data2507/gas/NDN/NDN_gas_T1_finalOpt
 * total energy  :   -97.9471036 Eh     change       -0.1997333E-07 Eh
 * total energy  :   -97.9471090 Eh     change       -0.5380996E-05 Eh
 * total energy  :   -97.9471117 Eh     change       -0.2780452E-05 Eh
 * total energy  :   -97.9471128 Eh     change       -0.1085436E-05 Eh
 * total energy  :   -97.9471133 Eh     change       -0.5051151E-06 Eh
 * total energy  :   -97.9471138 Eh     change       -0.4642259E-06 Eh
 * total energy  :   -97.9471143 Eh     change       -0.4857391E-06 Eh
 * total energy  :   -97.9471146 Eh     change       -0.2960171E-06 Eh
 * total energy  :   -97.9471146 Eh     change       -0.3975110E-07 Eh
 * total energy  :   -97.9471148 Eh     change       -0.1588048E-06 Eh
 * total energy  :   -97.9471149 Eh     change       -0.1408292E-06 Eh
 * total energy  :   -97.9471148 Eh     change        0.7493989E-07 Eh
 * total energy  :   -97.9471150 Eh     change       -0.1959583E-06 Eh
 * total energy  :   -97.9471151 Eh     change       -0.5795266E-07 Eh
   *** GEOMETRY OPTIMIZATION CONVERGED AFTER 14 ITERATIONS ***

 final structure:
================
59
 xtb: 6.7.1 (edcfbbe)
C            7.55154199501657       -0.43408009301631        1.82964852058592
C            6.93180714255486        0.80765264593119        1.93074291834336
C            5.68127475730337        1.03836958432300        1.37418322578746
C            5.06824820436775       -0.00178811843854        0.69591075186265
C            5.67451055555443       -1.28379586614805        0.63047352848490
C            6.92842992532709       -1.49212942379174        1.19360264036538
C            4.74411432252495       -2.14394255998378       -0.03232976340861
C            4.72085790561066       -3.48591587214107       -0.40872351156888
C            3.57930223002409       -3.94182514021982       -1.05079371329189
C            2.52465774416032       -3.07019664677642       -1.29720446230735
N            2.52280419470279       -1.78424841044912       -0.94959605914083
C            3.60660035858220       -1.35352605096394       -0.33339198475928
N            3.82242765513293       -0.05368995812860        0.08569207596612
C            2.95805923886231        1.00797103620823       -0.15217086084872
C            3.47149787544971        2.27798478421566       -0.47982467321861
C            2.60414987566069        3.33316599890732       -0.73290027010122
C            1.24514473750929        3.11622417706870       -0.65869054440745
S           -0.00856004210437        4.29996876906866       -0.94881298497464
C           -1.26147402780628        3.10768818299544       -0.68754785289053
C           -2.62113873683726        3.32483011441854       -0.75822878521685
C           -3.48743674272673        2.26256465414249       -0.53297699134264
C           -2.97344215697790        0.98838872300529       -0.24091210138707
N           -3.84626732928481       -0.07421639356360       -0.03826402516757
C           -3.62787356881547       -1.39983354158602       -0.39081227404490
C           -2.62699758311808       -1.95731184632885       -1.16960090299706
C           -2.66466598199651       -3.32616440633908       -1.39676326005302
C           -3.68406159564935       -4.11904348684112       -0.87939584609171
C           -4.71362065057405       -3.56444548601238       -0.14087382070070
C           -4.69456183443999       -2.19564695697552        0.10141570435720
C           -5.59852120518194       -1.30560141957556        0.76234669255546
C           -6.80416406586625       -1.43821195761573        1.44806723956655
C           -7.37428386320783       -0.27977224263366        1.95437677964527
C           -6.74141018380343        0.94459964639020        1.77028480510540
N           -5.59223138841166        1.09743353125998        1.11602036104162
C           -5.05061432344441       -0.00369102799792        0.63430968317133
C           -1.60061258831743        0.77784095837635       -0.13178082939429
C           -0.71747309756876        1.83482154542588       -0.36461246118267
C            0.70283914879529        1.83835098280989       -0.34578169203154
C            1.58629030767114        0.78708421562332       -0.09282091759773
H            8.52694780355924       -0.57520433746153        2.27098862359055
H            7.42799284935629        1.60763024205133        2.45872733606627
H            5.19953246349517        1.99587003310950        1.49390818906053
H            7.39643863223103       -2.46314570247380        1.14031469075053
H            5.55651668706975       -4.13912955719229       -0.20873828914428
H            3.50186091204336       -4.97156741275413       -1.36389834039007
H            1.62761266670232       -3.40718238422780       -1.79702707032680
H            4.53297524563538        2.41605040612946       -0.59633030312613
H            2.99120872481775        4.30300637846189       -1.00402415105669
H           -3.00857141857027        4.30134744687012       -1.00244455428508
H           -4.55204103697555        2.40395739985830       -0.58719017534787
H           -1.84900244195786       -1.35415313994524       -1.61036229333455
H           -1.88967418893743       -3.78037214172336       -1.99493400540777
H           -3.67785198723708       -5.18139500740461       -1.07321910149566
H           -5.52005145083930       -4.17477585006733        0.23577254754102
H           -7.27055918095386       -2.40259166668551        1.58075269548285
H           -8.30968793313460       -0.31904436615063        2.49077481997870
H           -7.17042083611124        1.85805441278337        2.15668487224776
H           -1.21452970658892       -0.18048634776521        0.17459767134154
H            1.21136335451792       -0.19199935185565        0.15065981844233

 projected vibrational frequencies (cm⁻¹)
eigval :       -0.00    -0.00     0.00     0.00     0.00     0.00
eigval :       15.38    15.66    23.97    36.07    46.60    50.12
eigval :       83.63    96.96   107.60   109.20   119.53   133.34
eigval :      139.22   155.26   172.28   177.74   211.85   238.30
eigval :      266.26   268.93   269.61   272.60   282.38   299.52
eigval :      322.96   351.61   368.23   375.69   380.69   381.94
eigval :      402.12   419.69   421.46   429.13   430.99   438.25
eigval :      453.53   499.57   505.98   507.84   518.32   525.90
eigval :      527.05   528.76   534.31   551.75   563.14   578.17
eigval :      580.34   600.49   604.49   633.47   645.60   654.05
eigval :      657.71   659.11   677.33   678.32   705.82   707.14
eigval :      708.05   733.01   752.14   760.17   762.32   764.72
eigval :      770.30   772.38   773.46   785.80   798.90   813.14
eigval :      824.57   859.77   861.46   863.38   865.27   867.84
eigval :      871.42   893.89   894.25   897.55   901.33   902.12
eigval :      904.94   909.20   912.19   912.71   966.98   983.58
eigval :     1011.91  1013.33  1027.40  1031.96  1064.27  1070.11
eigval :     1079.71  1084.82  1105.17  1107.90  1132.48  1140.21
eigval :     1142.42  1148.88  1156.36  1163.06  1171.89  1172.99
eigval :     1191.89  1201.13  1207.05  1216.50  1219.92  1223.06
eigval :     1229.98  1254.05  1265.60  1272.16  1275.73  1286.82
eigval :     1305.70  1318.79  1325.67  1326.91  1331.86  1336.95
eigval :     1357.98  1360.86  1366.76  1371.60  1385.58  1394.98
eigval :     1401.89  1406.93  1427.04  1434.71  1438.41  1444.77
eigval :     1453.71  1464.58  1464.87  1480.67  1487.94  1501.10
eigval :     1503.91  1525.35  1540.44  1551.48  1562.43  1563.40
eigval :     1597.01  3069.58  3071.88  3080.04  3080.41  3080.79
eigval :     3081.44  3089.35  3089.96  3095.04  3095.30  3095.62
eigval :     3095.85  3096.64  3099.29  3102.44  3102.80  3109.90
eigval :     3120.18  3128.28  3140.89

   temp. (K)  partition function   enthalpy   heat capacity  entropy
                                   cal/mol     cal/K/mol   cal/K/mol   J/K/mol
 298.15  VIB  0.705E+12            16723.191    111.211    100.734
         ROT  0.493E+08              888.752      2.981     38.180
         INT  0.347E+20            17611.943    114.192    138.914
         TR   0.114E+29             1481.254      4.968     44.593
         TOT                       19093.1968   119.1598   183.5069   767.7927

       T/K    H(0)-H(T)+PV         H(T)/Eh          T*S/Eh         G(T)/Eh
   ------------------------------------------------------------------------
    298.15    0.304269E-01    0.460382E+00    0.871900E-01    0.373192E+00
   ------------------------------------------------------------------------

         :::::::::::::::::::::::::::::::::::::::::::::::::::::
         ::                  THERMODYNAMIC                  ::
         :::::::::::::::::::::::::::::::::::::::::::::::::::::
         :: total free energy         -97.573923003063 Eh   ::
         ::.................................................::
         :: total energy              -97.947115091716 Eh   ::
         :: zero point energy           0.429955176103 Eh   ::
         :: G(RRHO) w/o ZPVE           -0.056763087450 Eh   ::
         :: G(RRHO) contrib.            0.373192088653 Eh   ::
         :::::::::::::::::::::::::::::::::::::::::::::::::::::

           -------------------------------------------------
          | TOTAL ENERGY              -97.947115091716 Eh   |
          | TOTAL ENTHALPY            -97.486732969709 Eh   |
          | TOTAL FREE ENERGY         -97.573923003063 Eh   |
          | GRADIENT NORM               0.000076278808 Eh/α |
           -------------------------------------------------

 * finished run on 2025/07/16 at 19:07:36.368
