   * xtb version 6.7.1 (edcfbbe) compiled by 'albert@albert-system' on 2024-07-22

   ID    Z sym.   atoms
    1    6 C      1-10, 12, 14-17, 19-22, 24-33, 35-39
    2    7 N      11, 13, 23, 34
    3   16 S      18
    4    1 H      40-59

          program call               : xtb data2507/gas/NDN/NDN_gas_S0_crest.xyz --gfn 2 --ohess vtight --parallel 40 --molden --ceasefiles --namespace data2507/gas/NDN/NDN_gas_S0_finalOpt
          :  Hamiltonian                  GFN2-xTB          :
 * total energy  :   -98.0474366 Eh     change       -0.7028120E-09 Eh
 * total energy  :   -98.0474375 Eh     change       -0.9789175E-06 Eh
 * total energy  :   -98.0474386 Eh     change       -0.1103885E-05 Eh
 * total energy  :   -98.0474397 Eh     change       -0.1071447E-05 Eh
 * total energy  :   -98.0474405 Eh     change       -0.7472130E-06 Eh
 * total energy  :   -98.0474413 Eh     change       -0.8245583E-06 Eh
 * total energy  :   -98.0474421 Eh     change       -0.8363865E-06 Eh
 * total energy  :   -98.0474427 Eh     change       -0.5520329E-06 Eh
 * total energy  :   -98.0474430 Eh     change       -0.3084836E-06 Eh
 * total energy  :   -98.0474432 Eh     change       -0.2226043E-06 Eh
 * total energy  :   -98.0474434 Eh     change       -0.2224566E-06 Eh
 * total energy  :   -98.0474437 Eh     change       -0.2450780E-06 Eh
 * total energy  :   -98.0474440 Eh     change       -0.3049753E-06 Eh
 * total energy  :   -98.0474443 Eh     change       -0.3180275E-06 Eh
 * total energy  :   -98.0474445 Eh     change       -0.2084784E-06 Eh
 * total energy  :   -98.0474446 Eh     change       -0.1110077E-06 Eh
 * total energy  :   -98.0474447 Eh     change       -0.7984156E-07 Eh
   *** GEOMETRY OPTIMIZATION CONVERGED AFTER 17 ITERATIONS ***

 final structure:
================
59
 xtb: 6.7.1 (edcfbbe)
C            7.46277399256849       -0.43520543705255        2.00762430392111
C            6.82638181351370        0.80101872994969        2.09027294400817
C            5.60833290209125        1.03121912534175        1.47892698827081
C            5.03253536608834       -0.00903334466393        0.76341656423379
C            5.65625395785811       -1.27830773626693        0.70724552068845
C            6.88131982679054       -1.48591367369060        1.32737031012734
C            4.77103060440404       -2.13303631437042       -0.02860441195148
C            4.77763475329617       -3.45846217245688       -0.43301263899772
C            3.67958797546425       -3.91071452859505       -1.14792507628758
C            2.63380748402000       -3.03708712673183       -1.42978949678197
N            2.59869374463624       -1.76712097987960       -1.05942302483391
C            3.64731556181571       -1.33867870093220       -0.37619971063484
N            3.82470897800347       -0.05754650216240        0.08811653318182
C            2.95011574782553        1.00968996929182       -0.16367151034162
C            3.45604070547779        2.26386614844997       -0.52303501399996
C            2.60429913659811        3.31653911902815       -0.78771456312240
C            1.23711824518176        3.10424637229480       -0.71421881450823
S           -0.01057755648415        4.28693219405615       -1.03692963429385
C           -1.25424860046329        3.09128127833522       -0.74343012132179
C           -2.62272225948877        3.29618888316724       -0.82160143700137
C           -3.46893173597686        2.23391677183323       -0.58279217150541
C           -2.95680844222528        0.97466174779666       -0.25191054398244
N           -3.83878505775697       -0.09011326151228       -0.01741993230699
C           -3.66719860145839       -1.40788782942106       -0.40990450916284
C           -2.69003921667489       -1.97558852883162       -1.21568131680426
C           -2.77094543729206       -3.33086718789871       -1.47457053041755
C           -3.80115369942538       -4.11346045151634       -0.95862913833763
C           -4.79561760459692       -3.55146076011551       -0.18414820697920
C           -4.73565055415837       -2.19094633890628        0.08825450194310
C           -5.59421820472678       -1.29577555859090        0.80726271484461
C           -6.77724731124461       -1.41180879098470        1.51940321043749
C           -7.29835434818466       -0.25578110364317        2.07909038682582
C           -6.62855330955949        0.95272672485799        1.91258595182333
N           -5.49856228276508        1.09577978336099        1.23910072070559
C           -5.00559218364610       -0.00823558163917        0.70293556605372
C           -1.58873826349598        0.77997994561270       -0.13913709610022
C           -0.72502716275380        1.83627716447317       -0.40050897254550
C            0.71417619365608        1.84328770382595       -0.38031729395210
C            1.58213823710636        0.79750925909306       -0.09575570463154
H            8.41591059768481       -0.57282425139270        2.49568585470942
H            7.29274112431751        1.59789045338904        2.65035086927980
H            5.11594073850323        1.98635002106460        1.57588457531904
H            7.35989309226492       -2.45247193728021        1.28120727427635
H            5.60539402038403       -4.11233607175602       -0.20006453636330
H            3.62776612473484       -4.93338038528772       -1.48711577058340
H            1.76808700445217       -3.37333156144824       -1.98458964750959
H            4.52181631002852        2.40038703456456       -0.61963744264648
H            2.99285654578125        4.28410771742698       -1.06441696689579
H           -3.01536901506676        4.26829409359752       -1.07486420322064
H           -4.53667576559454        2.36602158168518       -0.63700236102508
H           -1.89884680041480       -1.38187984617338       -1.64625100070301
H           -2.01872967899272       -3.79237728701975       -2.09690050364854
H           -3.82566898258022       -5.16974731628383       -1.18107232031940
H           -5.60856399650117       -4.14962513189089        0.19896000474351
H           -7.27259837531611       -2.36507814653542        1.63373382773481
H           -8.21770173922346       -0.28391122675027        2.64268380597868
H           -7.02036801758786        1.86457900711781        2.34293528086720
H           -1.19193538498731       -0.17612074424107        0.16305681258048
H            1.20196468099562       -0.17808033679312        0.15665689306354

          :  Hamiltonian                  GFN2-xTB          :
         :: gradient norm              0.000034268525 Eh/a0 ::
         :: HOMO-LUMO gap              2.756303277447 eV    ::
         :: SCC energy               -99.798403819212 Eh    ::
         :: -> dispersion             -0.085167493946 Eh    ::
         :: repulsion energy           1.750959117865 Eh    ::

    * Orbital Energies and Occupations

         #    Occupation            Energy/Eh            Energy/eV
      -------------------------------------------------------------
         1        2.0000           -0.7270784             -19.7848
       ...           ...                  ...                  ...
        79        2.0000           -0.4258489             -11.5879
        80        2.0000           -0.4232689             -11.5177
        81        2.0000           -0.4216971             -11.4750
        82        2.0000           -0.4182408             -11.3809
        83        2.0000           -0.4158542             -11.3160
        84        2.0000           -0.3957735             -10.7695
        85        2.0000           -0.3895465             -10.6001
        86        2.0000           -0.3875309             -10.5453
        87        2.0000           -0.3860193             -10.5041
        88        2.0000           -0.3728663             -10.1462
        89        2.0000           -0.3719360             -10.1209
        90        2.0000           -0.3690452             -10.0422
        91        2.0000           -0.3632825              -9.8854 (HOMO)
        92                         -0.2619902              -7.1291 (LUMO)
        93                         -0.2609157              -7.0999
        94                         -0.2585521              -7.0356
        95                         -0.2438422              -6.6353
        96                         -0.2379093              -6.4738
        97                         -0.2336553              -6.3581
        98                         -0.2314037              -6.2968
        99                         -0.2089837              -5.6867
       100                         -0.2075933              -5.6489
       101                         -0.1987815              -5.4091
       102                         -0.1980918              -5.3904
       ...                                ...                  ...
       181                          0.7424574              20.2033
      -------------------------------------------------------------
                  HL-Gap            0.1012923 Eh            2.7563 eV

     #   Z          covCN         q      C6AA      α(0)
     1   6 C        2.920    -0.039    28.965     8.826
     2   6 C        2.924    -0.031    28.783     8.798
     3   6 C        2.910    -0.049    29.204     8.861
     4   6 C        3.080     0.047    26.855     8.496
     5   6 C        3.066    -0.017    28.374     8.735
     6   6 C        2.912    -0.031    28.781     8.797
     7   6 C        3.066    -0.028    28.635     8.775
     8   6 C        2.919    -0.017    28.434     8.744
     9   6 C        2.918    -0.053    29.308     8.878
    10   6 C        2.931     0.058    26.704     8.475
    11   7 N        1.832    -0.259    27.572     7.781
    12   6 C        3.094     0.135    24.948     8.186
    13   7 N        2.800    -0.044    22.085     6.980
    14   6 C        2.912     0.064    26.574     8.453
    15   6 C        2.925    -0.045    29.127     8.851
    16   6 C        2.934    -0.039    28.960     8.826
    17   6 C        3.002     0.035    27.206     8.556
    18  16 S        2.211    -0.082   144.473    20.230
    19   6 C        3.002     0.035    27.199     8.555
    20   6 C        2.934    -0.036    28.901     8.817
    21   6 C        2.925    -0.040    28.983     8.829
    22   6 C        2.912     0.065    26.549     8.449
    23   7 N        2.800    -0.043    22.079     6.979
    24   6 C        3.080     0.047    26.861     8.497
    25   6 C        2.910    -0.048    29.200     8.861
    26   6 C        2.924    -0.031    28.774     8.797
    27   6 C        2.920    -0.039    28.971     8.826
    28   6 C        2.912    -0.032    28.789     8.798
    29   6 C        3.066    -0.017    28.375     8.735
    30   6 C        3.066    -0.028    28.641     8.776
    31   6 C        2.919    -0.017    28.440     8.745
    32   6 C        2.918    -0.053    29.311     8.878
    33   6 C        2.931     0.057    26.711     8.476
    34   7 N        1.832    -0.257    27.546     7.778
    35   6 C        3.092     0.135    24.953     8.188
    36   6 C        2.920    -0.048    29.183     8.859
    37   6 C        3.107    -0.001    27.908     8.655
    38   6 C        3.106     0.000    27.879     8.651
    39   6 C        2.921    -0.043    29.064     8.841
    40   1 H        0.926     0.032     2.555     2.500
    41   1 H        0.926     0.034     2.532     2.488
    42   1 H        0.926     0.034     2.526     2.485
    43   1 H        0.926     0.034     2.532     2.488
    44   1 H        0.926     0.034     2.533     2.489
    45   1 H        0.926     0.032     2.552     2.498
    46   1 H        0.925     0.035     2.514     2.480
    47   1 H        0.926     0.047     2.363     2.404
    48   1 H        0.926     0.046     2.368     2.406
    49   1 H        0.926     0.049     2.337     2.391
    50   1 H        0.926     0.063     2.165     2.301
    51   1 H        0.926     0.038     2.482     2.464
    52   1 H        0.926     0.034     2.536     2.490
    53   1 H        0.926     0.031     2.567     2.505
    54   1 H        0.926     0.033     2.541     2.493
    55   1 H        0.926     0.033     2.541     2.493
    56   1 H        0.926     0.032     2.557     2.501
    57   1 H        0.925     0.036     2.502     2.473
    58   1 H        0.926     0.050     2.316     2.380
    59   1 H        0.926     0.062     2.178     2.308

molecular dipole:
                 x           y           z       tot (Debye)
 q only:        0.333      -0.070       0.006
   full:        0.420      -0.800       0.172       2.339

 projected vibrational frequencies (cm⁻¹)
eigval :       -0.00    -0.00    -0.00     0.00     0.00     0.00
eigval :       14.79    15.71    23.90    35.61    47.31    50.32
eigval :       88.42    98.65   108.38   110.33   120.59   137.75
eigval :      140.92   160.16   173.31   176.74   219.70   247.64
eigval :      270.55   274.43   279.22   279.48   283.60   309.46
eigval :      334.76   361.68   384.77   392.63   397.14   399.45
eigval :      421.50   423.95   425.33   433.95   437.59   442.64
eigval :      457.56   506.92   515.74   518.10   525.15   532.73
eigval :      544.43   546.04   548.54   549.40   573.81   591.38
eigval :      593.77   613.04   616.89   645.72   664.12   668.24
eigval :      668.82   687.80   688.43   690.65   719.03   724.20
eigval :      724.85   741.26   762.40   770.44   775.16   775.55
eigval :      794.76   795.14   816.84   817.95   823.86   857.20
eigval :      865.85   875.50   887.80   902.43   903.03   903.40
eigval :      903.63   907.85   911.54   911.68   912.07   915.33
eigval :      916.35   925.92   928.16   931.37  1002.79  1012.63
eigval :     1020.51  1021.30  1052.15  1073.07  1073.52  1088.13
eigval :     1089.28  1092.96  1118.46  1122.66  1150.50  1151.72
eigval :     1162.33  1164.15  1172.31  1178.57  1180.67  1184.93
eigval :     1218.67  1219.07  1224.18  1225.82  1231.70  1245.84
eigval :     1272.24  1287.11  1288.85  1298.50  1301.21  1333.89
eigval :     1336.68  1339.52  1342.64  1343.57  1344.53  1357.25
eigval :     1358.00  1391.76  1398.27  1405.62  1417.07  1423.06
eigval :     1445.78  1459.57  1466.46  1468.52  1478.93  1483.74
eigval :     1484.16  1550.39  1552.53  1563.88  1565.02  1573.92
eigval :     1574.09  1584.54  1587.43  1593.50  1594.02  1613.42
eigval :     1614.02  3061.53  3062.64  3073.74  3074.78  3079.69
eigval :     3080.24  3085.66  3085.74  3093.95  3094.35  3096.10
eigval :     3098.00  3098.42  3100.15  3100.61  3101.57  3105.62
eigval :     3106.77  3123.49  3124.90

   temp. (K)  partition function   enthalpy   heat capacity  entropy
                                   cal/mol     cal/K/mol   cal/K/mol   J/K/mol
 298.15  VIB  0.439E+12            16321.854    108.473     98.445
         ROT  0.496E+08              888.752      2.981     38.194
         INT  0.218E+20            17210.607    111.454    136.639
         TR   0.114E+29             1481.254      4.968     44.593
         TOT                       18691.8605   116.4217   181.2315   758.2724

       T/K    H(0)-H(T)+PV         H(T)/Eh          T*S/Eh         G(T)/Eh
   ------------------------------------------------------------------------
    298.15    0.297874E-01    0.466489E+00    0.861089E-01    0.380380E+00
   ------------------------------------------------------------------------

         :::::::::::::::::::::::::::::::::::::::::::::::::::::
         ::                  THERMODYNAMIC                  ::
         :::::::::::::::::::::::::::::::::::::::::::::::::::::
         :: total free energy         -97.667064964828 Eh   ::
         ::.................................................::
         :: total energy              -98.047444701349 Eh   ::
         :: zero point energy           0.436701277514 Eh   ::
         :: G(RRHO) w/o ZPVE           -0.056321540993 Eh   ::
         :: G(RRHO) contrib.            0.380379736521 Eh   ::
         :::::::::::::::::::::::::::::::::::::::::::::::::::::

           -------------------------------------------------
          | TOTAL ENERGY              -98.047444701349 Eh   |
          | TOTAL ENTHALPY            -97.580956048098 Eh   |
          | TOTAL FREE ENERGY         -97.667064964828 Eh   |
          | GRADIENT NORM               0.000034249565 Eh/α |
          | HOMO-LUMO GAP               2.756303910432 eV   |
           -------------------------------------------------

 * finished run on 2025/07/16 at 19:02:38.317
