   * xtb version 6.7.1 (edcfbbe) compiled by 'albert@albert-system' on 2024-07-22

   ID    Z sym.   atoms
    1    6 C      1-10, 12, 14-17, 19-22, 24-33, 35-39
    2    7 N      11, 13, 23, 34
    3   16 S      18
    4    1 H      40-59

          program call               : xtb data2507/gas/NDN/NDN_gas_S0_finalOpt.xtbopt.xyz --gfn 2 --spinpol --tblite --uhf 2 --ohess vtight --parallel 40 --molden --ceasefiles --namespace data2507/gas/NDN/NDN_gas_T1_preOpt
 * total energy  :   -97.9449951 Eh     change       -0.3036261E-07 Eh
 * total energy  :   -97.9465364 Eh     change       -0.1541295E-02 Eh
 * total energy  :   -97.9469344 Eh     change       -0.3980101E-03 Eh
 * total energy  :   -97.9469781 Eh     change       -0.4366941E-04 Eh
 * total energy  :   -97.9470085 Eh     change       -0.3044101E-04 Eh
 * total energy  :   -97.9470213 Eh     change       -0.1278052E-04 Eh
 * total energy  :   -97.9470385 Eh     change       -0.1721674E-04 Eh
 * total energy  :   -97.9470491 Eh     change       -0.1060529E-04 Eh
 * total energy  :   -97.9470596 Eh     change       -0.1046918E-04 Eh
 * total energy  :   -97.9470672 Eh     change       -0.7664194E-05 Eh
 * total energy  :   -97.9471061 Eh     change       -0.1306000E-05 Eh
 * total energy  :   -97.9471070 Eh     change       -0.8683034E-06 Eh
 * total energy  :   -97.9471075 Eh     change       -0.5459312E-06 Eh
 * total energy  :   -97.9471080 Eh     change       -0.4291518E-06 Eh
 * total energy  :   -97.9471082 Eh     change       -0.2819770E-06 Eh
 * total energy  :   -97.9471086 Eh     change       -0.3326483E-06 Eh
 * total energy  :   -97.9471088 Eh     change       -0.2035192E-06 Eh
 * total energy  :   -97.9471090 Eh     change       -0.2130216E-06 Eh
 * total energy  :   -97.9471090 Eh     change       -0.1746558E-07 Eh
   *** GEOMETRY OPTIMIZATION CONVERGED AFTER 44 ITERATIONS ***

 final structure:
================
59
 xtb: 6.7.1 (edcfbbe)
C            7.52530430551775       -0.42205224224524        1.88843628581708
C            6.90205531702025        0.81907133332790        1.97403447884570
C            5.65972660548198        1.04481769447416        1.39740729262719
C            5.05886592723514        0.00017069142627        0.71520043580048
C            5.66841940555066       -1.28091959346304        0.66457016502663
C            6.91396388133553       -1.48423495855149        1.24779772694913
C            4.74928345187111       -2.14591489487113       -0.00757612034950
C            4.73391429343184       -3.48961923422996       -0.37812172638037
C            3.60233458741709       -3.95066165266420       -1.03404743903165
C            2.54942393028797       -3.08235302002437       -1.29911475136375
N            2.54007503129760       -1.79490713703145       -0.95720694155720
C            3.61442818534389       -1.35922140988794       -0.32817587993412
N            3.82192162179213       -0.05720189266062        0.08769270897945
C            2.95726874962072        1.00174011086921       -0.16092195665621
C            3.47185074850503        2.27171512320550       -0.48723294230147
C            2.60528849544826        3.32688383472345       -0.74257836163237
C            1.24612756482494        3.10997867536878       -0.67116232288167
S           -0.00614657397241        4.29652725346195       -0.95468604269974
C           -1.26044277831920        3.10586581350298       -0.69193482519659
C           -2.61972526379372        3.32808376937799       -0.75129281775706
C           -3.48782713814636        2.26771331468433       -0.52340737442458
C           -2.97547439219092        0.99041520028353       -0.24383990517295
N           -3.85094806264018       -0.07000162537133       -0.03899368407491
C           -3.64772907490222       -1.39157975637586       -0.41362497032947
C           -2.66254575238513       -1.94412345329508       -1.21552309650283
C           -2.71465360758925       -3.30874404350748       -1.46388901727094
C           -3.73263746793782       -4.10175916933555       -0.94380526532334
C           -4.74588575817380       -3.55143443544197       -0.17993018809201
C           -4.71226048089013       -2.18691745813438        0.08389939931366
C           -5.59790633092907       -1.30038274215337        0.77391474143375
C           -6.79145145811323       -1.43433209247560        1.48009446458226
C           -7.34281818395648       -0.27948035047809        2.01473600766153
C           -6.70411052072744        0.94284015409585        1.83721253767245
N           -5.56641366045649        1.09716301831823        1.16362548864170
C           -5.04248235312562       -0.00068422691251        0.65549380650742
C           -1.60269937654653        0.77369983782006       -0.14850584251137
C           -0.71777298888600        1.82996344239061       -0.37898777924816
C            0.70258971813459        1.83126765606126       -0.36291075164786
C            1.58546027851349        0.77950696797292       -0.10945858989225
H            8.49400615942408       -0.55935637675234        2.34547200516339
H            7.38874069529510        1.62248180459910        2.50563361099624
H            5.17447770588028        2.00199609096891        1.50496385021433
H            7.38444527315340       -2.45463219473700        1.20644411607969
H            5.56796398413281       -4.14023307908099       -0.16347202689230
H            3.53124896181122       -4.98199156304316       -1.34340958623736
H            1.66009542278830       -3.42358936072104       -1.80971069928123
H            4.53385761907611        2.40971797361008       -0.59913349428088
H            2.99293004148752        4.29717213677933       -1.01125496761751
H           -3.00561426190437        4.30716899338872       -0.98751996032003
H           -4.55244193415604        2.41307435867491       -0.56667286535258
H           -1.88604382980602       -1.33952371603517       -1.65702055823090
H           -1.95249807340964       -3.75946040910526       -2.08091102569181
H           -3.73822264788423       -5.16077188703965       -1.15513844759317
H           -5.55098549556552       -4.16168458420845        0.19969844732259
H           -7.26270221484602       -2.39710210171220        1.60725581382612
H           -8.26805655591507       -0.32001755435009        2.56839029008405
H           -7.11861962078520        1.85335524907792        2.24575824312003
H           -1.21797954132680       -0.18894152151190        0.14611380122158
H            1.21014459025269       -0.20001646707788        0.13186495039495

 projected vibrational frequencies (cm⁻¹)
eigval :       -0.00    -0.00     0.00     0.00     0.00     0.00
eigval :       15.39    15.76    23.80    35.75    46.67    49.92
eigval :       83.70    96.80   107.92   109.27   119.48   133.35
eigval :      139.28   155.11   172.12   177.06   211.36   238.07
eigval :      266.23   268.80   269.74   272.70   282.17   299.61
eigval :      322.77   351.59   367.95   376.08   380.62   381.92
eigval :      401.98   419.54   421.12   429.18   430.80   438.20
eigval :      453.59   499.57   505.91   507.74   518.12   525.91
eigval :      527.05   528.74   534.30   551.68   562.81   577.83
eigval :      580.33   600.25   604.50   633.51   645.75   654.05
eigval :      657.13   659.50   677.18   678.31   705.76   707.11
eigval :      707.95   733.66   752.00   760.23   762.63   764.83
eigval :      770.71   772.31   773.65   785.69   799.06   813.21
eigval :      824.38   859.70   861.38   863.70   865.22   867.70
eigval :      871.37   893.77   894.28   897.88   900.85   901.75
eigval :      904.97   909.03   912.01   912.76   967.25   983.85
eigval :     1011.84  1013.41  1026.88  1031.96  1064.09  1069.96
eigval :     1079.75  1084.62  1103.75  1108.17  1132.71  1140.21
eigval :     1142.30  1149.43  1156.44  1163.06  1171.71  1172.97
eigval :     1192.27  1200.96  1206.93  1216.66  1219.97  1222.61
eigval :     1230.06  1254.09  1265.60  1272.40  1276.95  1286.64
eigval :     1306.32  1317.74  1325.73  1326.90  1332.17  1337.35
eigval :     1358.38  1360.76  1366.76  1371.49  1385.50  1394.74
eigval :     1402.05  1407.15  1427.30  1434.59  1438.04  1444.87
eigval :     1453.96  1464.56  1465.00  1480.61  1488.08  1501.54
eigval :     1504.24  1524.71  1540.50  1551.50  1562.55  1563.82
eigval :     1597.05  3070.16  3072.36  3080.23  3080.50  3081.09
eigval :     3081.48  3089.43  3089.94  3094.94  3095.43  3095.68
eigval :     3095.78  3096.68  3099.26  3102.67  3102.83  3109.14
eigval :     3119.75  3127.89  3140.13

   temp. (K)  partition function   enthalpy   heat capacity  entropy
                                   cal/mol     cal/K/mol   cal/K/mol   J/K/mol
 298.15  VIB  0.715E+12            16726.278    111.208    100.752
         ROT  0.494E+08              888.752      2.981     38.186
         INT  0.353E+20            17615.030    114.189    138.938
         TR   0.114E+29             1481.254      4.968     44.593
         TOT                       19096.2839   119.1571   183.5303   767.8906

       T/K    H(0)-H(T)+PV         H(T)/Eh          T*S/Eh         G(T)/Eh
   ------------------------------------------------------------------------
    298.15    0.304319E-01    0.460381E+00    0.872011E-01    0.373180E+00
   ------------------------------------------------------------------------

         :::::::::::::::::::::::::::::::::::::::::::::::::::::
         ::                  THERMODYNAMIC                  ::
         :::::::::::::::::::::::::::::::::::::::::::::::::::::
         :: total free energy         -97.573929114985 Eh   ::
         ::.................................................::
         :: total energy              -97.947109059436 Eh   ::
         :: zero point energy           0.429949225363 Eh   ::
         :: G(RRHO) w/o ZPVE           -0.056769280912 Eh   ::
         :: G(RRHO) contrib.            0.373179944451 Eh   ::
         :::::::::::::::::::::::::::::::::::::::::::::::::::::

           -------------------------------------------------
          | TOTAL ENERGY              -97.947109059436 Eh   |
          | TOTAL ENTHALPY            -97.486727968682 Eh   |
          | TOTAL FREE ENERGY         -97.573929114985 Eh   |
          | GRADIENT NORM               0.000074029783 Eh/α |
           -------------------------------------------------

 * finished run on 2025/07/16 at 19:02:47.045
