   * xtb version 6.7.1 (edcfbbe) compiled by 'albert@albert-system' on 2024-07-22

   ID    Z sym.   atoms
    1    6 C      1-10, 12, 14-17, 19-22, 24-33, 35-39
    2    7 N      11, 13, 23, 34
    3   16 S      18
    4    1 H      40-59

          program call               : xtb data2507/gas/NDN/NDN.xyz --gfn 2 --ohess vtight --parallel 40 --molden --ceasefiles --namespace data2507/gas/NDN/NDN_gas_S0_preOpt
          :  Hamiltonian                  GFN2-xTB          :
 * total energy  :   -98.0242799 Eh     change       -0.1428731E-08 Eh
 * total energy  :   -98.0405632 Eh     change       -0.1628331E-01 Eh
 * total energy  :   -98.0446860 Eh     change       -0.4122799E-02 Eh
 * total energy  :   -98.0454722 Eh     change       -0.7861993E-03 Eh
 * total energy  :   -98.0459690 Eh     change       -0.4968698E-03 Eh
 * total energy  :   -98.0461378 Eh     change       -0.1687770E-03 Eh
 * total energy  :   -98.0462561 Eh     change       -0.1183284E-03 Eh
 * total energy  :   -98.0463237 Eh     change       -0.6752838E-04 Eh
 * total energy  :   -98.0463743 Eh     change       -0.5062605E-04 Eh
 * total energy  :   -98.0464306 Eh     change       -0.5627190E-04 Eh
 * total energy  :   -98.0468181 Eh     change       -0.3027467E-05 Eh
 * total energy  :   -98.0468200 Eh     change       -0.1907010E-05 Eh
 * total energy  :   -98.0468212 Eh     change       -0.1198078E-05 Eh
 * total energy  :   -98.0468222 Eh     change       -0.1021246E-05 Eh
 * total energy  :   -98.0468233 Eh     change       -0.1110103E-05 Eh
 * total energy  :   -98.0468237 Eh     change       -0.3926100E-06 Eh
 * total energy  :   -98.0468248 Eh     change       -0.1065680E-05 Eh
 * total energy  :   -98.0468252 Eh     change       -0.4088077E-06 Eh
 * total energy  :   -98.0468253 Eh     change       -0.8703321E-07 Eh
   *** GEOMETRY OPTIMIZATION CONVERGED AFTER 47 ITERATIONS ***

 final structure:
================
59
 xtb: 6.7.1 (edcfbbe)
C            3.83577566101918       -3.34592560016965        2.28465679234783
C            2.77589333330234       -2.47773441686747        2.53555061540821
C            2.69838148637195       -1.23574049008507        1.93396771300495
C            3.70969010676020       -0.87387698266898        1.05532851634142
C            4.80648626049235       -1.73768230923484        0.82299662295236
C            4.86258036779966       -2.98183273135156        1.43740269210850
C            5.69264656955972       -1.03892431580398       -0.06114212585571
C            6.90967075409563       -1.30996232271580       -0.66592423857714
C            7.44920747604340       -0.32478855146557       -1.47790875020507
C            6.76396248399790        0.87360818205593       -1.65513055680543
N            5.60198363067484        1.16200214854535       -1.09181582851392
C            5.09081549401751        0.22128619824443       -0.31533484465829
N            3.89096127011245        0.30326364293152        0.34883395521891
C            2.99365499203693        1.37808270430885        0.26197568833547
C            3.48751454905986        2.68653834797398        0.29615296922533
C            2.63150343373134        3.76293527453986        0.19965228754252
C            1.27118155695298        3.52588159136016        0.08230801478070
S            0.02162206725984        4.74285727757163       -0.05131779574178
C           -1.20650170320752        3.50307526640870       -0.16275372944753
C           -2.56655247830521        3.71484018896554       -0.31993849670946
C           -3.40526048961871        2.62207271282253       -0.39119245207490
C           -2.89587719305913        1.32316132292122       -0.28279388673103
N           -3.76316024481755        0.22284146960361       -0.34993161845858
C           -5.02535678316576        0.12118257618901        0.21139537175575
C           -5.68170822949456        0.97794089189634        1.08381745035104
C           -6.94308231151833        0.61833688893938        1.51984147833465
C           -7.54521191451375       -0.56996462571717        1.11329629016819
C           -6.88572980873421       -1.44551202338121        0.27471029567499
C           -5.61637874397170       -1.10562142571011       -0.17432634249178
C           -4.65436233436088       -1.77811355075015       -0.99750061838477
C           -4.60026606711803       -2.98361331641205       -1.67883713023435
C           -3.43629067976693       -3.26834229033649       -2.37538019344838
C           -2.38748155394152       -2.35363966413957       -2.36751256785464
N           -2.40946325935701       -1.19508824971361       -1.72836815633006
C           -3.52112737217667       -0.92620430454562       -1.06400825628990
C           -1.53266528960752        1.11259637928994       -0.14362161005829
C           -0.67474451163261        2.20385297771841       -0.09224971392029
C            0.75890919132197        2.21828446222080        0.04362693262386
C            1.63463380275578        1.14184439669045        0.12030415803545
H            3.85688045940882       -4.30926650304011        2.77175438624271
H            1.99782981506064       -2.77957355516367        3.22100589255366
H            1.88391301438600       -0.56521037093126        2.16049464687209
H            5.69736029296435       -3.64229796582932        1.25755851871824
H            7.41616545520666       -2.25156190949400       -0.51094009613399
H            8.39474610837945       -0.47801340989999       -1.97398983514909
H            7.17015279269880        1.65333509664390       -2.28536669954682
H            4.54995671360667        2.84222027073063        0.38253473956466
H            3.00960967634011        4.77285309270236        0.21895225393899
H           -2.95796618039972        4.71703591249119       -0.39806931624733
H           -4.46143241431010        2.76778336529544       -0.55548704537126
H           -5.21954132009937        1.88884627881187        1.43130644783214
H           -7.47202378819322        1.27311021758651        2.19638897948820
H           -8.53418771243884       -0.81164022332867        1.47264487865367
H           -7.33833572363793       -2.37913120255556       -0.02340465696382
H           -5.43182029201053       -3.67310745573581       -1.66640322934473
H           -3.33522987590302       -4.19226940674946       -2.92284491732399
H           -1.47124124387614       -2.55979528434575       -2.90439724717783
H           -1.14723275090837        0.10805776110553       -0.09327319793035
H            1.25654545472637        0.13470856157519        0.04270656590723

          :  Hamiltonian                  GFN2-xTB          :
         :: gradient norm              0.000184925537 Eh/a0 ::
         :: HOMO-LUMO gap              2.762617596168 eV    ::
         :: SCC energy               -99.797493974514 Eh    ::
         :: -> dispersion             -0.084601132430 Eh    ::
         :: repulsion energy           1.750668679896 Eh    ::

    * Orbital Energies and Occupations

         #    Occupation            Energy/Eh            Energy/eV
      -------------------------------------------------------------
         1        2.0000           -0.7271846             -19.7877
       ...           ...                  ...                  ...
        79        2.0000           -0.4258233             -11.5872
        80        2.0000           -0.4238105             -11.5325
        81        2.0000           -0.4214969             -11.4695
        82        2.0000           -0.4183095             -11.3828
        83        2.0000           -0.4161680             -11.3245
        84        2.0000           -0.3957879             -10.7699
        85        2.0000           -0.3894318             -10.5970
        86        2.0000           -0.3877874             -10.5522
        87        2.0000           -0.3862782             -10.5112
        88        2.0000           -0.3725561             -10.1378
        89        2.0000           -0.3712308             -10.1017
        90        2.0000           -0.3689935             -10.0408
        91        2.0000           -0.3635274              -9.8921 (HOMO)
        92                         -0.2620030              -7.1295 (LUMO)
        93                         -0.2606549              -7.0928
        94                         -0.2587600              -7.0412
        95                         -0.2437851              -6.6337
        96                         -0.2378192              -6.4714
        97                         -0.2335832              -6.3561
        98                         -0.2317584              -6.3065
        99                         -0.2087498              -5.6804
       100                         -0.2079609              -5.6589
       101                         -0.1985134              -5.4018
       102                         -0.1982547              -5.3948
       ...                                ...                  ...
       181                          0.7423192              20.1995
      -------------------------------------------------------------
                  HL-Gap            0.1015243 Eh            2.7626 eV

     #   Z          covCN         q      C6AA      α(0)
     1   6 C        2.920    -0.039    28.969     8.826
     2   6 C        2.924    -0.031    28.785     8.798
     3   6 C        2.910    -0.048    29.200     8.861
     4   6 C        3.081     0.047    26.852     8.495
     5   6 C        3.066    -0.017    28.370     8.734
     6   6 C        2.912    -0.031    28.784     8.797
     7   6 C        3.066    -0.028    28.639     8.775
     8   6 C        2.919    -0.017    28.438     8.745
     9   6 C        2.918    -0.053    29.308     8.878
    10   6 C        2.931     0.058    26.707     8.475
    11   7 N        1.832    -0.257    27.531     7.775
    12   6 C        3.093     0.135    24.947     8.186
    13   7 N        2.800    -0.043    22.075     6.978
    14   6 C        2.912     0.065    26.550     8.449
    15   6 C        2.926    -0.039    28.976     8.828
    16   6 C        2.935    -0.036    28.901     8.817
    17   6 C        3.002     0.035    27.195     8.554
    18  16 S        2.210    -0.082   144.466    20.230
    19   6 C        3.003     0.035    27.206     8.556
    20   6 C        2.935    -0.039    28.962     8.826
    21   6 C        2.925    -0.045    29.128     8.851
    22   6 C        2.912     0.064    26.573     8.453
    23   7 N        2.800    -0.044    22.086     6.980
    24   6 C        3.080     0.047    26.858     8.496
    25   6 C        2.910    -0.049    29.207     8.862
    26   6 C        2.924    -0.032    28.787     8.799
    27   6 C        2.920    -0.039    28.966     8.826
    28   6 C        2.912    -0.031    28.783     8.797
    29   6 C        3.066    -0.017    28.372     8.734
    30   6 C        3.066    -0.028    28.638     8.775
    31   6 C        2.919    -0.017    28.435     8.744
    32   6 C        2.918    -0.052    29.304     8.877
    33   6 C        2.931     0.058    26.705     8.475
    34   7 N        1.832    -0.258    27.556     7.779
    35   6 C        3.093     0.135    24.949     8.187
    36   6 C        2.921    -0.043    29.069     8.842
    37   6 C        3.105     0.000    27.883     8.652
    38   6 C        3.106    -0.001    27.910     8.656
    39   6 C        2.920    -0.047    29.174     8.857
    40   1 H        0.926     0.032     2.564     2.504
    41   1 H        0.926     0.033     2.545     2.495
    42   1 H        0.926     0.033     2.538     2.491
    43   1 H        0.926     0.034     2.535     2.490
    44   1 H        0.926     0.033     2.539     2.492
    45   1 H        0.926     0.032     2.554     2.499
    46   1 H        0.925     0.036     2.497     2.471
    47   1 H        0.926     0.062     2.171     2.304
    48   1 H        0.926     0.049     2.336     2.390
    49   1 H        0.926     0.046     2.368     2.406
    50   1 H        0.926     0.047     2.360     2.403
    51   1 H        0.926     0.034     2.528     2.486
    52   1 H        0.926     0.034     2.534     2.489
    53   1 H        0.926     0.032     2.556     2.500
    54   1 H        0.926     0.034     2.532     2.488
    55   1 H        0.926     0.034     2.534     2.489
    56   1 H        0.926     0.033     2.550     2.497
    57   1 H        0.925     0.036     2.502     2.473
    58   1 H        0.926     0.062     2.175     2.306
    59   1 H        0.926     0.051     2.312     2.378

molecular dipole:
                 x           y           z       tot (Debye)
 q only:       -0.339      -0.063       0.425
   full:       -0.417      -0.808       0.396       2.521

 projected vibrational frequencies (cm⁻¹)
eigval :       -0.00    -0.00    -0.00     0.00     0.00     0.00
eigval :       14.81    15.71    24.13    34.81    46.82    51.17
eigval :       86.41   102.71   106.57   111.64   120.49   137.85
eigval :      141.59   157.57   170.97   177.69   226.24   239.20
eigval :      272.46   274.52   279.06   279.84   284.05   315.51
eigval :      325.50   366.03   383.15   393.05   396.04   399.80
eigval :      420.28   423.69   424.87   435.90   437.95   441.96
eigval :      457.72   506.99   515.93   518.00   525.41   533.65
eigval :      539.60   547.36   548.30   550.66   580.98   590.50
eigval :      595.77   597.66   627.52   643.69   664.35   666.98
eigval :      670.29   687.66   688.84   690.46   719.06   724.19
eigval :      724.82   741.46   762.48   770.45   775.20   775.40
eigval :      795.12   795.20   816.42   818.82   823.54   857.37
eigval :      866.04   875.62   887.34   902.95   903.40   903.66
eigval :      903.68   907.01   911.65   911.67   912.10   915.33
eigval :      916.73   925.27   928.87   931.39  1002.47  1012.65
eigval :     1020.64  1021.14  1052.20  1072.79  1073.48  1087.86
eigval :     1089.19  1092.51  1118.09  1122.58  1150.43  1151.51
eigval :     1162.59  1164.13  1172.38  1178.54  1180.97  1184.85
eigval :     1218.57  1219.07  1223.53  1225.51  1231.10  1245.81
eigval :     1271.70  1286.97  1288.80  1298.84  1300.86  1333.45
eigval :     1336.22  1339.02  1342.52  1343.39  1344.28  1357.39
eigval :     1358.50  1391.43  1397.97  1405.44  1417.14  1423.14
eigval :     1445.36  1459.35  1466.40  1468.71  1478.16  1483.61
eigval :     1484.15  1550.34  1552.16  1564.05  1565.05  1574.01
eigval :     1574.18  1583.95  1586.52  1593.77  1593.88  1613.62
eigval :     1614.08  3062.61  3062.81  3073.75  3074.51  3079.35
eigval :     3080.11  3085.03  3085.71  3093.33  3094.02  3096.34
eigval :     3098.05  3098.50  3099.17  3100.11  3101.66  3103.87
eigval :     3107.14  3122.87  3124.63

   temp. (K)  partition function   enthalpy   heat capacity  entropy
                                   cal/mol     cal/K/mol   cal/K/mol   J/K/mol
 298.15  VIB  0.442E+12            16323.313    108.469     98.444
         ROT  0.498E+08              888.752      2.981     38.201
         INT  0.220E+20            17212.065    111.450    136.645
         TR   0.114E+29             1481.254      4.968     44.593
         TOT                       18693.3190   116.4185   181.2379   758.2993

       T/K    H(0)-H(T)+PV         H(T)/Eh          T*S/Eh         G(T)/Eh
   ------------------------------------------------------------------------
    298.15    0.297897E-01    0.466462E+00    0.861120E-01    0.380350E+00
   ------------------------------------------------------------------------

         :::::::::::::::::::::::::::::::::::::::::::::::::::::
         ::                  THERMODYNAMIC                  ::
         :::::::::::::::::::::::::::::::::::::::::::::::::::::
         :: total free energy         -97.666474839037 Eh   ::
         ::.................................................::
         :: total energy              -98.046825294615 Eh   ::
         :: zero point energy           0.436672726644 Eh   ::
         :: G(RRHO) w/o ZPVE           -0.056322271066 Eh   ::
         :: G(RRHO) contrib.            0.380350455578 Eh   ::
         :::::::::::::::::::::::::::::::::::::::::::::::::::::

           -------------------------------------------------
          | TOTAL ENERGY              -98.046825294615 Eh   |
          | TOTAL ENTHALPY            -97.580362867996 Eh   |
          | TOTAL FREE ENERGY         -97.666474839037 Eh   |
          | GRADIENT NORM               0.000184869621 Eh/α |
          | HOMO-LUMO GAP               2.762617819432 eV   |
           -------------------------------------------------

 * finished run on 2025/07/16 at 18:59:57.273
