   * xtb version 6.7.1 (edcfbbe) compiled by 'albert@albert-system' on 2024-07-22

   ID    Z sym.   atoms
    1    6 C      1-8, 10, 12-19, 21-32, 34-40, 42-55
    2    7 N      9, 20, 41
    3    8 O      11, 56
    4   16 S      33
    5    1 H      57-97

          program call               : xtb data2507/toluene/o-PCzTPD/o-PCzTPD_toluene_S0_crest.xyz --gfn 2 --gbsa toluene --ohess vtight --parallel 40 --molden --ceasefiles --namespace data2507/toluene/o-PCzTPD/o-PCzTPD_toluene_S0_finalOpt
      * Solvation model:               GBSA
        Solvent                        toluene
        Solvent mass                       9.2140E+01 g/mol
          :  Hamiltonian                  GFN2-xTB          :
 * total energy  :  -148.3293310 Eh     change       -0.1536819E-08 Eh
 * total energy  :  -148.3295565 Eh     change       -0.2254884E-03 Eh
 * total energy  :  -148.3297524 Eh     change       -0.1958990E-03 Eh
 * total energy  :  -148.3298642 Eh     change       -0.1117679E-03 Eh
 * total energy  :  -148.3300441 Eh     change       -0.1799689E-03 Eh
 * total energy  :  -148.3302458 Eh     change       -0.2016211E-03 Eh
 * total energy  :  -148.3304197 Eh     change       -0.1739254E-03 Eh
 * total energy  :  -148.3305887 Eh     change       -0.1690398E-03 Eh
 * total energy  :  -148.3307847 Eh     change       -0.1959996E-03 Eh
 * total energy  :  -148.3310380 Eh     change       -0.2532697E-03 Eh
 * total energy  :  -148.3318187 Eh     change       -0.6201375E-06 Eh
 * total energy  :  -148.3318192 Eh     change       -0.5413430E-06 Eh
 * total energy  :  -148.3318196 Eh     change       -0.4142128E-06 Eh
 * total energy  :  -148.3318199 Eh     change       -0.2973313E-06 Eh
 * total energy  :  -148.3318202 Eh     change       -0.3159720E-06 Eh
 * total energy  :  -148.3318206 Eh     change       -0.3923562E-06 Eh
 * total energy  :  -148.3318213 Eh     change       -0.6251516E-06 Eh
 * total energy  :  -148.3318223 Eh     change       -0.1032363E-05 Eh
 * total energy  :  -148.3318223 Eh     change       -0.9200505E-08 Eh
   *** GEOMETRY OPTIMIZATION CONVERGED AFTER 68 ITERATIONS ***

 final structure:
================
97
 xtb: 6.7.1 (edcfbbe)
C            2.46207150462421        2.71157515980710       -3.49873060595568
C            2.37681635153975        3.48460037221885       -2.18735566309544
C            1.10816874265089        4.33296365684297       -2.11559150428552
C            1.02199763555195        5.19438524431221       -0.85384216237767
C            0.83441125552136        4.40820163441522        0.44578338509141
C           -0.52659061083570        3.71793675506335        0.52984284093712
C           -0.83083974981742        3.13789970114835        1.91101907060520
C            0.09347863549272        1.98587477754532        2.31167104241513
N            0.00379747075028        0.87356320295973        1.39146030805769
C           -1.08967456098017        0.01631250085670        1.34196318979822
O           -2.02124631634273        0.04902721443652        2.11291214717573
C           -0.79416171889941       -0.91247038805922        0.24532950326241
C           -1.39404635146924       -1.97486155881150       -0.36748073469553
C           -2.73044181461499       -2.52531757225435       -0.21386574086145
C           -2.89195838816970       -3.90784817131507       -0.12167144053169
C           -4.13743354908184       -4.46649888875482        0.08483437383842
C           -5.25146865008849       -3.64721767139999        0.18339052902286
C           -5.11682741515682       -2.27796028879606        0.05051564660410
C           -3.86703976013411       -1.70073559796112       -0.15288424631759
N           -3.77503107923506       -0.31594791976577       -0.34181586283721
C           -3.15480200843706        0.31767689916047       -1.40066364532142
C           -2.58440021873952       -0.22522420378922       -2.54376218587670
C           -2.04937736494049        0.64371917567773       -3.47581186079609
C           -2.09494659274928        2.02402705143072       -3.29237461709717
C           -2.70289059931561        2.57147522882138       -2.17975033604431
C           -3.24431610755679        1.71768891348886       -1.22694749129253
C           -3.97177618456641        1.93069607151227       -0.00678773580370
C           -4.37317084154480        3.07147299288571        0.67740687833959
C           -5.07531352742637        2.92229774785303        1.85643510115129
C           -5.36696786790378        1.65603279131509        2.36006899276991
C           -4.97847224715090        0.50789147324140        1.69752667336721
C           -4.28810681514649        0.65192661704647        0.50344154727050
S           -0.27383675988917       -2.68188344094411       -1.50864014229849
C            0.99012899777691       -1.52625959901608       -1.14513955418903
C            2.28865325515991       -1.65814556632989       -1.78531281294953
C            2.34285647542917       -1.92865955630014       -3.15343341964737
C            3.55022810636158       -2.03357083244036       -3.81397484983612
C            4.73448732301977       -1.89562026772319       -3.10645608506479
C            4.70215318948258       -1.66889564734379       -1.74353451502419
C            3.49209462424906       -1.54697128572440       -1.06601124489636
N            3.50820116890148       -1.34915861585936        0.32075081605434
C            4.18551525918803       -0.33332789700129        0.97537865505595
C            5.01971637388387        0.64908527108655        0.46358479972797
C            5.55793242061088        1.56410692275129        1.34750709138017
C            5.27403082322144        1.51490006014259        2.71066663990702
C            4.42937177116973        0.55107934646671        3.22336815589674
C            3.87828808688889       -0.38131978248809        2.35335432838789
C            2.97611665327276       -1.48436358460958        2.53469734134997
C            2.34074353907754       -2.02893579867969        3.64369581356003
C            1.55101323590970       -3.14875761284645        3.47272725437512
C            1.41926896073373       -3.74605457744732        2.22084711825147
C            2.03851718675210       -3.22054915895115        1.10297379460120
C            2.78769772091382       -2.06191134056699        1.25813140514711
C            0.53034963883488       -0.64654368677797       -0.20738246488185
C            1.00486160825234        0.55860406157335        0.47967038826441
O            2.01338005410644        1.20692794618383        0.32101142447903
H            3.37120746313827        2.11513171613811       -3.53254548279245
H            1.61034107989184        2.04183988045372       -3.59898171020069
H            2.46485277449469        3.39362008881818       -4.34735673489975
H            2.39844907201739        2.77731966690789       -1.35704673577191
H            3.25027338543365        4.13494756060363       -2.09258486676488
H            1.08303391061467        4.99636131081316       -2.98525921151758
H            0.23524701920642        3.68029180443053       -2.17760131965492
H            0.18827127688724        5.89392241205214       -0.96255777882961
H            1.93826304021253        5.78519414012088       -0.77362309210735
H            1.63102355574099        3.66997654936040        0.53790044987040
H            0.92484233543613        5.10411002398120        1.28427891344562
H           -0.58607283666505        2.91943274291316       -0.21304460591947
H           -1.30705419084717        4.44367639875519        0.29043149233037
H           -0.73936561689426        3.91928228199988        2.66745381244022
H           -1.86012220728059        2.77102479472155        1.92565409535311
H           -0.18744389424898        1.62212684179293        3.30497392971651
H            1.13762036223511        2.30416210598433        2.32085604200739
H           -2.01733141504050       -4.53737415179783       -0.19249726941546
H           -4.23981630275101       -5.53726027520074        0.16748663875704
H           -6.22909746656690       -4.07551155848035        0.34325332617439
H           -5.98566943351791       -1.63775301372246        0.08048061617106
H           -2.57676917022986       -1.29102692881487       -2.71496557765261
H           -1.59602871919072        0.24403026845692       -4.37110409903070
H           -1.66478454203266        2.67169671598176       -4.04200731181898
H           -2.76560841193055        3.64174229409363       -2.05296265559848
H           -4.13471693640988        4.05186603690825        0.29271503837209
H           -5.39596674065967        3.79629328973634        2.40418984535572
H           -5.90497653897947        1.57021336893784        3.29281991502916
H           -5.18575151163839       -0.46724725446748        2.10985588551558
H            1.41500235528814       -2.03172670627790       -3.69647978015945
H            3.56816332894796       -2.22643160613233       -4.87525356185766
H            5.68411113515818       -1.98333366626167       -3.61177126545199
H            5.62016328808667       -1.60607994351380       -1.17887101458614
H            5.22506783590052        0.71614494795226       -0.59334085646052
H            6.20956832820477        2.33946073251134        0.97189285603150
H            5.71368831090847        2.24915565024114        3.36981670971205
H            4.19358220035461        0.52182760362790        4.27705575966723
H            2.47091040480940       -1.58638603265550        4.62008454860434
H            1.04340213138169       -3.58260478450833        4.32151591482009
H            0.82607593182562       -4.64339536655252        2.12443448006229
H            1.95468021589109       -3.70920102691577        0.14392591337790

          :  Hamiltonian                  GFN2-xTB          :
         :: gradient norm              0.000061491551 Eh/a0 ::
         :: HOMO-LUMO gap              1.697758081850 eV    ::
         :: SCC energy              -150.843760154799 Eh    ::
         :: -> dispersion             -0.155659452774 Eh    ::
         :: -> Gsolv                  -0.055403076062 Eh    ::
         :: repulsion energy           2.511937855211 Eh    ::

    * Orbital Energies and Occupations

         #    Occupation            Energy/Eh            Energy/eV
      -------------------------------------------------------------
         1        2.0000           -0.7553300             -20.5536
       ...           ...                  ...                  ...
       125        2.0000           -0.4203034             -11.4370
       126        2.0000           -0.4196828             -11.4201
       127        2.0000           -0.4174252             -11.3587
       128        2.0000           -0.4152562             -11.2997
       129        2.0000           -0.4150390             -11.2938
       130        2.0000           -0.4095363             -11.1440
       131        2.0000           -0.4083003             -11.1104
       132        2.0000           -0.4067321             -11.0677
       133        2.0000           -0.3991746             -10.8621
       134        2.0000           -0.3813447             -10.3769
       135        2.0000           -0.3813115             -10.3760
       136        2.0000           -0.3673590              -9.9963
       137        2.0000           -0.3671510              -9.9907 (HOMO)
       138                         -0.3047596              -8.2929 (LUMO)
       139                         -0.2965365              -8.0692
       140                         -0.2518019              -6.8519
       141                         -0.2504036              -6.8138
       142                         -0.2450197              -6.6673
       143                         -0.2420580              -6.5867
       144                         -0.2411716              -6.5626
       145                         -0.2378298              -6.4717
       146                         -0.2254771              -6.1355
       147                         -0.2249821              -6.1221
       148                         -0.2215342              -6.0283
       ...                                ...                  ...
       270                          0.7504321              20.4203
      -------------------------------------------------------------
                  HL-Gap            0.0623914 Eh            1.6978 eV

     #   Z          covCN         q      C6AA      α(0)
     1   6 C        3.752    -0.098    22.424     6.753
     2   6 C        3.800    -0.055    21.564     6.612
     3   6 C        3.802    -0.057    21.594     6.616
     4   6 C        3.801    -0.057    21.607     6.618
     5   6 C        3.801    -0.061    21.678     6.629
     6   6 C        3.801    -0.050    21.462     6.596
     7   6 C        3.802    -0.062    21.682     6.629
     8   6 C        3.740     0.015    20.404     6.445
     9   7 N        2.804    -0.126    23.724     7.234
    10   6 C        2.824     0.287    22.146     7.711
    11   8 O        0.857    -0.418    22.041     6.294
    12   6 C        3.245    -0.051    28.228     8.607
    13   6 C        2.980     0.033    27.247     8.562
    14   6 C        2.999    -0.002    28.065     8.690
    15   6 C        2.926    -0.029    28.733     8.791
    16   6 C        2.917    -0.029    28.726     8.789
    17   6 C        2.919    -0.023    28.585     8.767
    18   6 C        2.923    -0.040    28.985     8.829
    19   6 C        2.913     0.070    26.436     8.431
    20   7 N        2.802    -0.052    22.249     7.006
    21   6 C        3.074     0.045    26.918     8.507
    22   6 C        2.910    -0.057    29.406     8.892
    23   6 C        2.923    -0.037    28.911     8.818
    24   6 C        2.919    -0.043    29.076     8.843
    25   6 C        2.913    -0.035    28.882     8.812
    26   6 C        3.067    -0.020    28.449     8.746
    27   6 C        3.068    -0.020    28.438     8.744
    28   6 C        2.913    -0.036    28.899     8.815
    29   6 C        2.920    -0.042    29.051     8.839
    30   6 C        2.924    -0.033    28.819     8.804
    31   6 C        2.910    -0.043    29.079     8.842
    32   6 C        3.074     0.058    26.633     8.461
    33  16 S        2.401     0.027   139.968    19.912
    34   6 C        2.980     0.033    27.249     8.563
    35   6 C        3.001    -0.001    28.050     8.688
    36   6 C        2.926    -0.029    28.719     8.788
    37   6 C        2.917    -0.029    28.716     8.787
    38   6 C        2.918    -0.023    28.581     8.767
    39   6 C        2.923    -0.040    28.987     8.829
    40   6 C        2.912     0.070    26.436     8.431
    41   7 N        2.801    -0.051    22.223     7.001
    42   6 C        3.074     0.060    26.571     8.452
    43   6 C        2.910    -0.044    29.090     8.844
    44   6 C        2.924    -0.032    28.800     8.801
    45   6 C        2.920    -0.041    29.031     8.836
    46   6 C        2.913    -0.036    28.902     8.816
    47   6 C        3.068    -0.019    28.418     8.741
    48   6 C        3.067    -0.022    28.484     8.752
    49   6 C        2.913    -0.038    28.936     8.821
    50   6 C        2.919    -0.044    29.099     8.846
    51   6 C        2.923    -0.037    28.927     8.820
    52   6 C        2.910    -0.057    29.417     8.894
    53   6 C        3.074     0.045    26.917     8.506
    54   6 C        3.243    -0.050    28.228     8.611
    55   6 C        2.825     0.288    22.122     7.707
    56   8 O        0.857    -0.414    21.969     6.284
    57   1 H        0.925     0.030     2.583     2.513
    58   1 H        0.925     0.027     2.633     2.537
    59   1 H        0.925     0.034     2.537     2.491
    60   1 H        0.924     0.038     2.472     2.459
    61   1 H        0.924     0.027     2.634     2.538
    62   1 H        0.924     0.029     2.604     2.524
    63   1 H        0.924     0.027     2.636     2.539
    64   1 H        0.924     0.030     2.593     2.518
    65   1 H        0.924     0.031     2.567     2.505
    66   1 H        0.925     0.042     2.428     2.437
    67   1 H        0.924     0.031     2.571     2.507
    68   1 H        0.924     0.019     2.742     2.590
    69   1 H        0.924     0.037     2.492     2.469
    70   1 H        0.924     0.049     2.328     2.386
    71   1 H        0.924     0.042     2.418     2.432
    72   1 H        0.924     0.052     2.291     2.367
    73   1 H        0.924     0.066     2.133     2.284
    74   1 H        0.926     0.054     2.272     2.357
    75   1 H        0.926     0.055     2.256     2.349
    76   1 H        0.926     0.055     2.261     2.351
    77   1 H        0.926     0.053     2.289     2.366
    78   1 H        0.926     0.028     2.622     2.532
    79   1 H        0.926     0.034     2.535     2.490
    80   1 H        0.926     0.032     2.553     2.499
    81   1 H        0.926     0.034     2.536     2.490
    82   1 H        0.926     0.032     2.563     2.504
    83   1 H        0.926     0.031     2.567     2.506
    84   1 H        0.926     0.033     2.545     2.495
    85   1 H        0.926     0.033     2.549     2.497
    86   1 H        0.926     0.054     2.268     2.355
    87   1 H        0.926     0.055     2.255     2.348
    88   1 H        0.926     0.055     2.262     2.352
    89   1 H        0.926     0.053     2.282     2.362
    90   1 H        0.926     0.034     2.525     2.485
    91   1 H        0.926     0.035     2.523     2.484
    92   1 H        0.926     0.031     2.570     2.507
    93   1 H        0.926     0.030     2.589     2.516
    94   1 H        0.926     0.031     2.577     2.510
    95   1 H        0.926     0.030     2.582     2.513
    96   1 H        0.926     0.034     2.529     2.487
    97   1 H        0.926     0.029     2.606     2.524

molecular dipole:
                 x           y           z       tot (Debye)
 q only:       -0.049      -1.567      -1.544
   full:       -0.082      -1.444      -1.259       4.875

 projected vibrational frequencies (cm⁻¹)
eigval :       -0.00    -0.00    -0.00     0.00     0.00     0.00
eigval :      -15.11    13.27    20.87    21.66    26.59    32.89
eigval :       39.82    45.23    47.75    56.10    60.48    63.86
eigval :       68.16    70.73    79.06    82.92    86.87    98.52
eigval :      108.37   114.54   124.25   132.19   140.95   141.15
eigval :      149.38   153.02   159.73   168.87   172.40   183.41
eigval :      184.49   199.85   220.03   227.85   247.70   251.72
eigval :      252.50   258.94   262.17   276.85   277.23   279.51
eigval :      296.84   299.73   300.73   330.32   337.74   345.15
eigval :      353.37   358.57   381.22   399.64   401.09   402.78
eigval :      413.34   424.35   425.20   435.08   438.03   443.86
eigval :      451.29   453.76   471.63   493.16   497.92   502.20
eigval :      518.39   518.61   531.32   541.66   542.03   542.46
eigval :      543.65   561.74   564.86   582.48   583.12   592.47
eigval :      593.77   601.28   602.03   608.51   609.87   637.10
eigval :      673.49   674.36   684.69   695.80   697.23   705.98
eigval :      706.60   707.67   713.96   717.52   720.43   754.13
eigval :      755.90   756.34   763.34   769.18   770.24   776.57
eigval :      780.39   781.31   783.57   784.95   804.40   836.17
eigval :      855.45   867.74   869.04   874.52   875.17   883.36
eigval :      884.26   885.97   895.17   895.77   897.13   901.37
eigval :      901.97   902.44   903.77   907.78   916.21   916.38
eigval :      920.38   921.37   921.54   922.31   923.40   924.96
eigval :      929.54   930.53   933.73   938.60   972.56   988.63
eigval :     1010.84  1010.90  1020.09  1041.88  1057.18  1060.53
eigval :     1069.63  1070.52  1072.49  1074.15  1087.52  1092.70
eigval :     1094.41  1094.95  1100.41  1110.18  1113.61  1131.92
eigval :     1139.82  1142.17  1145.66  1151.38  1151.51  1154.49
eigval :     1171.75  1174.91  1175.28  1175.96  1176.51  1179.46
eigval :     1180.12  1192.65  1193.67  1218.66  1232.85  1234.23
eigval :     1235.48  1237.16  1243.05  1246.33  1247.12  1256.52
eigval :     1267.05  1272.77  1277.88  1286.30  1293.61  1296.96
eigval :     1297.91  1299.45  1300.72  1305.45  1306.44  1307.62
eigval :     1319.95  1321.13  1330.92  1348.29  1352.26  1353.54
eigval :     1354.34  1357.91  1358.38  1361.00  1361.02  1361.39
eigval :     1374.22  1377.03  1408.82  1416.86  1417.76  1426.90
eigval :     1427.25  1430.71  1432.43  1434.18  1464.77  1465.41
eigval :     1473.26  1473.81  1476.05  1485.23  1486.88  1487.08
eigval :     1490.59  1494.87  1499.44  1500.47  1505.39  1508.76
eigval :     1554.50  1556.51  1567.24  1573.49  1573.67  1579.65
eigval :     1582.55  1583.03  1588.35  1588.55  1597.55  1597.81
eigval :     1612.91  1613.15  1727.58  1750.54  2945.99  2949.63
eigval :     2951.59  2956.00  2962.74  2964.90  2969.66  2973.76
eigval :     2981.67  2986.84  2988.93  2993.60  3003.49  3012.94
eigval :     3020.20  3024.38  3032.48  3071.97  3073.38  3073.98
eigval :     3074.72  3077.30  3079.04  3079.25  3080.45  3084.22
eigval :     3085.68  3086.34  3086.99  3087.68  3088.49  3088.78
eigval :     3089.19  3094.56  3094.59  3096.77  3096.84  3097.74
eigval :     3098.44  3105.13  3105.49

   temp. (K)  partition function   enthalpy   heat capacity  entropy
                                   cal/mol     cal/K/mol   cal/K/mol   J/K/mol
 298.15  VIB  0.261E+22            28065.648    174.559    175.366
         ROT  0.708E+08              888.752      2.981     38.902
         INT  0.185E+30            28954.400    177.540    214.267
         TR   0.198E+29             1481.254      4.968     45.695
         TOT                       30435.6543   182.5079   259.9625  1087.6832

       T/K    H(0)-H(T)+PV         H(T)/Eh          T*S/Eh         G(T)/Eh
   ------------------------------------------------------------------------
    298.15    0.485023E-01    0.813303E+00    0.123517E+00    0.689786E+00
   ------------------------------------------------------------------------

         :::::::::::::::::::::::::::::::::::::::::::::::::::::
         ::                  THERMODYNAMIC                  ::
         :::::::::::::::::::::::::::::::::::::::::::::::::::::
         :: total free energy        -147.642036089202 Eh   ::
         ::.................................................::
         :: total energy             -148.331822296760 Eh   ::
         :: zero point energy           0.764800485296 Eh   ::
         :: G(RRHO) w/o ZPVE           -0.075014277738 Eh   ::
         :: G(RRHO) contrib.            0.689786207559 Eh   ::
         :::::::::::::::::::::::::::::::::::::::::::::::::::::

           -------------------------------------------------
          | TOTAL ENERGY             -148.331822296760 Eh   |
          | TOTAL ENTHALPY           -147.518519509092 Eh   |
          | TOTAL FREE ENERGY        -147.642036089202 Eh   |
          | GRADIENT NORM               0.000061454934 Eh/α |
          | HOMO-LUMO GAP               1.697757387878 eV   |
           -------------------------------------------------

 * finished run on 2025/08/30 at 06:17:49.713
