   * xtb version 6.7.1 (edcfbbe) compiled by 'albert@albert-system' on 2024-07-22

   ID    Z sym.   atoms
    1    6 C      1-8, 10, 12-19, 21-32, 34-40, 42-55
    2    7 N      9, 20, 41
    3    8 O      11, 56
    4   16 S      33
    5    1 H      57-97

          program call               : xtb data2507/toluene/o-PCzTPD/o-PCzTPD.xyz --gfn 2 --gbsa toluene --ohess vtight --parallel 40 --molden --ceasefiles --namespace data2507/toluene/o-PCzTPD/o-PCzTPD_toluene_S0_preOpt
      * Solvation model:               GBSA
        Solvent                        toluene
        Solvent mass                       9.2140E+01 g/mol
          :  Hamiltonian                  GFN2-xTB          :
 * total energy  :  -148.3007463 Eh     change       -0.1001916E-07 Eh
 * total energy  :  -148.3164593 Eh     change       -0.1571296E-01 Eh
 * total energy  :  -148.3200052 Eh     change       -0.3545932E-02 Eh
 * total energy  :  -148.3207388 Eh     change       -0.7335175E-03 Eh
 * total energy  :  -148.3213263 Eh     change       -0.5874948E-03 Eh
 * total energy  :  -148.3216471 Eh     change       -0.3208413E-03 Eh
 * total energy  :  -148.3219289 Eh     change       -0.2817678E-03 Eh
 * total energy  :  -148.3221711 Eh     change       -0.2422095E-03 Eh
 * total energy  :  -148.3223526 Eh     change       -0.1815134E-03 Eh
 * total energy  :  -148.3224940 Eh     change       -0.1414435E-03 Eh
 * total energy  :  -148.3282205 Eh     change       -0.2838750E-06 Eh
 * total energy  :  -148.3282208 Eh     change       -0.2696268E-06 Eh
 * total energy  :  -148.3282210 Eh     change       -0.1848784E-06 Eh
 * total energy  :  -148.3282212 Eh     change       -0.1637126E-06 Eh
 * total energy  :  -148.3282214 Eh     change       -0.2435946E-06 Eh
 * total energy  :  -148.3282217 Eh     change       -0.3070253E-06 Eh
 * total energy  :  -148.3282220 Eh     change       -0.2945980E-06 Eh
 * total energy  :  -148.3282223 Eh     change       -0.2951208E-06 Eh
 * total energy  :  -148.3282223 Eh     change       -0.3970484E-08 Eh
   *** GEOMETRY OPTIMIZATION CONVERGED AFTER 221 ITERATIONS ***

 final structure:
================
97
 xtb: 6.7.1 (edcfbbe)
C            9.28795681418785        0.58750265394885        1.55178785142456
C            8.33241009168736        0.22805174220281        0.41915586248272
C            7.74471060927053       -1.17036486194730        0.60199510946226
C            6.84919953142462       -1.62058947592347       -0.55441523594682
C            5.51893103831572       -0.87134786462418       -0.60470636924348
C            4.62645731632770       -1.28645890560839       -1.77739795302031
C            4.20012267608564       -2.75599925684743       -1.79001102359139
C            3.39310291245563       -3.18472554943341       -0.56218421743894
N            2.17496494289123       -2.41686581470456       -0.41220521537119
C            1.99288701517318       -1.46647066563816        0.58627961961411
O            2.81680947053338       -1.20710581518454        1.43626229763950
C            0.64817781708840       -0.92805275008407        0.36275885682805
C           -0.17197014614135        0.01911039159835        0.91414429194296
C            0.02544547227467        0.85307459496906        2.08520122513298
C            0.69814844369574        0.33878760659620        3.19485047125880
C            0.83868232966302        1.08823673539647        4.34641374005666
C            0.30980156569080        2.36818018102076        4.41210902497285
C           -0.33976474384091        2.90370747986400        3.31505726598080
C           -0.48427727155746        2.16135921068416        2.14911767374490
N           -1.10672443465451        2.74065071320062        1.03329380412323
C           -2.37014596470527        3.30043696894197        1.00974083833358
C           -3.32594768095877        3.35582393713420        2.01280050005862
C           -4.52682948033770        3.97442311746384        1.72199561343601
C           -4.78066240180509        4.51296298629561        0.46245225248888
C           -3.84211167050199        4.43562294621295       -0.54724322651332
C           -2.62461967025824        3.82363527730361       -0.27765968297871
C           -1.44482877658136        3.57626121271442       -1.06055369685550
C           -1.08731889750132        3.86054303406916       -2.37227171889775
C            0.17102682556050        3.49667626072375       -2.81016204863193
C            1.07596435083939        2.87160561023932       -1.95461584350707
C            0.74382767647771        2.57685433712730       -0.64562972852670
C           -0.52875441035863        2.91696925820637       -0.20977216780312
S           -1.67298336952931        0.06922587903120        0.02112457749186
C           -1.17231571918411       -1.18027253374328       -1.09264968434743
C           -2.03212809902256       -1.59518606586411       -2.18559251711002
C           -1.47562428858415       -1.87661229125325       -3.43420815207373
C           -2.27866814087173       -2.21305419381133       -4.50633752060915
C           -3.65499667117428       -2.27604485640453       -4.35142300813328
C           -4.22324671805929       -2.02215152128586       -3.11656785410804
C           -3.42586325619494       -1.68672479569320       -2.02886879761162
N           -4.01828308078901       -1.47834757564904       -0.77461574659872
C           -3.72889522794916       -2.18079526702668        0.37990360405583
C           -2.82746599801361       -3.21679877497300        0.57791694572285
C           -2.72805419259340       -3.74900299800413        1.84969083473139
C           -3.51255054457693       -3.27428544944321        2.89887970707666
C           -4.43231072028984       -2.26348723827982        2.69879810342257
C           -4.54947641636898       -1.71028611902836        1.43015747465538
C           -5.38615579393903       -0.68584125453777        0.86738583906690
C           -6.38347615100808        0.12930958326708        1.38746814979209
C           -7.00328303091224        1.03306724806797        0.54755709924475
C           -6.62943535791442        1.14373636880257       -0.78996809294716
C           -5.63724578200492        0.34756015875972       -1.32946609889994
C           -5.03098903845048       -0.58003383379204       -0.49587963279405
C            0.09633296190917       -1.58376484523477       -0.77581295354523
C            1.07780611685640       -2.56309735243909       -1.25407747898275
O            1.01734685498955       -3.36372652719418       -2.16125835038681
H            9.69551386722301        1.58587790006414        1.40731200025322
H            8.76941897793708        0.56320879060692        2.50829668149949
H           10.11498996792172       -0.11872192265089        1.59333653554861
H            7.52875904353248        0.96575028996200        0.38546769098764
H            8.86677030471244        0.27179750095291       -0.53324517195749
H            8.56980359954601       -1.88104800290297        0.70039766467874
H            7.17022909538855       -1.20135710616284        1.53132444957442
H            6.65594952476663       -2.68843789773679       -0.43604019445591
H            7.37993076178458       -1.48044638937930       -1.49955366609367
H            4.98488473071069       -1.01175487150074        0.33694224719175
H            5.71353319540291        0.19845850359649       -0.70545804759829
H            5.15459244836386       -1.08287919158759       -2.71232152063591
H            3.73046444286080       -0.65806986156006       -1.76736100580703
H            3.59061109955166       -2.93595338855799       -2.67882188503842
H            5.07718252734435       -3.39957968595901       -1.85509203948181
H            3.96730764932277       -3.04453697088790        0.35540730218725
H            3.11762439950919       -4.23919789520347       -0.66260881010104
H            1.10017706596878       -0.66046028880942        3.14573512005559
H            1.35831123437685        0.67036624054471        5.19470558960844
H            0.41577880588888        2.95463123661485        5.31193873932953
H           -0.73054210547442        3.90989437600375        3.34396877645890
H           -3.13955630105393        2.92861824832783        2.98647091531086
H           -5.28612607855731        4.03911455624042        2.48720447400573
H           -5.73098914975897        4.99067748313256        0.27543946267347
H           -4.04528148600296        4.84178405224256       -1.52668058706490
H           -1.78044084767353        4.35977019344228       -3.03234085693472
H            0.46727952688445        3.70654420621881       -3.82736007768159
H            2.06019460312632        2.61606254330291       -2.31977841968050
H            1.45571174302407        2.10317299401527        0.01494819271182
H           -0.40576935997636       -1.81756666006270       -3.55527329468751
H           -1.82919183132469       -2.42352044149545       -5.46436670862404
H           -4.28483799303289       -2.53702651196283       -5.18806369046026
H           -5.29129444482335       -2.09661677259353       -2.97649569583583
H           -2.22532526796523       -3.60021382494843       -0.23321696575845
H           -2.02950080109553       -4.55305993179831        2.03144877127876
H           -3.40275321893765       -3.71440345997885        3.87905184554477
H           -5.05106434542967       -1.90946931692725        3.50943106844125
H           -6.66478667648713        0.05407793410043        2.42706005590702
H           -7.78530407976559        1.67171153399082        0.93079156078644
H           -7.12324780982674        1.87006183138931       -1.41837356835051
H           -5.34171350501304        0.44686193801632       -2.36296955569085

          :  Hamiltonian                  GFN2-xTB          :
         :: gradient norm              0.000045276332 Eh/a0 ::
         :: HOMO-LUMO gap              1.606741200782 eV    ::
         :: SCC energy              -150.838154393073 Eh    ::
         :: -> dispersion             -0.143576717032 Eh    ::
         :: -> Gsolv                  -0.059576403315 Eh    ::
         :: repulsion energy           2.509932089899 Eh    ::

    * Orbital Energies and Occupations

         #    Occupation            Energy/Eh            Energy/eV
      -------------------------------------------------------------
         1        2.0000           -0.7531063             -20.4931
       ...           ...                  ...                  ...
       125        2.0000           -0.4200523             -11.4302
       126        2.0000           -0.4198187             -11.4238
       127        2.0000           -0.4193171             -11.4102
       128        2.0000           -0.4173075             -11.3555
       129        2.0000           -0.4149416             -11.2911
       130        2.0000           -0.4126746             -11.2294
       131        2.0000           -0.4084909             -11.1156
       132        2.0000           -0.4066792             -11.0663
       133        2.0000           -0.3987946             -10.8518
       134        2.0000           -0.3819964             -10.3947
       135        2.0000           -0.3814254             -10.3791
       136        2.0000           -0.3682473             -10.0205
       137        2.0000           -0.3674417              -9.9986 (HOMO)
       138                         -0.3083951              -8.3919 (LUMO)
       139                         -0.2985271              -8.1233
       140                         -0.2501284              -6.8063
       141                         -0.2498153              -6.7978
       142                         -0.2419075              -6.5826
       143                         -0.2418066              -6.5799
       144                         -0.2405891              -6.5468
       145                         -0.2343063              -6.3758
       146                         -0.2255468              -6.1374
       147                         -0.2246264              -6.1124
       148                         -0.2197526              -5.9798
       ...                                ...                  ...
       270                          0.7439642              20.2443
      -------------------------------------------------------------
                  HL-Gap            0.0590466 Eh            1.6067 eV

     #   Z          covCN         q      C6AA      α(0)
     1   6 C        3.752    -0.102    22.508     6.766
     2   6 C        3.800    -0.053    21.526     6.606
     3   6 C        3.802    -0.059    21.636     6.622
     4   6 C        3.801    -0.060    21.646     6.624
     5   6 C        3.801    -0.060    21.655     6.626
     6   6 C        3.800    -0.052    21.514     6.604
     7   6 C        3.801    -0.063    21.705     6.633
     8   6 C        3.740     0.011    20.468     6.455
     9   7 N        2.802    -0.116    23.525     7.204
    10   6 C        2.823     0.283    22.223     7.724
    11   8 O        0.857    -0.423    22.142     6.309
    12   6 C        3.238    -0.055    28.413     8.645
    13   6 C        2.980     0.037    27.158     8.548
    14   6 C        2.998    -0.001    28.031     8.685
    15   6 C        2.925    -0.024    28.599     8.770
    16   6 C        2.917    -0.027    28.683     8.782
    17   6 C        2.919    -0.023    28.571     8.765
    18   6 C        2.921    -0.039    28.967     8.826
    19   6 C        2.914     0.064    26.568     8.452
    20   7 N        2.805    -0.045    22.116     6.985
    21   6 C        3.074     0.046    26.881     8.501
    22   6 C        2.910    -0.050    29.252     8.869
    23   6 C        2.925    -0.032    28.804     8.801
    24   6 C        2.920    -0.040    28.997     8.831
    25   6 C        2.913    -0.033    28.827     8.804
    26   6 C        3.067    -0.017    28.361     8.732
    27   6 C        3.067    -0.016    28.350     8.731
    28   6 C        2.913    -0.034    28.844     8.807
    29   6 C        2.920    -0.042    29.043     8.838
    30   6 C        2.924    -0.035    28.874     8.812
    31   6 C        2.909    -0.052    29.287     8.874
    32   6 C        3.074     0.046    26.896     8.503
    33  16 S        2.393     0.021   140.206    19.929
    34   6 C        2.980     0.037    27.160     8.549
    35   6 C        2.998    -0.001    28.035     8.686
    36   6 C        2.925    -0.023    28.590     8.769
    37   6 C        2.917    -0.027    28.685     8.783
    38   6 C        2.919    -0.023    28.572     8.766
    39   6 C        2.921    -0.039    28.969     8.826
    40   6 C        2.914     0.064    26.570     8.453
    41   7 N        2.804    -0.045    22.115     6.984
    42   6 C        3.075     0.046    26.896     8.503
    43   6 C        2.909    -0.052    29.292     8.875
    44   6 C        2.924    -0.035    28.878     8.813
    45   6 C        2.920    -0.042    29.043     8.837
    46   6 C        2.913    -0.034    28.844     8.807
    47   6 C        3.067    -0.016    28.350     8.731
    48   6 C        3.067    -0.017    28.360     8.732
    49   6 C        2.913    -0.033    28.825     8.804
    50   6 C        2.920    -0.040    28.996     8.830
    51   6 C        2.925    -0.032    28.804     8.801
    52   6 C        2.910    -0.050    29.252     8.869
    53   6 C        3.074     0.047    26.880     8.501
    54   6 C        3.239    -0.055    28.411     8.644
    55   6 C        2.823     0.282    22.229     7.725
    56   8 O        0.857    -0.421    22.105     6.304
    57   1 H        0.925     0.033     2.544     2.494
    58   1 H        0.925     0.033     2.548     2.496
    59   1 H        0.925     0.033     2.542     2.493
    60   1 H        0.924     0.028     2.610     2.526
    61   1 H        0.924     0.029     2.598     2.521
    62   1 H        0.924     0.031     2.575     2.509
    63   1 H        0.924     0.030     2.587     2.515
    64   1 H        0.924     0.032     2.562     2.503
    65   1 H        0.924     0.032     2.561     2.503
    66   1 H        0.924     0.039     2.459     2.452
    67   1 H        0.924     0.030     2.581     2.512
    68   1 H        0.924     0.038     2.478     2.462
    69   1 H        0.924     0.017     2.774     2.604
    70   1 H        0.924     0.045     2.378     2.411
    71   1 H        0.925     0.053     2.278     2.360
    72   1 H        0.924     0.071     2.080     2.255
    73   1 H        0.924     0.054     2.269     2.356
    74   1 H        0.926     0.052     2.299     2.371
    75   1 H        0.926     0.053     2.279     2.361
    76   1 H        0.926     0.056     2.246     2.343
    77   1 H        0.926     0.055     2.258     2.350
    78   1 H        0.926     0.032     2.561     2.502
    79   1 H        0.926     0.035     2.515     2.480
    80   1 H        0.926     0.033     2.543     2.494
    81   1 H        0.926     0.035     2.518     2.481
    82   1 H        0.926     0.036     2.498     2.472
    83   1 H        0.926     0.032     2.561     2.502
    84   1 H        0.926     0.028     2.620     2.531
    85   1 H        0.926     0.018     2.767     2.601
    86   1 H        0.926     0.051     2.312     2.378
    87   1 H        0.926     0.053     2.278     2.360
    88   1 H        0.926     0.056     2.245     2.343
    89   1 H        0.926     0.055     2.257     2.349
    90   1 H        0.926     0.017     2.773     2.604
    91   1 H        0.926     0.027     2.630     2.536
    92   1 H        0.926     0.032     2.561     2.503
    93   1 H        0.926     0.037     2.495     2.470
    94   1 H        0.926     0.035     2.517     2.481
    95   1 H        0.926     0.033     2.541     2.493
    96   1 H        0.926     0.035     2.513     2.479
    97   1 H        0.926     0.032     2.557     2.501

molecular dipole:
                 x           y           z       tot (Debye)
 q only:       -1.219       0.995       0.079
   full:       -0.929       0.737       0.058       3.018

 projected vibrational frequencies (cm⁻¹)
eigval :       -0.00    -0.00    -0.00     0.00     0.00     0.00
eigval :        9.01    12.45    14.51    18.33    19.81    25.55
eigval :       27.79    33.02    36.25    37.54    48.41    57.66
eigval :       61.29    63.17    71.20    72.81    73.74    90.82
eigval :       98.36   104.64   111.36   116.84   122.06   139.79
eigval :      145.77   149.14   154.12   160.10   167.88   173.25
eigval :      187.20   199.65   211.63   227.73   240.10   242.35
eigval :      254.28   262.08   267.36   273.17   274.67   287.97
eigval :      291.81   296.34   302.18   325.74   326.82   327.18
eigval :      351.87   374.78   378.37   395.19   395.86   400.50
eigval :      416.81   424.91   425.41   430.49   432.03   438.08
eigval :      448.70   449.87   469.44   490.57   500.36   511.17
eigval :      518.04   518.17   533.25   535.86   541.02   542.22
eigval :      546.64   561.83   566.88   579.11   581.26   590.36
eigval :      591.04   602.23   605.56   607.91   611.06   636.83
eigval :      671.94   672.68   690.54   700.60   701.47   702.91
eigval :      705.87   707.01   710.80   716.05   721.08   749.25
eigval :      754.32   756.13   762.54   768.65   770.41   771.26
eigval :      776.69   780.00   781.82   782.91   798.45   819.20
eigval :      868.21   868.84   869.99   872.69   874.29   879.25
eigval :      881.81   882.85   895.89   896.11   901.26   901.75
eigval :      902.67   903.96   905.40   910.48   916.58   917.93
eigval :      918.40   921.20   922.16   923.10   925.17   926.55
eigval :      928.22   929.64   943.54   947.19   977.35   995.26
eigval :     1011.05  1011.33  1013.71  1042.85  1044.56  1063.48
eigval :     1068.73  1069.54  1072.09  1073.35  1083.19  1089.62
eigval :     1092.60  1093.01  1099.66  1106.74  1120.53  1123.34
eigval :     1139.24  1141.34  1145.73  1150.43  1150.95  1155.26
eigval :     1173.85  1174.28  1175.20  1175.60  1179.70  1180.08
eigval :     1191.89  1192.43  1193.32  1203.41  1232.68  1234.01
eigval :     1235.91  1237.09  1244.66  1245.12  1247.84  1261.11
eigval :     1262.58  1273.46  1278.88  1281.13  1296.02  1296.95
eigval :     1297.56  1300.76  1301.16  1306.40  1308.82  1312.05
eigval :     1319.38  1321.00  1327.20  1347.83  1349.81  1351.52
eigval :     1353.72  1357.70  1359.15  1360.51  1360.65  1361.76
eigval :     1375.26  1378.68  1413.46  1416.87  1417.24  1427.54
eigval :     1427.90  1433.20  1434.12  1434.60  1462.49  1463.75
eigval :     1473.89  1474.02  1479.77  1486.58  1486.65  1487.21
eigval :     1489.05  1491.99  1493.03  1502.69  1503.99  1505.40
eigval :     1552.81  1558.73  1559.08  1563.74  1573.83  1573.93
eigval :     1581.33  1581.62  1588.82  1588.92  1598.25  1598.27
eigval :     1612.40  1612.64  1712.61  1737.21  2945.08  2951.34
eigval :     2952.17  2959.15  2964.70  2967.88  2972.48  2976.20
eigval :     2979.06  2981.57  2986.47  2993.79  2998.89  3007.77
eigval :     3023.62  3025.62  3032.72  3069.29  3069.48  3075.17
eigval :     3075.59  3076.13  3076.86  3080.47  3080.87  3083.18
eigval :     3083.23  3086.82  3087.05  3087.69  3087.94  3092.60
eigval :     3092.88  3093.30  3094.09  3095.56  3096.31  3100.99
eigval :     3101.36  3112.92  3114.69

   temp. (K)  partition function   enthalpy   heat capacity  entropy
                                   cal/mol     cal/K/mol   cal/K/mol   J/K/mol
 298.15  VIB  0.199E+24            28442.445    172.910    179.799
         ROT  0.925E+08              888.752      2.981     39.432
         INT  0.184E+32            29331.197    175.891    219.231
         TR   0.198E+29             1481.254      4.968     45.695
         TOT                       30812.4509   180.8594   264.9262  1108.4513

       T/K    H(0)-H(T)+PV         H(T)/Eh          T*S/Eh         G(T)/Eh
   ------------------------------------------------------------------------
    298.15    0.491028E-01    0.813000E+00    0.125875E+00    0.687125E+00
   ------------------------------------------------------------------------

         :::::::::::::::::::::::::::::::::::::::::::::::::::::
         ::                  THERMODYNAMIC                  ::
         :::::::::::::::::::::::::::::::::::::::::::::::::::::
         :: total free energy        -147.641097713032 Eh   ::
         ::.................................................::
         :: total energy             -148.328222309677 Eh   ::
         :: zero point energy           0.763896823668 Eh   ::
         :: G(RRHO) w/o ZPVE           -0.076772227022 Eh   ::
         :: G(RRHO) contrib.            0.687124596646 Eh   ::
         :::::::::::::::::::::::::::::::::::::::::::::::::::::

           -------------------------------------------------
          | TOTAL ENERGY             -148.328222309677 Eh   |
          | TOTAL ENTHALPY           -147.515222720048 Eh   |
          | TOTAL FREE ENERGY        -147.641097713032 Eh   |
          | GRADIENT NORM               0.000045268124 Eh/α |
          | HOMO-LUMO GAP               1.606740953253 eV   |
           -------------------------------------------------

 * finished run on 2025/08/30 at 05:34:16.776
