   * xtb version 6.7.1 (edcfbbe) compiled by 'albert@albert-system' on 2024-07-22

   ID    Z sym.   atoms
    1    6 C      1-8, 10, 12-19, 21-32, 34-40, 42-55
    2    7 N      9, 20, 41
    3    8 O      11, 56
    4   16 S      33
    5    1 H      57-97

          program call               : xtb data2507/toluene/o-PCzTPD/o-PCzTPD_toluene_T1_crest.xyz --gfn 2 --uhf 2 --gbsa toluene --ohess vtight --parallel 40 --molden --ceasefiles --namespace data2507/toluene/o-PCzTPD/o-PCzTPD_toluene_T1_finalOpt
      * Solvation model:               GBSA
        Solvent                        toluene
        Solvent mass                       9.2140E+01 g/mol
          :  Hamiltonian                  GFN2-xTB          :
 * total energy  :  -148.2513250 Eh     change       -0.2300092E-07 Eh
 * total energy  :  -148.2518618 Eh     change       -0.5368762E-03 Eh
 * total energy  :  -148.2521388 Eh     change       -0.2770018E-03 Eh
 * total energy  :  -148.2522475 Eh     change       -0.1086520E-03 Eh
 * total energy  :  -148.2524027 Eh     change       -0.1552260E-03 Eh
 * total energy  :  -148.2525285 Eh     change       -0.1257702E-03 Eh
 * total energy  :  -148.2526292 Eh     change       -0.1007157E-03 Eh
 * total energy  :  -148.2527093 Eh     change       -0.8007181E-04 Eh
 * total energy  :  -148.2527542 Eh     change       -0.4492132E-04 Eh
 * total energy  :  -148.2527880 Eh     change       -0.3378817E-04 Eh
 * total energy  :  -148.2537985 Eh     change       -0.1530691E-06 Eh
 * total energy  :  -148.2537987 Eh     change       -0.1777367E-06 Eh
 * total energy  :  -148.2537989 Eh     change       -0.2238700E-06 Eh
 * total energy  :  -148.2537991 Eh     change       -0.2195056E-06 Eh
 * total energy  :  -148.2537993 Eh     change       -0.1815207E-06 Eh
 * total energy  :  -148.2537994 Eh     change       -0.1312346E-06 Eh
 * total energy  :  -148.2537996 Eh     change       -0.1298956E-06 Eh
 * total energy  :  -148.2537996 Eh     change        0.3520029E-09 Eh
 * total energy  :  -148.2537996 Eh     change       -0.1883052E-08 Eh
   *** GEOMETRY OPTIMIZATION CONVERGED AFTER 69 ITERATIONS ***

 final structure:
================
97
 xtb: 6.7.1 (edcfbbe)
C           -3.53608951483962        3.51454489495679       -3.72087659726688
C           -2.77959204545617        2.32571580327428       -3.13967749649359
C           -3.64639687575900        1.07612223822998       -2.97851883433706
C           -4.75047794371187        1.23767028515114       -1.93476724762010
C           -5.40256842601861       -0.09791506149491       -1.58226373814726
C           -6.43936769072401        0.03239924118969       -0.45780971715824
C           -6.56898624829371       -1.24205105225812        0.38721213000619
C           -5.62820507624720       -1.23905680842645        1.59974555734607
N           -4.25416950042372       -0.99136312292392        1.23387126166080
C           -3.43481838422577       -1.92804329157547        0.63455920273007
O           -3.74376164857633       -3.10184760829809        0.46466574613386
C           -2.20329749041140       -1.20743925565326        0.31393432457076
C           -0.96330239537891       -1.51810661611084       -0.24060599125580
C           -0.54106958644838       -2.68309907924851       -0.94944281498292
C           -1.49871944087570       -3.49702065368810       -1.58587301152814
C           -1.12456040258553       -4.50362424102421       -2.44292349045610
C            0.22288950054126       -4.74765234354212       -2.69835877320455
C            1.18539042558537       -4.00184921256185       -2.04812315193592
C            0.82547943848424       -2.99399330632119       -1.15917363441619
N            1.83543062965015       -2.36708187177065       -0.42031909153986
C            1.95628010153847       -2.43112610273863        0.95931737003499
C            1.04427493856194       -2.87465348953462        1.90560902502075
C            1.44330396006479       -2.88959043131847        3.23056381107353
C            2.72164298354575       -2.49015211364096        3.60616472863146
C            3.64069157082523       -2.06196457213639        2.66317109147710
C            3.25676884889199       -2.02262176192661        1.33270725271314
C            3.94461410075405       -1.67983290882054        0.11493703850777
C            5.22275731255404       -1.22615701673636       -0.16730701521827
C            5.56601943415440       -0.99541903581983       -1.48845692052399
C            4.64881592118972       -1.19876820343529       -2.51707747068866
C            3.37134461995084       -1.65819263902740       -2.26042227945884
C            3.03193452772570       -1.91753207284003       -0.93847406875957
S            0.07277184216376       -0.09902836687465       -0.13726005301577
C           -1.20873794068491        0.93815824680866        0.50600574351677
C           -1.07018725371133        2.33983421945601        0.52290994575971
C           -2.21350844200473        3.17019934052781        0.65061120247992
C           -2.15939841393082        4.51207257650798        0.38253482856201
C           -0.96073605066991        5.11273834916742       -0.01121181803031
C            0.19223797054461        4.35407864709592       -0.05141086672280
C            0.16966250358748        2.99914774334865        0.25444561225877
N            1.39312437849361        2.33158409488158        0.37146566204454
C            1.88136718156584        1.79832832824430        1.55161663109222
C            1.21988905959502        1.55679370030765        2.74799078283819
C            1.96494856579749        1.08435194549923        3.81207151042104
C            3.33510564479989        0.86647268800439        3.69682751467031
C            4.00025517752511        1.11312772124758        2.50757077102200
C            3.27228204422153        1.57402145209531        1.42394869392774
C            3.63154438666475        1.97750955692498        0.08795541360299
C            4.82315694116715        2.00341314832650       -0.61706734529527
C            4.80804786454486        2.46341779022219       -1.92442871011856
C            3.62565628975968        2.88292328969899       -2.52711117215996
C            2.42683217089654        2.88048399207398       -1.83643400519213
C            2.44273756081708        2.44247424164325       -0.51901087782675
C           -2.34591904597942        0.12721179176447        0.74821834523551
C           -3.64881613287076        0.26563825588832        1.35419400348391
O           -4.19866925703987        1.21495707530398        1.91077861240875
H           -2.85808401765844        4.35108697668941       -3.87593293010020
H           -3.98347269425413        3.25059127243736       -4.67703687657790
H           -4.32516649773682        3.83789436602135       -3.04709011021966
H           -1.94046003942246        2.08243683441643       -3.79675799536754
H           -2.36967163538068        2.59954451856656       -2.16419437469121
H           -4.09014130553946        0.81050294074361       -3.94099353154295
H           -3.00186537174487        0.24577961806355       -2.67441205414942
H           -5.51481088454161        1.92684893418704       -2.29712701521615
H           -4.31725134123752        1.66701063282933       -1.02721757596179
H           -5.87666018126886       -0.52244351527502       -2.47072456421178
H           -4.61753947644458       -0.79454191570522       -1.27999921423168
H           -7.40808542963694        0.28356080448155       -0.89316087445169
H           -6.15795570719274        0.85726340024330        0.20098621102977
H           -7.58611176980934       -1.33841035758588        0.77067118113193
H           -6.35665124095931       -2.11919667859226       -0.22767468358053
H           -5.67937903165916       -2.20507437645937        2.11181885317025
H           -5.90959817209117       -0.44018014693762        2.29175324454925
H           -2.54338018709567       -3.31010507475335       -1.40215879857940
H           -1.88333619831493       -5.10029382755752       -2.92585380365978
H            0.51495923970852       -5.53687649990957       -3.37340309245005
H            2.23346862415851       -4.22005632602126       -2.19024869359216
H            0.05504506946274       -3.20430917040119        1.62412834877464
H            0.74764968683309       -3.22752864617927        3.98436134043012
H            2.99946447731877       -2.52648142837057        4.64857792221175
H            4.64088094733302       -1.78350923683166        2.95361425641399
H            5.93287951597145       -1.06160873167186        0.62772662431716
H            6.56019302722186       -0.65196268402231       -1.73078904900217
H            4.94169870712327       -0.99415199817190       -3.53570666879179
H            2.65970521379460       -1.80927528545585       -3.05747906380186
H           -3.14436780534518        2.72204509421572        0.95404450209855
H           -3.05607093993164        5.10730324885783        0.46830164144534
H           -0.92516578617304        6.16793220068860       -0.23102214531398
H            1.14222912578514        4.81945827632613       -0.27061642544762
H            0.16058896884457        1.73971637384473        2.84940105724115
H            1.47323885003652        0.88939669000685        4.75333368444065
H            3.88501370853121        0.51443619329439        4.55600710796053
H            5.06535795037222        0.96470637153549        2.42683961748708
H            5.74182927090404        1.67954783021568       -0.15583492972922
H            5.72713428289329        2.49477246669168       -2.48950214272736
H            3.64355340788166        3.22123434578128       -3.55219806653410
H            1.50902942603123        3.20387729254717       -2.30332605832131

          :  Hamiltonian                  GFN2-xTB          :
         :: gradient norm              0.000048861201 Eh/a0 ::
         :: HOMO-LUMO gap              0.049656115764 eV    ::
         :: SCC energy              -150.740896268395 Eh    ::
         :: -> dispersion             -0.158387238830 Eh    ::
         :: -> Gsolv                  -0.061989694957 Eh    ::
         :: repulsion energy           2.487096695731 Eh    ::

    * Orbital Energies and Occupations

         #    Occupation            Energy/Eh            Energy/eV
      -------------------------------------------------------------
         1        2.0000           -0.7332885             -19.9538
       ...           ...                  ...                  ...
       126        2.0000           -0.4174800             -11.3602
       127        2.0000           -0.4146120             -11.2822
       128        2.0000           -0.4122659             -11.2183
       129        2.0000           -0.4085124             -11.1162
       130        2.0000           -0.4044036             -11.0044
       131        2.0000           -0.4014511             -10.9240
       132        2.0000           -0.3973953             -10.8137
       133        2.0000           -0.3916759             -10.6580
       134        2.0000           -0.3900758             -10.6145
       135        1.9999           -0.3813426             -10.3769
       136        1.9787           -0.3765730             -10.2471
       137        1.0214           -0.3693072             -10.0494
       138        0.7232           -0.2958939              -8.0517 (HOMO)
       139        0.2768           -0.2940693              -8.0020 (LUMO)
       140                         -0.2582348              -7.0269
       141                         -0.2552522              -6.9458
       142                         -0.2409160              -6.5557
       143                         -0.2365517              -6.4369
       144                         -0.2341207              -6.3707
       145                         -0.2339828              -6.3670
       146                         -0.2295814              -6.2472
       147                         -0.2155543              -5.8655
       148                         -0.2120157              -5.7692
       149                         -0.2063683              -5.6156
       ...                                ...                  ...
       270                          0.7349362              19.9986
      -------------------------------------------------------------
                  HL-Gap            0.0018247 Eh            0.0497 eV

     #   Z          covCN         q      C6AA      α(0)
     1   6 C        3.751    -0.102    22.516     6.767
     2   6 C        3.800    -0.050    21.468     6.597
     3   6 C        3.802    -0.054    21.536     6.607
     4   6 C        3.802    -0.054    21.550     6.609
     5   6 C        3.801    -0.052    21.502     6.602
     6   6 C        3.800    -0.058    21.610     6.619
     7   6 C        3.800    -0.060    21.658     6.626
     8   6 C        3.740     0.020    20.308     6.430
     9   7 N        2.809    -0.138    23.983     7.273
    10   6 C        2.833     0.266    22.517     7.776
    11   8 O        0.857    -0.480    23.353     6.479
    12   6 C        3.220    -0.050    28.488     8.678
    13   6 C        2.972     0.030    27.318     8.573
    14   6 C        2.995     0.004    27.925     8.668
    15   6 C        2.924    -0.031    28.782     8.798
    16   6 C        2.915    -0.027    28.669     8.780
    17   6 C        2.917    -0.028    28.694     8.784
    18   6 C        2.921    -0.040    28.998     8.831
    19   6 C        2.915     0.058    26.706     8.474
    20   7 N        2.804    -0.016    21.559     6.896
    21   6 C        3.073     0.049    26.822     8.492
    22   6 C        2.910    -0.040    28.986     8.828
    23   6 C        2.923    -0.031    28.766     8.795
    24   6 C        2.920    -0.033    28.813     8.802
    25   6 C        2.913    -0.028    28.704     8.785
    26   6 C        3.066    -0.011    28.216     8.710
    27   6 C        3.064    -0.009    28.172     8.704
    28   6 C        2.912    -0.027    28.688     8.783
    29   6 C        2.920    -0.031    28.769     8.796
    30   6 C        2.923    -0.030    28.747     8.793
    31   6 C        2.910    -0.041    29.029     8.835
    32   6 C        3.076     0.048    26.838     8.494
    33  16 S        2.338    -0.084   144.534    20.234
    34   6 C        2.970     0.019    27.586     8.615
    35   6 C        2.993     0.005    27.910     8.666
    36   6 C        2.922    -0.042    29.053     8.839
    37   6 C        2.914    -0.027    28.665     8.780
    38   6 C        2.916    -0.034    28.850     8.808
    39   6 C        2.920    -0.041    29.007     8.832
    40   6 C        2.914     0.051    26.860     8.499
    41   7 N        2.809    -0.008    21.419     6.874
    42   6 C        3.075     0.049    26.817     8.491
    43   6 C        2.910    -0.039    28.959     8.824
    44   6 C        2.923    -0.030    28.753     8.793
    45   6 C        2.920    -0.031    28.764     8.795
    46   6 C        2.912    -0.027    28.684     8.782
    47   6 C        3.066    -0.008    28.162     8.702
    48   6 C        3.063    -0.010    28.192     8.707
    49   6 C        2.912    -0.027    28.683     8.782
    50   6 C        2.920    -0.030    28.757     8.794
    51   6 C        2.923    -0.030    28.740     8.792
    52   6 C        2.910    -0.038    28.950     8.823
    53   6 C        3.077     0.048    26.852     8.496
    54   6 C        3.196    -0.055    28.807     8.750
    55   6 C        2.841     0.262    22.600     7.791
    56   8 O        0.857    -0.492    23.604     6.514
    57   1 H        0.925     0.035     2.511     2.478
    58   1 H        0.925     0.037     2.490     2.468
    59   1 H        0.925     0.035     2.519     2.482
    60   1 H        0.924     0.030     2.580     2.512
    61   1 H        0.924     0.023     2.685     2.563
    62   1 H        0.924     0.033     2.548     2.496
    63   1 H        0.924     0.017     2.782     2.608
    64   1 H        0.924     0.035     2.521     2.483
    65   1 H        0.924     0.022     2.710     2.574
    66   1 H        0.924     0.029     2.604     2.524
    67   1 H        0.924     0.014     2.825     2.628
    68   1 H        0.924     0.035     2.518     2.482
    69   1 H        0.924     0.038     2.472     2.459
    70   1 H        0.924     0.043     2.403     2.424
    71   1 H        0.924     0.042     2.420     2.433
    72   1 H        0.924     0.044     2.391     2.418
    73   1 H        0.924     0.057     2.236     2.338
    74   1 H        0.926     0.052     2.297     2.370
    75   1 H        0.926     0.047     2.358     2.401
    76   1 H        0.926     0.052     2.290     2.367
    77   1 H        0.926     0.052     2.291     2.367
    78   1 H        0.926     0.026     2.651     2.546
    79   1 H        0.926     0.037     2.495     2.470
    80   1 H        0.926     0.045     2.388     2.417
    81   1 H        0.926     0.053     2.288     2.366
    82   1 H        0.926     0.049     2.332     2.388
    83   1 H        0.926     0.048     2.348     2.396
    84   1 H        0.926     0.045     2.377     2.411
    85   1 H        0.926     0.041     2.433     2.439
    86   1 H        0.926     0.057     2.237     2.339
    87   1 H        0.926     0.041     2.439     2.442
    88   1 H        0.926     0.045     2.377     2.411
    89   1 H        0.926     0.046     2.365     2.405
    90   1 H        0.926     0.029     2.594     2.519
    91   1 H        0.926     0.039     2.457     2.451
    92   1 H        0.926     0.048     2.349     2.397
    93   1 H        0.926     0.053     2.288     2.365
    94   1 H        0.926     0.052     2.295     2.369
    95   1 H        0.926     0.048     2.343     2.394
    96   1 H        0.926     0.046     2.365     2.405
    97   1 H        0.926     0.044     2.402     2.424

molecular dipole:
                 x           y           z       tot (Debye)
 q only:        5.504       0.802      -1.499
   full:        4.754       0.612      -1.302      12.626

 projected vibrational frequencies (cm⁻¹)
eigval :       -0.00    -0.00    -0.00    -0.00     0.00     0.00
eigval :        9.09    12.97    21.65    26.82    30.69    34.30
eigval :       39.03    40.89    42.36    55.48    59.47    60.96
eigval :       66.53    73.09    79.58    88.86    94.08    94.82
eigval :       98.34   112.79   118.71   122.74   124.78   132.83
eigval :      141.17   145.37   149.31   159.61   162.87   177.53
eigval :      184.58   189.54   195.19   217.29   224.04   233.04
eigval :      247.14   259.07   269.70   272.36   275.01   284.09
eigval :      293.98   299.42   307.10   320.51   332.92   348.78
eigval :      367.23   374.76   377.77   390.83   395.44   404.39
eigval :      406.09   419.71   422.14   424.85   426.91   430.07
eigval :      435.72   438.86   449.62   473.68   480.03   482.00
eigval :      503.37   513.84   514.55   526.54   532.68   535.39
eigval :      535.87   545.68   551.48   563.17   573.86   582.03
eigval :      583.08   596.93   601.54   604.01   605.42   631.28
eigval :      651.88   672.28   673.55   677.46   681.10   686.99
eigval :      689.71   703.22   708.61   712.23   717.35   751.33
eigval :      755.07   756.55   761.12   763.28   765.26   769.57
eigval :      770.24   775.44   777.33   783.03   799.59   824.02
eigval :      835.23   859.15   862.14   863.10   866.78   870.01
eigval :      872.38   874.79   884.95   891.74   894.02   898.24
eigval :      900.00   901.65   902.11   905.63   907.92   913.64
eigval :      916.69   917.71   918.44   918.98   920.63   921.99
eigval :      922.77   925.24   927.44   930.21   943.80   982.58
eigval :     1002.53  1009.10  1010.32  1014.08  1019.30  1036.46
eigval :     1064.17  1065.80  1069.32  1071.92  1084.61  1089.51
eigval :     1091.47  1094.46  1096.72  1102.28  1119.75  1124.58
eigval :     1136.47  1137.90  1139.28  1140.35  1142.91  1148.91
eigval :     1170.02  1172.75  1173.01  1174.55  1175.83  1176.52
eigval :     1187.06  1190.25  1190.46  1198.79  1224.34  1225.43
eigval :     1227.16  1232.70  1236.40  1240.92  1242.72  1247.74
eigval :     1253.11  1259.31  1275.16  1278.83  1280.79  1285.73
eigval :     1288.40  1291.41  1293.33  1294.38  1311.71  1315.85
eigval :     1320.94  1325.59  1330.80  1333.60  1335.99  1338.84
eigval :     1340.78  1346.48  1351.56  1353.79  1358.70  1361.15
eigval :     1364.06  1372.51  1379.68  1399.01  1406.17  1409.44
eigval :     1409.74  1411.88  1413.95  1416.65  1420.37  1431.65
eigval :     1436.88  1453.94  1458.27  1459.91  1478.53  1479.07
eigval :     1480.22  1487.85  1491.67  1494.62  1495.99  1500.65
eigval :     1503.55  1506.34  1510.47  1519.28  1554.25  1561.53
eigval :     1564.13  1565.71  1575.18  1578.02  1579.13  1580.81
eigval :     1597.70  1601.46  1632.19  1651.98  2945.16  2946.81
eigval :     2954.17  2955.98  2961.97  2963.45  2971.96  2973.64
eigval :     2976.13  2977.53  2982.49  2987.58  2990.83  2994.65
eigval :     3025.76  3029.44  3045.28  3078.13  3079.60  3082.88
eigval :     3083.58  3084.20  3085.21  3085.56  3085.85  3088.47
eigval :     3089.06  3090.02  3090.28  3093.62  3095.47  3096.41
eigval :     3097.89  3101.72  3102.22  3102.65  3103.18  3107.43
eigval :     3110.40  3133.93  3139.62

   temp. (K)  partition function   enthalpy   heat capacity  entropy
                                   cal/mol     cal/K/mol   cal/K/mol   J/K/mol
 298.15  VIB  0.897E+22            28513.946    176.508    178.851
         ROT  0.731E+08              888.752      2.981     38.965
         INT  0.655E+30            29402.699    179.489    217.816
         TR   0.198E+29             1481.254      4.968     45.695
         TOT                       30883.9527   184.4568   263.5112  1102.5309

       T/K    H(0)-H(T)+PV         H(T)/Eh          T*S/Eh         G(T)/Eh
   ------------------------------------------------------------------------
    298.15    0.492167E-01    0.809116E+00    0.125203E+00    0.683913E+00
   ------------------------------------------------------------------------

         :::::::::::::::::::::::::::::::::::::::::::::::::::::
         ::                  THERMODYNAMIC                  ::
         :::::::::::::::::::::::::::::::::::::::::::::::::::::
         :: total free energy        -147.569886406603 Eh   ::
         ::.................................................::
         :: total energy             -148.253799572114 Eh   ::
         :: zero point energy           0.759899128269 Eh   ::
         :: G(RRHO) w/o ZPVE           -0.075985962759 Eh   ::
         :: G(RRHO) contrib.            0.683913165511 Eh   ::
         :::::::::::::::::::::::::::::::::::::::::::::::::::::

           -------------------------------------------------
          | TOTAL ENERGY             -148.253799572114 Eh   |
          | TOTAL ENTHALPY           -147.444683732443 Eh   |
          | TOTAL FREE ENERGY        -147.569886406603 Eh   |
          | GRADIENT NORM               0.000047578607 Eh/α |
          | HOMO-LUMO GAP               0.049651502651 eV   |
           -------------------------------------------------

 * finished run on 2025/08/30 at 07:04:42.812
