   * xtb version 6.7.1 (edcfbbe) compiled by 'albert@albert-system' on 2024-07-22

   ID    Z sym.   atoms
    1    6 C      1-8, 10, 12-19, 21-32, 34-40, 42-55
    2    7 N      9, 20, 41
    3    8 O      11, 56
    4   16 S      33
    5    1 H      57-97

          program call               : xtb data2507/toluene/o-PCzTPD/o-PCzTPD_toluene_S0_finalOpt.xtbopt.xyz --gfn 2 --uhf 2 --gbsa toluene --ohess vtight --parallel 40 --molden --ceasefiles --namespace data2507/toluene/o-PCzTPD/o-PCzTPD_toluene_T1_preOpt
      * Solvation model:               GBSA
        Solvent                        toluene
        Solvent mass                       9.2140E+01 g/mol
          :  Hamiltonian                  GFN2-xTB          :
 * total energy  :  -148.2475457 Eh     change       -0.8524893E-08 Eh
 * total energy  :  -148.2510073 Eh     change       -0.3461607E-02 Eh
 * total energy  :  -148.2518318 Eh     change       -0.8245092E-03 Eh
 * total energy  :  -148.2520407 Eh     change       -0.2088824E-03 Eh
 * total energy  :  -148.2523229 Eh     change       -0.2822320E-03 Eh
 * total energy  :  -148.2525447 Eh     change       -0.2217254E-03 Eh
 * total energy  :  -148.2527660 Eh     change       -0.2213016E-03 Eh
 * total energy  :  -148.2529458 Eh     change       -0.1798586E-03 Eh
 * total energy  :  -148.2530654 Eh     change       -0.1196167E-03 Eh
 * total energy  :  -148.2531368 Eh     change       -0.7134204E-04 Eh
 * total energy  :  -148.2538621 Eh     change       -0.4512534E-06 Eh
 * total energy  :  -148.2538628 Eh     change       -0.6118821E-06 Eh
 * total energy  :  -148.2538634 Eh     change       -0.6090447E-06 Eh
 * total energy  :  -148.2538637 Eh     change       -0.3570991E-06 Eh
 * total energy  :  -148.2538640 Eh     change       -0.2385997E-06 Eh
 * total energy  :  -148.2538642 Eh     change       -0.1939081E-06 Eh
 * total energy  :  -148.2538643 Eh     change       -0.1166840E-06 Eh
 * total energy  :  -148.2538643 Eh     change        0.1013149E-08 Eh
 * total energy  :  -148.2538643 Eh     change       -0.2639126E-08 Eh
   *** GEOMETRY OPTIMIZATION CONVERGED AFTER 69 ITERATIONS ***

 final structure:
================
97
 xtb: 6.7.1 (edcfbbe)
C            2.36123793408597        2.55659610002703       -3.47308278944813
C            2.30838181108392        3.35780853690720       -2.17679236576346
C            1.03599648237842        4.19866123180336       -2.08590399703657
C            0.97052103923818        5.07148774262372       -0.83056158615622
C            0.80225051966551        4.29663501399453        0.47852811032995
C           -0.56365987137475        3.62180693854943        0.59757806070684
C           -0.83323394187788        3.03069460435005        1.98142348850500
C            0.09215906011270        1.86530691919534        2.34191605126373
N           -0.00161838326835        0.77924830815786        1.39659307474985
C           -1.07667218448181       -0.06677237853387        1.29474528120493
O           -2.03699102401093       -0.08000494243046        2.04770852943132
C           -0.75451244312805       -0.94659343446819        0.16010427836874
C           -1.39407488440089       -1.93375516104842       -0.55087655039274
C           -2.73739971599161       -2.45239577037116       -0.44283560793226
C           -2.94040700113277       -3.83610139563214       -0.50447473768727
C           -4.18955394233033       -4.38366987232777       -0.30855878543517
C           -5.27905175873029       -3.55645595021672       -0.06587715445872
C           -5.11311499583651       -2.18502668536190       -0.05537828253066
C           -3.85766890987169       -1.61793903085355       -0.25586820053319
N           -3.75061810112614       -0.22575887734720       -0.35039817409142
C           -3.18044403878635        0.46891528260111       -1.40158750249234
C           -2.63574648816994       -0.00925060553689       -2.58538011667382
C           -2.16639071239405        0.91458565830753       -3.50127287418282
C           -2.25275628631104        2.28303759595379       -3.26113540770773
C           -2.83598379648401        2.76619856992966       -2.10285481394003
C           -3.30965800029856        1.85728292179200       -1.16853782769127
C           -4.00513611568714        1.99671398501603        0.08398590109913
C           -4.41662823001576        3.09159745756751        0.82809916546202
C           -5.08115942271210        2.86800854298731        2.02157485463963
C           -5.32085172546248        1.57350358862369        2.47748850860043
C           -4.91832237141706        0.46743273490830        1.75403792218186
C           -4.26840953333155        0.68552572440931        0.54548124877937
S           -0.29844566176588       -2.58964613761012       -1.75728696208197
C            1.06088834079465       -1.56225507900705       -1.23322777119933
C            2.34319278525348       -1.82282511599783       -1.74401001127739
C            2.48660337816263       -2.38320592259627       -3.04007085315611
C            3.70945686100320       -2.50502397053038       -3.63920422376913
C            4.87215369231053       -2.11256036179254       -2.96402428749777
C            4.78182208292927       -1.65077737645786       -1.66556680652962
C            3.55232964138583       -1.53268660106539       -1.02785715323080
N            3.52399160622831       -1.23175233277404        0.33177920676267
C            4.21281347096189       -0.21080152844369        0.94612129609098
C            5.02228054803613        0.77452553141930        0.38945928253433
C            5.56687815522492        1.71904724782184        1.23739681818402
C            5.31269179648121        1.69929145226674        2.60696989714387
C            4.48600303940519        0.73749318006151        3.16557463484457
C            3.93258024644551       -0.22153132041431        2.33492756762365
C            3.03552231496478       -1.32640526208775        2.56105470942647
C            2.43540188397304       -1.84780047267241        3.69585967048085
C            1.64576149768730       -2.97888575963282        3.56748192898992
C            1.48707660547449       -3.60232239565124        2.33396619814537
C            2.07895212297205       -3.09835892157207        1.18912500386713
C            2.81932295814011       -1.92916943764274        1.30127535556221
C            0.57860403223802       -0.68413252438547       -0.23105985225598
C            1.02747976633220        0.48036744263181        0.46926667836070
O            2.03124597377206        1.17849729549108        0.35844711997337
H            3.27735067564579        1.97199364433317       -3.52615496864245
H            1.51871904194817        1.86996627853704       -3.52820095782537
H            2.32312336817164        3.21794191246232       -4.33735953318738
H            2.35735326664622        2.66862421274500       -1.33249693339058
H            3.17953983324573        4.01598183298581       -2.12105363543226
H            0.98656087862060        4.85271902085610       -2.96183058926732
H            0.16722120424536        3.53826748211410       -2.12163448286248
H            0.13619225410562        5.77161363619306       -0.93239475050006
H            1.88902045517040        5.66134951403764       -0.77015955297665
H            1.58915072414726        3.54675903202279        0.55699333662226
H            0.92032671758528        4.99571221194797        1.31122708677275
H           -0.64965805888108        2.82770910333379       -0.14743394934349
H           -1.34384937689922        4.35652868529793        0.38456512491774
H           -0.71611960329578        3.80341472733821        2.74384392666072
H           -1.86379228911835        2.66848852576387        2.01960848100386
H           -0.17687502666735        1.48124864700301        3.33195900487774
H            1.13718207225688        2.18292373691389        2.34502090773138
H           -2.08607835275877       -4.47272035302130       -0.68078254233208
H           -4.31831539250695       -5.45449136012112       -0.34194289377556
H           -6.26010832014077       -3.97899720642053        0.08653613477772
H           -5.96472571988612       -1.53350671521282        0.07121144432545
H           -2.58933032761865       -1.06614080372650       -2.79760847767253
H           -1.73111565443552        0.56421927450415       -4.42525446816338
H           -1.87333481214880        2.97450678284264       -3.99844570501421
H           -2.92808654830381        3.82753376620592       -1.93095084117376
H           -4.21618430501411        4.09491377588960        0.48431985788726
H           -5.40874809991918        3.70765297160244        2.61630814733772
H           -5.82600194983264        1.43109286202076        3.42112250165575
H           -5.07776729738926       -0.53073103886676        2.12953777205489
H            1.58775587553600       -2.67438781441978       -3.56418373233485
H            3.78177301229372       -2.90550563113420       -4.63912744222676
H            5.83652353911575       -2.21893807021742       -3.43462591138959
H            5.68013810277444       -1.44319985119971       -1.10309681246451
H            5.19610611112838        0.82010504075159       -0.67350495392430
H            6.19570586307205        2.49520716196598        0.82784787678964
H            5.75407440302231        2.45590035980949        3.23837800571557
H            4.26775635253256        0.74041708424262        4.22278874823418
H            2.58743564938026       -1.38527531331745        4.65916483720404
H            1.16131347334486       -3.39485990977538        4.43798845566984
H            0.89271196887079       -4.50128711852376        2.26696879571681
H            1.96464724231126       -3.60276950690164        0.24241795472755

          :  Hamiltonian                  GFN2-xTB          :
         :: gradient norm              0.000067862989 Eh/a0 ::
         :: HOMO-LUMO gap              0.141047210947 eV    ::
         :: SCC energy              -150.744996297765 Eh    ::
         :: -> dispersion             -0.155785613124 Eh    ::
         :: -> Gsolv                  -0.057046952997 Eh    ::
         :: repulsion energy           2.491132019170 Eh    ::

    * Orbital Energies and Occupations

         #    Occupation            Energy/Eh            Energy/eV
      -------------------------------------------------------------
         1        2.0000           -0.7328030             -19.9406
       ...           ...                  ...                  ...
       126        2.0000           -0.4148851             -11.2896
       127        2.0000           -0.4139004             -11.2628
       128        2.0000           -0.4115636             -11.1992
       129        2.0000           -0.4066136             -11.0645
       130        2.0000           -0.4040548             -10.9949
       131        2.0000           -0.3985870             -10.8461
       132        2.0000           -0.3956772             -10.7669
       133        2.0000           -0.3913951             -10.6504
       134        2.0000           -0.3884315             -10.5698
       135        2.0000           -0.3817404             -10.3877
       136        1.8690           -0.3737836             -10.1712
       137        1.1310           -0.3701880             -10.0733
       138        0.9386           -0.2920711              -7.9477 (HOMO)
       139        0.0614           -0.2868882              -7.8066 (LUMO)
       140                         -0.2579733              -7.0198
       141                         -0.2557349              -6.9589
       142                         -0.2430157              -6.6128
       143                         -0.2375136              -6.4631
       144                         -0.2358011              -6.4165
       145                         -0.2340041              -6.3676
       146                         -0.2323760              -6.3233
       147                         -0.2230190              -6.0687
       148                         -0.2092706              -5.6945
       149                         -0.2019547              -5.4955
       ...                                ...                  ...
       270                          0.7445526              20.2603
      -------------------------------------------------------------
                  HL-Gap            0.0051829 Eh            0.1410 eV

     #   Z          covCN         q      C6AA      α(0)
     1   6 C        3.752    -0.095    22.381     6.747
     2   6 C        3.800    -0.055    21.568     6.612
     3   6 C        3.801    -0.055    21.567     6.612
     4   6 C        3.801    -0.057    21.594     6.616
     5   6 C        3.801    -0.061    21.667     6.627
     6   6 C        3.801    -0.047    21.416     6.589
     7   6 C        3.801    -0.059    21.638     6.623
     8   6 C        3.740     0.023    20.261     6.422
     9   7 N        2.811    -0.150    24.246     7.313
    10   6 C        2.827     0.275    22.354     7.747
    11   8 O        0.857    -0.468    23.079     6.441
    12   6 C        3.234    -0.044    28.203     8.618
    13   6 C        2.975     0.034    27.245     8.562
    14   6 C        2.999     0.003    27.954     8.673
    15   6 C        2.926    -0.031    28.761     8.795
    16   6 C        2.916    -0.027    28.681     8.782
    17   6 C        2.918    -0.026    28.650     8.777
    18   6 C        2.921    -0.040    28.987     8.829
    19   6 C        2.913     0.067    26.504     8.442
    20   7 N        2.802    -0.027    21.761     6.928
    21   6 C        3.073     0.048    26.844     8.495
    22   6 C        2.910    -0.047    29.162     8.855
    23   6 C        2.923    -0.032    28.804     8.801
    24   6 C        2.920    -0.036    28.894     8.815
    25   6 C        2.912    -0.031    28.767     8.795
    26   6 C        3.065    -0.015    28.312     8.725
    27   6 C        3.067    -0.013    28.270     8.718
    28   6 C        2.912    -0.031    28.779     8.797
    29   6 C        2.920    -0.034    28.844     8.807
    30   6 C        2.923    -0.030    28.749     8.793
    31   6 C        2.909    -0.033    28.824     8.803
    32   6 C        3.073     0.063    26.506     8.441
    33  16 S        2.331    -0.087   144.666    20.243
    34   6 C        2.971     0.007    27.855     8.657
    35   6 C        3.001     0.004    27.925     8.668
    36   6 C        2.923    -0.041    29.019     8.834
    37   6 C        2.913    -0.026    28.654     8.778
    38   6 C        2.916    -0.038    28.947     8.823
    39   6 C        2.917    -0.042    29.038     8.837
    40   6 C        2.910     0.054    26.785     8.486
    41   7 N        2.801    -0.004    21.344     6.862
    42   6 C        3.071     0.070    26.365     8.419
    43   6 C        2.910    -0.029    28.727     8.789
    44   6 C        2.922    -0.027    28.684     8.783
    45   6 C        2.920    -0.027    28.686     8.783
    46   6 C        2.911    -0.029    28.732     8.790
    47   6 C        3.066    -0.005    28.080     8.689
    48   6 C        3.063    -0.014    28.288     8.722
    49   6 C        2.912    -0.032    28.802     8.800
    50   6 C        2.920    -0.036    28.894     8.815
    51   6 C        2.923    -0.033    28.816     8.803
    52   6 C        2.910    -0.044    29.097     8.845
    53   6 C        3.073     0.049    26.830     8.493
    54   6 C        3.187    -0.062    29.036     8.791
    55   6 C        2.841     0.260    22.632     7.796
    56   8 O        0.856    -0.483    23.401     6.486
    57   1 H        0.925     0.029     2.601     2.522
    58   1 H        0.925     0.025     2.666     2.553
    59   1 H        0.925     0.032     2.553     2.499
    60   1 H        0.924     0.042     2.423     2.434
    61   1 H        0.924     0.025     2.653     2.547
    62   1 H        0.924     0.028     2.622     2.532
    63   1 H        0.924     0.024     2.668     2.554
    64   1 H        0.924     0.028     2.608     2.526
    65   1 H        0.924     0.031     2.577     2.510
    66   1 H        0.925     0.045     2.385     2.415
    67   1 H        0.924     0.028     2.612     2.528
    68   1 H        0.924     0.018     2.768     2.602
    69   1 H        0.924     0.032     2.555     2.499
    70   1 H        0.924     0.042     2.420     2.433
    71   1 H        0.924     0.036     2.497     2.471
    72   1 H        0.924     0.040     2.454     2.450
    73   1 H        0.924     0.059     2.208     2.324
    74   1 H        0.926     0.053     2.281     2.362
    75   1 H        0.926     0.054     2.267     2.354
    76   1 H        0.926     0.054     2.265     2.353
    77   1 H        0.926     0.052     2.299     2.371
    78   1 H        0.926     0.036     2.509     2.477
    79   1 H        0.926     0.041     2.440     2.443
    80   1 H        0.926     0.042     2.426     2.436
    81   1 H        0.926     0.042     2.417     2.431
    82   1 H        0.926     0.041     2.429     2.437
    83   1 H        0.926     0.042     2.420     2.433
    84   1 H        0.926     0.042     2.420     2.433
    85   1 H        0.926     0.043     2.410     2.428
    86   1 H        0.926     0.047     2.363     2.404
    87   1 H        0.926     0.045     2.379     2.412
    88   1 H        0.926     0.044     2.391     2.418
    89   1 H        0.926     0.044     2.390     2.418
    90   1 H        0.926     0.049     2.328     2.386
    91   1 H        0.926     0.049     2.338     2.391
    92   1 H        0.926     0.048     2.345     2.395
    93   1 H        0.926     0.045     2.384     2.414
    94   1 H        0.926     0.043     2.409     2.427
    95   1 H        0.926     0.042     2.426     2.436
    96   1 H        0.926     0.043     2.412     2.429
    97   1 H        0.926     0.039     2.457     2.451

molecular dipole:
                 x           y           z       tot (Debye)
 q only:       -0.044      -0.865      -0.456
   full:       -0.093      -0.783      -0.197       2.066

 projected vibrational frequencies (cm⁻¹)
eigval :       -0.00    -0.00    -0.00    -0.00     0.00     0.00
eigval :      -14.87    11.57    12.72    21.62    21.77    30.82
eigval :       34.35    44.64    47.26    55.96    62.65    64.57
eigval :       66.72    70.73    73.87    82.23    89.70   103.19
eigval :      110.52   111.26   119.34   123.99   136.00   139.86
eigval :      144.68   149.04   156.45   170.35   177.16   183.49
eigval :      186.50   198.12   221.17   226.72   242.00   245.50
eigval :      248.75   252.38   259.30   272.61   274.53   277.65
eigval :      296.99   300.02   301.66   319.05   331.84   343.69
eigval :      347.52   359.01   375.67   388.60   395.27   397.82
eigval :      410.28   418.83   420.59   422.73   433.77   438.78
eigval :      441.94   446.02   457.36   472.12   488.42   490.12
eigval :      494.13   513.66   514.68   525.89   533.26   538.04
eigval :      541.36   549.05   554.75   576.18   580.38   581.71
eigval :      583.93   595.07   598.20   605.42   608.44   630.48
eigval :      639.84   666.21   672.03   673.89   683.00   687.84
eigval :      692.94   705.03   707.16   712.30   716.79   752.98
eigval :      754.57   755.16   755.56   761.14   765.93   768.29
eigval :      774.24   774.69   778.08   782.20   800.45   831.58
eigval :      846.75   851.82   863.11   865.40   866.20   868.68
eigval :      873.25   879.36   888.22   891.44   894.42   897.27
eigval :      899.06   901.48   901.95   906.74   909.75   911.08
eigval :      913.14   915.25   916.23   917.33   920.16   920.50
eigval :      921.40   923.32   923.99   931.12   958.54   975.75
eigval :     1008.66  1009.86  1012.24  1013.96  1031.80  1058.04
eigval :     1066.50  1067.07  1070.86  1071.93  1077.86  1078.96
eigval :     1088.21  1090.99  1095.95  1101.89  1110.40  1131.08
eigval :     1135.49  1138.87  1141.65  1142.70  1144.67  1150.81
eigval :     1169.53  1171.32  1171.87  1172.92  1173.71  1174.44
eigval :     1175.70  1189.86  1190.96  1214.40  1222.74  1224.84
eigval :     1226.35  1231.78  1235.38  1239.26  1240.75  1242.26
eigval :     1258.59  1271.00  1276.15  1280.46  1285.05  1287.47
eigval :     1290.02  1292.13  1294.35  1305.53  1309.29  1317.47
eigval :     1320.38  1323.03  1328.05  1333.86  1335.78  1337.50
eigval :     1347.80  1350.57  1355.81  1359.48  1360.66  1363.34
eigval :     1374.38  1377.68  1383.57  1398.00  1406.68  1407.47
eigval :     1412.75  1414.32  1415.37  1418.81  1424.06  1435.05
eigval :     1449.23  1456.35  1459.98  1469.97  1476.76  1477.88
eigval :     1480.50  1484.13  1485.28  1490.19  1493.57  1498.69
eigval :     1501.01  1504.62  1509.99  1538.89  1552.85  1561.92
eigval :     1563.33  1568.96  1571.95  1575.57  1577.85  1581.21
eigval :     1596.92  1601.88  1654.50  1681.33  2934.82  2942.56
eigval :     2946.76  2952.75  2959.81  2960.69  2966.89  2967.96
eigval :     2977.54  2980.15  2984.25  2985.67  3003.29  3014.95
eigval :     3019.55  3021.44  3029.94  3076.26  3079.51  3081.27
eigval :     3081.96  3082.09  3084.53  3086.27  3087.10  3087.18
eigval :     3088.34  3088.44  3089.31  3089.64  3094.52  3095.17
eigval :     3096.03  3096.09  3096.60  3101.21  3101.58  3103.80
eigval :     3104.03  3105.04  3107.84

   temp. (K)  partition function   enthalpy   heat capacity  entropy
                                   cal/mol     cal/K/mol   cal/K/mol   J/K/mol
 298.15  VIB  0.111E+23            28407.542    176.207    177.986
         ROT  0.710E+08              888.752      2.981     38.908
         INT  0.790E+30            29296.295    179.187    216.894
         TR   0.198E+29             1481.254      4.968     45.695
         TOT                       30777.5486   184.1555   262.5892  1098.6731

       T/K    H(0)-H(T)+PV         H(T)/Eh          T*S/Eh         G(T)/Eh
   ------------------------------------------------------------------------
    298.15    0.490471E-01    0.809277E+00    0.124765E+00    0.684513E+00
   ------------------------------------------------------------------------

         :::::::::::::::::::::::::::::::::::::::::::::::::::::
         ::                  THERMODYNAMIC                  ::
         :::::::::::::::::::::::::::::::::::::::::::::::::::::
         :: total free energy        -147.569351560847 Eh   ::
         ::.................................................::
         :: total energy             -148.253864279781 Eh   ::
         :: zero point energy           0.760230162690 Eh   ::
         :: G(RRHO) w/o ZPVE           -0.075717443756 Eh   ::
         :: G(RRHO) contrib.            0.684512718934 Eh   ::
         :::::::::::::::::::::::::::::::::::::::::::::::::::::

           -------------------------------------------------
          | TOTAL ENERGY             -148.253864279781 Eh   |
          | TOTAL ENTHALPY           -147.444586971467 Eh   |
          | TOTAL FREE ENERGY        -147.569351560847 Eh   |
          | GRADIENT NORM               0.000067566581 Eh/α |
          | HOMO-LUMO GAP               0.141032733973 eV   |
           -------------------------------------------------

 * finished run on 2025/08/30 at 06:18:06.947
