   * xtb version 6.7.1 (edcfbbe) compiled by 'albert@albert-system' on 2024-07-22

   ID    Z sym.   atoms
    1    6 C      1-5, 7-13, 15-19, 21-27, 29-35, 37, 39-52, 54-65, 67, 68
    2    7 N      6, 14, 20, 28, 36, 38, 53, 66
    3    1 H      69-106

          program call               : xtb data2507/gas/m2Cz2Trz/m2Cz2Trz_gas_S0_crest.xyz --gfn 2 --ohess vtight --parallel 40 --molden --ceasefiles --namespace data2507/gas/m2Cz2Trz/m2Cz2Trz_gas_S0_finalOpt
          :  Hamiltonian                  GFN2-xTB          :
 * total energy  :  -171.3641488 Eh     change       -0.3966875E-08 Eh
 * total energy  :  -171.3641502 Eh     change       -0.1354844E-05 Eh
 * total energy  :  -171.3641517 Eh     change       -0.1499435E-05 Eh
 * total energy  :  -171.3641564 Eh     change       -0.4722072E-05 Eh
 * total energy  :  -171.3641586 Eh     change       -0.2166165E-05 Eh
 * total energy  :  -171.3641602 Eh     change       -0.1636944E-05 Eh
 * total energy  :  -171.3641625 Eh     change       -0.2255394E-05 Eh
 * total energy  :  -171.3641643 Eh     change       -0.1824313E-05 Eh
 * total energy  :  -171.3641654 Eh     change       -0.1147178E-05 Eh
 * total energy  :  -171.3641667 Eh     change       -0.1301605E-05 Eh
 * total energy  :  -171.3641700 Eh     change       -0.2740368E-06 Eh
 * total energy  :  -171.3641702 Eh     change       -0.2895032E-06 Eh
 * total energy  :  -171.3641706 Eh     change       -0.3758841E-06 Eh
 * total energy  :  -171.3641712 Eh     change       -0.5433988E-06 Eh
 * total energy  :  -171.3641719 Eh     change       -0.7600842E-06 Eh
 * total energy  :  -171.3641727 Eh     change       -0.7584752E-06 Eh
 * total energy  :  -171.3641732 Eh     change       -0.5412932E-06 Eh
 * total energy  :  -171.3641736 Eh     change       -0.4119451E-06 Eh
 * total energy  :  -171.3641736 Eh     change       -0.9094094E-08 Eh
   *** GEOMETRY OPTIMIZATION CONVERGED AFTER 22 ITERATIONS ***

 final structure:
================
106
 xtb: 6.7.1 (edcfbbe)
C           -8.20386010529964       -1.49009826394897        1.30386313001860
C           -8.27413784825677       -0.18766822244085        0.83393186507586
C           -7.12080383038175        0.55644784106019        0.67921668234080
C           -5.88559961781226       -0.00595932381605        0.99013157971300
C           -4.65632159596087        0.74866160528652        0.76083965098832
N           -4.72961692358342        2.06279282896412        0.58250047256027
C           -3.57381787354307        2.68342760754735        0.35965466868922
C           -3.57098496056087        4.14297782164338        0.27841624062029
C           -4.74852554507059        4.86000291444927        0.48045087052237
C           -4.73699844000755        6.23954241944477        0.41044964315947
C           -3.55528894203546        6.91270864886820        0.14112876822822
C           -2.38130643426920        6.20315477704574       -0.05976803536384
C           -2.38515491399881        4.82383559312457        0.00701926386675
N           -2.41648676242799        2.05180787838143        0.18078929552918
C           -2.44992122753309        0.73254746809772        0.32358785627926
C           -1.21352130849476       -0.00491894895850        0.04993446419906
C           -0.00162578228287        0.64745023371030        0.22301806138632
C            1.21183228459514       -0.00097533113214        0.04690189643970
C            2.44717238096361        0.74336318087723        0.30680521840512
N            2.41034087194857        2.05938218227967        0.13764229362398
C            3.56704003809435        2.69677424504836        0.29935932505084
C            3.56186296699619        4.15383157424775        0.18161916570861
C            4.73502695762994        4.87891763234761        0.38016741353339
C            4.72154568113302        6.25603651330659        0.27259071690410
C            3.54243533788580        6.91866058597384       -0.03194808519581
C            2.37287885390724        6.20100228574710       -0.22984521314359
C            2.37848161571635        4.82408838109224       -0.12460079667680
N            4.72432607736674        2.08332204372244        0.53372623627173
C            4.65442973993619        0.77280266019338        0.73832249033145
C            5.88622179802370        0.02583663688713        0.97856470117424
C            5.82464486401163       -1.27332645989558        1.47715409662165
C            6.98473414165762       -2.00328739953565        1.64378466920180
C            8.20957374830681       -1.44610727297810        1.31145824764016
C            8.27507616947784       -0.15096694493960        0.82112130131638
C            7.11919902456731        0.58706899125243        0.65673597410635
N            3.52466339630415        0.07194360669806        0.68987817940216
C            1.21403461735416       -1.34782739669477       -0.35840552325246
N            2.40414434016371       -2.02930710137402       -0.61945964935052
C            3.44987606655723       -1.56060300450730       -1.39274377661527
C            3.50003900712283       -0.45685877695136       -2.23194761919483
C            4.68740221147551       -0.20104046260302       -2.88951842504142
C            5.79506060075986       -1.03278091375225       -2.73957522266019
C            5.73447844140897       -2.15959059381784       -1.94512935490830
C            4.55275766381959       -2.43331533012645       -1.27022879233759
C            4.14577781734845       -3.48110061680473       -0.37565749299228
C            4.78939472518702       -4.59702064301905        0.14088876952874
C            4.10751228943758       -5.40066042814350        1.03358508382627
C            2.80613801886442       -5.09373919578296        1.42251492367777
C            2.14650201865336       -3.98697696210822        0.92176721858708
C            2.81716821701837       -3.18985913795289        0.00755083317419
C            0.00160947693825       -1.99932709354883       -0.55435458389553
C           -1.21264772766421       -1.35011501124917       -0.36172547517141
N           -2.40088314415197       -2.02991980926408       -0.63380344442863
C           -3.44336925617002       -1.55138038308699       -1.40586760729481
C           -3.49049861698788       -0.43629616129120       -2.23014349817341
C           -4.67499186839928       -0.17216094149537       -2.88960885286550
C           -5.78284304344935       -1.00639585691508       -2.75606839449046
C           -5.72484673227011       -2.14434466624201       -1.97745207017672
C           -4.54586805377775       -2.42674245884533       -1.30133491032342
C           -4.14180055857666       -3.48745054602370       -0.42079267497520
C           -4.78674116709616       -4.61206699318777        0.07468327427596
C           -4.10839609256469       -5.42911306620797        0.95785045434925
C           -2.80937744647520       -5.12684953880577        1.35798858563875
C           -2.14847517525020       -4.01157286401020        0.87809926131862
C           -2.81532668357841       -3.20065282002958       -0.02675482665962
N           -3.52503872699943        0.05170415878563        0.69694641623635
C           -5.81922588866620       -1.31257577597686        1.46817200205396
C           -6.97676462040731       -2.04864538101738        1.62537208711758
H           -9.10820726487225       -2.06973166747017        1.42048828165893
H           -9.23239520526639        0.24477460615201        0.58553696745763
H           -7.15374049097481        1.56838032521387        0.30654270615821
H           -5.65660600260798        4.31780808168536        0.69286746339944
H           -5.64993107875141        6.79518663967449        0.56725023009141
H           -3.54946726708094        7.99172669843344        0.08825790664948
H           -1.46219418829524        6.73080251789749       -0.26851476000299
H           -1.48279957355722        4.25373344292398       -0.14858183839462
H           -0.00316992471418        1.67953869166260        0.53557453083986
H            5.64129967701128        4.34489846409874        0.61936963670158
H            5.63103283234216        6.81803188702650        0.42673221660380
H            3.53529965946015        7.99576172596300       -0.11511036085886
H            1.45617579429401        6.72035646385850       -0.46801561933171
H            1.47986107112775        4.24746834132708       -0.27794787156483
H            4.86363725560994       -1.69309330806889        1.72902781912574
H            6.93304356608518       -3.01109793397239        2.02871200151823
H            9.11588984067772       -2.02112514697765        1.43544111401156
H            9.23157196401766        0.28046461667881        0.56431235106645
H            7.14831061458646        1.59307225846326        0.26803442171156
H            2.64597062806916        0.19369130097204       -2.35570969212378
H            4.75849793221358        0.66425870592046       -3.53221175261414
H            6.70914679504952       -0.79182152536907       -3.26135943486889
H            6.58763118861167       -2.81272041729567       -1.84157933514683
H            5.80442321990174       -4.82329162187599       -0.14884229442642
H            4.58880783121715       -6.27512918688189        1.44582519700666
H            2.30244585630507       -5.73147173335844        2.13394480147264
H            1.14629606246323       -3.74597385571716        1.24707772456594
H            0.00337858526862       -3.01907114026450       -0.91089347956937
H           -2.63636290982371        0.21637693209393       -2.34143677273758
H           -4.74363163761058        0.70182592369938       -3.52070896082117
H           -6.69482101159609       -0.75855325585900       -3.27831727174903
H           -6.57785466020203       -2.79959983643119       -1.88702748575130
H           -5.79997746090895       -4.83481959853172       -0.22390550802474
H           -4.59061508553214       -6.31069123956520        1.35353101823330
H           -2.30832302042853       -5.77531022405651        2.06153220116000
H           -1.14996392809152       -3.77557399955054        1.21196625904901
H           -4.85652648290387       -1.73319823274610        1.71201368521215
H           -6.92131664951055       -3.06215798144290        1.99448399788759

          :  Hamiltonian                  GFN2-xTB          :
         :: gradient norm              0.000054096625 Eh/a0 ::
         :: HOMO-LUMO gap              1.929908058682 eV    ::
         :: SCC energy              -174.496637234894 Eh    ::
         :: -> dispersion             -0.177140314722 Eh    ::
         :: repulsion energy           3.132463589564 Eh    ::

    * Orbital Energies and Occupations

         #    Occupation            Energy/Eh            Energy/eV
      -------------------------------------------------------------
         1        2.0000           -0.6849296             -18.6379
       ...           ...                  ...                  ...
       147        2.0000           -0.4078589             -11.0984
       148        2.0000           -0.4067682             -11.0687
       149        2.0000           -0.4067478             -11.0682
       150        2.0000           -0.4015068             -10.9256
       151        2.0000           -0.4013102             -10.9202
       152        2.0000           -0.3789565             -10.3119
       153        2.0000           -0.3788824             -10.3099
       154        2.0000           -0.3725599             -10.1379
       155        2.0000           -0.3722202             -10.1286
       156        2.0000           -0.3714832             -10.1086
       157        2.0000           -0.3708394             -10.0911
       158        2.0000           -0.3639968              -9.9049
       159        2.0000           -0.3624494              -9.8628 (HOMO)
       160                         -0.2915266              -7.9328 (LUMO)
       161                         -0.2853201              -7.7640
       162                         -0.2847540              -7.7486
       163                         -0.2822748              -7.6811
       164                         -0.2494423              -6.7877
       165                         -0.2475892              -6.7372
       166                         -0.2430819              -6.6146
       167                         -0.2429371              -6.6107
       168                         -0.2286523              -6.2219
       169                         -0.2285873              -6.2202
       170                         -0.2261072              -6.1527
       ...                                ...                  ...
       310                          0.7481908              20.3593
      -------------------------------------------------------------
                  HL-Gap            0.0709228 Eh            1.9299 eV

     #   Z          covCN         q      C6AA      α(0)
     1   6 C        2.921    -0.023    28.587     8.768
     2   6 C        2.919    -0.027    28.687     8.783
     3   6 C        2.924    -0.023    28.572     8.766
     4   6 C        2.986     0.001    28.004     8.681
     5   6 C        2.991     0.205    23.661     7.979
     6   7 N        1.843    -0.293    28.439     7.903
     7   6 C        2.988     0.203    23.695     7.985
     8   6 C        2.984     0.000    28.011     8.682
     9   6 C        2.923    -0.023    28.585     8.768
    10   6 C        2.918    -0.027    28.680     8.782
    11   6 C        2.920    -0.023    28.588     8.768
    12   6 C        2.918    -0.027    28.667     8.780
    13   6 C        2.924    -0.023    28.584     8.768
    14   7 N        1.846    -0.295    28.492     7.911
    15   6 C        2.991     0.210    23.567     7.963
    16   6 C        2.982    -0.015    28.379     8.738
    17   6 C        2.933    -0.021    28.524     8.759
    18   6 C        2.982    -0.015    28.376     8.738
    19   6 C        2.991     0.210    23.565     7.963
    20   7 N        1.846    -0.295    28.492     7.911
    21   6 C        2.988     0.203    23.695     7.985
    22   6 C        2.984     0.000    28.010     8.682
    23   6 C        2.923    -0.023    28.584     8.768
    24   6 C        2.918    -0.027    28.680     8.782
    25   6 C        2.920    -0.023    28.588     8.768
    26   6 C        2.918    -0.027    28.666     8.780
    27   6 C        2.924    -0.023    28.584     8.768
    28   7 N        1.843    -0.293    28.438     7.903
    29   6 C        2.991     0.205    23.660     7.979
    30   6 C        2.986     0.001    28.004     8.681
    31   6 C        2.924    -0.020    28.510     8.756
    32   6 C        2.919    -0.026    28.648     8.777
    33   6 C        2.921    -0.023    28.587     8.768
    34   6 C        2.919    -0.027    28.687     8.783
    35   6 C        2.924    -0.023    28.572     8.766
    36   7 N        1.846    -0.298    28.565     7.921
    37   6 C        2.911     0.076    26.307     8.410
    38   7 N        2.802    -0.030    21.817     6.937
    39   6 C        3.078     0.054    26.698     8.471
    40   6 C        2.910    -0.046    29.153     8.854
    41   6 C        2.924    -0.033    28.811     8.802
    42   6 C        2.921    -0.040    28.995     8.830
    43   6 C        2.913    -0.032    28.802     8.800
    44   6 C        3.068    -0.013    28.259     8.717
    45   6 C        3.069    -0.012    28.248     8.715
    46   6 C        2.913    -0.032    28.790     8.798
    47   6 C        2.920    -0.040    29.004     8.832
    48   6 C        2.924    -0.033    28.817     8.803
    49   6 C        2.910    -0.048    29.193     8.860
    50   6 C        3.076     0.051    26.773     8.483
    51   6 C        2.926    -0.057    29.426     8.896
    52   6 C        2.911     0.076    26.307     8.410
    53   7 N        2.802    -0.029    21.809     6.936
    54   6 C        3.078     0.054    26.699     8.471
    55   6 C        2.910    -0.046    29.152     8.853
    56   6 C        2.924    -0.033    28.811     8.802
    57   6 C        2.921    -0.040    28.994     8.830
    58   6 C        2.913    -0.032    28.802     8.800
    59   6 C        3.068    -0.013    28.258     8.717
    60   6 C        3.069    -0.012    28.247     8.715
    61   6 C        2.913    -0.032    28.789     8.798
    62   6 C        2.920    -0.040    29.003     8.831
    63   6 C        2.924    -0.033    28.817     8.803
    64   6 C        2.910    -0.048    29.195     8.860
    65   6 C        3.076     0.051    26.775     8.484
    66   7 N        1.846    -0.298    28.568     7.921
    67   6 C        2.924    -0.020    28.511     8.756
    68   6 C        2.919    -0.026    28.648     8.777
    69   1 H        0.926     0.037     2.485     2.465
    70   1 H        0.926     0.038     2.481     2.463
    71   1 H        0.926     0.053     2.281     2.362
    72   1 H        0.926     0.056     2.245     2.343
    73   1 H        0.926     0.037     2.486     2.466
    74   1 H        0.926     0.037     2.492     2.469
    75   1 H        0.926     0.036     2.508     2.476
    76   1 H        0.926     0.057     2.231     2.336
    77   1 H        0.926     0.081     1.972     2.196
    78   1 H        0.926     0.056     2.246     2.343
    79   1 H        0.926     0.037     2.486     2.466
    80   1 H        0.926     0.037     2.492     2.469
    81   1 H        0.926     0.036     2.509     2.477
    82   1 H        0.926     0.057     2.230     2.335
    83   1 H        0.926     0.053     2.287     2.365
    84   1 H        0.926     0.038     2.474     2.460
    85   1 H        0.926     0.037     2.485     2.465
    86   1 H        0.926     0.038     2.480     2.463
    87   1 H        0.926     0.053     2.279     2.361
    88   1 H        0.926     0.021     2.716     2.577
    89   1 H        0.926     0.030     2.585     2.514
    90   1 H        0.926     0.030     2.591     2.517
    91   1 H        0.926     0.031     2.569     2.506
    92   1 H        0.926     0.031     2.567     2.506
    93   1 H        0.926     0.029     2.599     2.521
    94   1 H        0.926     0.031     2.572     2.508
    95   1 H        0.926     0.025     2.652     2.546
    96   1 H        0.926     0.059     2.207     2.323
    97   1 H        0.926     0.021     2.713     2.576
    98   1 H        0.926     0.030     2.584     2.514
    99   1 H        0.926     0.030     2.591     2.517
   100   1 H        0.926     0.031     2.568     2.506
   101   1 H        0.926     0.031     2.567     2.505
   102   1 H        0.926     0.029     2.599     2.521
   103   1 H        0.926     0.031     2.571     2.507
   104   1 H        0.926     0.026     2.648     2.545
   105   1 H        0.926     0.053     2.288     2.366
   106   1 H        0.926     0.038     2.474     2.460

molecular dipole:
                 x           y           z       tot (Debye)
 q only:       -0.002       0.275       0.011
   full:       -0.002       0.448       0.062       1.148

 projected vibrational frequencies (cm⁻¹)
eigval :       -0.00    -0.00    -0.00     0.00     0.00     0.00
eigval :        5.36    10.01    12.67    17.58    20.77    21.90
eigval :       23.54    27.44    27.71    30.51    32.47    48.36
eigval :       50.26    51.01    53.56    59.09    68.01    70.67
eigval :       79.06    82.53    94.66   102.56   103.74   106.24
eigval :      124.18   124.61   128.86   135.96   145.48   153.00
eigval :      162.83   168.46   187.74   196.02   197.16   200.05
eigval :      205.00   214.99   227.28   232.90   254.63   258.49
eigval :      261.63   269.30   275.26   277.79   302.01   322.28
eigval :      347.46   360.13   364.52   365.66   368.48   370.08
eigval :      370.21   383.44   391.76   397.90   398.42   406.69
eigval :      417.56   419.04   421.44   424.43   432.94   433.59
eigval :      443.03   446.51   458.79   483.16   498.30   516.00
eigval :      518.82   521.60   534.24   541.06   541.44   544.79
eigval :      547.06   578.23   586.34   587.03   587.37   587.87
eigval :      588.45   595.30   611.38   612.31   618.46   620.66
eigval :      626.22   626.42   628.27   632.30   643.08   647.03
eigval :      659.64   664.78   669.51   673.29   675.09   675.61
eigval :      676.43   691.57   699.05   707.94   708.72   716.02
eigval :      747.92   753.13   755.03   757.10   764.08   766.61
eigval :      769.58   774.73   775.23   778.37   780.45   794.00
eigval :      794.18   816.61   847.21   847.55   861.41   865.97
eigval :      872.87   873.20   875.55   878.66   879.06   879.17
eigval :      882.81   896.03   897.88   899.66   900.26   902.27
eigval :      902.34   906.66   910.60   910.91   911.78   912.42
eigval :      912.75   912.82   919.74   922.14   922.22   922.61
eigval :      928.14   930.92   930.96   931.27   933.28   933.89
eigval :      935.68   935.71   973.21   978.91   990.43   991.08
eigval :     1012.44  1012.77  1037.79  1045.45  1059.50  1066.87
eigval :     1070.66  1073.08  1073.83  1074.56  1074.75  1075.81
eigval :     1077.12  1082.75  1104.76  1108.03  1110.41  1112.85
eigval :     1113.11  1114.99  1147.08  1148.89  1152.90  1166.74
eigval :     1166.88  1170.97  1171.56  1178.32  1178.65  1180.21
eigval :     1180.60  1181.13  1181.97  1182.15  1182.43  1188.42
eigval :     1190.72  1203.15  1204.72  1210.01  1210.70  1212.84
eigval :     1217.84  1232.70  1236.35  1236.92  1251.81  1267.74
eigval :     1269.94  1270.61  1271.16  1296.14  1296.56  1300.70
eigval :     1301.90  1311.08  1325.05  1328.54  1329.58  1329.83
eigval :     1331.98  1340.73  1359.99  1360.03  1361.62  1361.98
eigval :     1366.91  1373.22  1373.57  1376.85  1377.88  1395.91
eigval :     1419.29  1423.59  1427.99  1428.50  1432.19  1432.64
eigval :     1434.28  1434.61  1456.44  1468.41  1469.38  1470.90
eigval :     1475.17  1475.53  1478.12  1483.63  1488.41  1488.59
eigval :     1507.22  1507.69  1518.30  1520.88  1538.71  1572.48
eigval :     1576.13  1576.93  1583.97  1584.33  1586.55  1586.57
eigval :     1591.11  1591.67  1594.84  1595.38  1596.61  1596.71
eigval :     1599.32  1599.59  1614.97  1615.67  3071.91  3072.17
eigval :     3073.34  3073.35  3073.93  3074.50  3076.73  3077.10
eigval :     3079.80  3079.89  3080.34  3081.03  3081.19  3081.23
eigval :     3082.89  3083.58  3086.93  3087.13  3089.25  3089.30
eigval :     3089.73  3090.05  3091.07  3091.49  3093.07  3095.80
eigval :     3096.31  3097.42  3098.16  3104.24  3104.27  3106.80
eigval :     3107.12  3107.26  3108.11  3109.37  3109.41  3114.80

   temp. (K)  partition function   enthalpy   heat capacity  entropy
                                   cal/mol     cal/K/mol   cal/K/mol   J/K/mol
 298.15  VIB  0.503E+27            31825.688    194.855    201.657
         ROT  0.175E+09              888.752      2.981     40.704
         INT  0.883E+35            32714.441    197.836    242.361
         TR   0.249E+29             1481.254      4.968     46.149
         TOT                       34195.6947   202.8041   288.5098  1207.1250

       T/K    H(0)-H(T)+PV         H(T)/Eh          T*S/Eh         G(T)/Eh
   ------------------------------------------------------------------------
    298.15    0.544943E-01    0.853987E+00    0.137080E+00    0.716907E+00
   ------------------------------------------------------------------------

         :::::::::::::::::::::::::::::::::::::::::::::::::::::
         ::                  THERMODYNAMIC                  ::
         :::::::::::::::::::::::::::::::::::::::::::::::::::::
         :: total free energy        -170.647267101934 Eh   ::
         ::.................................................::
         :: total energy             -171.364173645331 Eh   ::
         :: zero point energy           0.799492554767 Eh   ::
         :: G(RRHO) w/o ZPVE           -0.082586011370 Eh   ::
         :: G(RRHO) contrib.            0.716906543397 Eh   ::
         :::::::::::::::::::::::::::::::::::::::::::::::::::::

           -------------------------------------------------
          | TOTAL ENERGY             -171.364173645331 Eh   |
          | TOTAL ENTHALPY           -170.510186782391 Eh   |
          | TOTAL FREE ENERGY        -170.647267101934 Eh   |
          | GRADIENT NORM               0.000054093814 Eh/α |
          | HOMO-LUMO GAP               1.929908231987 eV   |
           -------------------------------------------------

 * finished run on 2025/08/25 at 01:49:54.884
