   * xtb version 6.7.1 (edcfbbe) compiled by 'albert@albert-system' on 2024-07-22

   ID    Z sym.   atoms
    1    6 C      1-5, 7-13, 15-19, 21-27, 29-35, 37, 39-52, 54-65, 67, 68
    2    7 N      6, 14, 20, 28, 36, 38, 53, 66
    3    1 H      69-106

          program call               : xtb data2507/gas/m2Cz2Trz/m2Cz2Trz_gas_S0_finalOpt.xtbopt.xyz --gfn 2 --spinpol --tblite --uhf 2 --ohess vtight --parallel 40 --molden --ceasefiles --namespace data2507/gas/m2Cz2Trz/m2Cz2Trz_gas_T1_preOpt
 * total energy  :  -171.2897753 Eh     change       -0.4595486E-07 Eh
 * total energy  :  -171.2920788 Eh     change       -0.2303493E-02 Eh
 * total energy  :  -171.2930986 Eh     change       -0.1019726E-02 Eh
 * total energy  :  -171.2932171 Eh     change       -0.1185160E-03 Eh
 * total energy  :  -171.2933787 Eh     change       -0.1616614E-03 Eh
 * total energy  :  -171.2934189 Eh     change       -0.4013028E-04 Eh
 * total energy  :  -171.2934779 Eh     change       -0.5905283E-04 Eh
 * total energy  :  -171.2935307 Eh     change       -0.5280690E-04 Eh
 * total energy  :  -171.2935836 Eh     change       -0.5289851E-04 Eh
 * total energy  :  -171.2936548 Eh     change       -0.7114846E-04 Eh
 * total energy  :  -171.2941951 Eh     change       -0.9131898E-06 Eh
 * total energy  :  -171.2941962 Eh     change       -0.1068540E-05 Eh
 * total energy  :  -171.2941973 Eh     change       -0.1130040E-05 Eh
 * total energy  :  -171.2941984 Eh     change       -0.1060740E-05 Eh
 * total energy  :  -171.2941995 Eh     change       -0.1140640E-05 Eh
 * total energy  :  -171.2942007 Eh     change       -0.1150054E-05 Eh
 * total energy  :  -171.2942019 Eh     change       -0.1193467E-05 Eh
 * total energy  :  -171.2942018 Eh     change        0.5610249E-07 Eh
 * total energy  :  -171.2942019 Eh     change       -0.9236194E-07 Eh
   *** GEOMETRY OPTIMIZATION CONVERGED AFTER 69 ITERATIONS ***

 final structure:
================
106
 xtb: 6.7.1 (edcfbbe)
C           -8.22844564641296       -1.55358265891324        1.00998237190589
C           -8.29175482325438       -0.25379433133555        0.53198855104899
C           -7.14311446400125        0.50812792120675        0.44091061599961
C           -5.91899857069113       -0.03390480991765        0.82189158103051
C           -4.69092682242538        0.74238690010043        0.66914282090331
N           -4.76346718903783        2.06654179003614        0.58725196027231
C           -3.59613680162458        2.71895834677162        0.44121297843128
C           -3.61971735292076        4.17728196760214        0.43304546261960
C           -4.81983961916904        4.86296580408081        0.62115914365035
C           -4.83471049142278        6.24377386675394        0.61703012616307
C           -3.65888630509013        6.95336087484876        0.42673691925842
C           -2.46292195778470        6.27619841394730        0.23977489748824
C           -2.43905176952325        4.89636397436643        0.24191469156290
N           -2.43188514300890        2.11742202341718        0.28599225465476
C           -2.43942189841286        0.78015019327562        0.32989807062054
C           -1.21436835797168        0.07728193017436        0.05521483423268
C           -0.00151345970437        0.73770039636102        0.18546666634905
C            1.21386347066913        0.08387074277006        0.04858889995379
C            2.43693139365858        0.79438801355416        0.31460071731945
N            2.42166793804466        2.13118518062239        0.26436802236021
C            3.58364764514756        2.73965913671561        0.41103531844842
C            3.59938741671066        4.19809950462699        0.39475511441064
C            4.79600334598000        4.89119474628923        0.57777353040295
C            4.80353304030799        6.27202368854673        0.56546845062154
C            3.62382024260754        6.97419873467105        0.37180297219877
C            2.43133043214129        6.28961964244984        0.18980108252129
C            2.41477106548199        4.90969678752755        0.20032560087271
N            4.75485423122134        2.09429527465441        0.55470164068978
C            4.68977085082641        0.77020990562735        0.64315022020575
C            5.92274771721429        0.00121960604251        0.79320196821322
C            5.87349342412013       -1.30044145002895        1.28534374511120
C            7.03083139604524       -2.04778664640240        1.37727204487012
C            8.24132558792187       -1.50512350104354        0.97595531438493
C            8.29527937611866       -0.20679021537546        0.49288506289731
C            7.14207264852075        0.54850891620234        0.40442824979874
N            3.55622223446109        0.09882029918273        0.57560555054144
C            1.21243750608111       -1.29771356400333       -0.31058494876858
N            2.41362461499315       -1.97699729080826       -0.54871306810980
C            3.39016274321966       -1.59041380209935       -1.44570459403427
C            3.39444938464320       -0.52723342196417       -2.33748532484417
C            4.52908510055046       -0.33663020928186       -3.10322841081737
C            5.62467526453844       -1.19065071887323       -3.00338890831226
C            5.60708335821966       -2.27657908759447       -2.14799111032486
C            4.48030250243014       -2.48660484664906       -1.36771783511621
C            4.12144252815709       -3.47657551352394       -0.38878841217411
C            4.76208123719984       -4.59444555653070        0.12289943312234
C            4.12674597632950       -5.32927759408486        1.10752261099055
C            2.87333071515938       -4.95516646681481        1.58943695057501
C            2.21431784401096       -3.84717824938318        1.09391741871455
C            2.83868867795766       -3.11474993784231        0.09235140204611
C            0.00393060351581       -1.95744494541465       -0.47328885197351
C           -1.20717644053648       -1.30397302102891       -0.30570573607850
N           -2.40590001063386       -1.98853215184403       -0.54092425085485
C           -3.38749627650866       -1.60404508322314       -1.43342768092629
C           -3.40027861351571       -0.53804946415464       -2.32175478805674
C           -4.53850686148030       -0.35078475710892       -3.08298386031764
C           -5.62936053420384       -1.21073431711326       -2.98220722843815
C           -5.60319489970079       -2.29940256549156       -2.13053451816508
C           -4.47264700880670       -2.50617996336582       -1.35483385877401
C           -4.10520738259817       -3.49772629633717       -0.38071284021627
C           -4.73816570032957       -4.62091817736703        0.12888018208150
C           -4.09558569455926       -5.35609938310443        1.10851411082512
C           -2.84254189059165       -4.97712019079408        1.58760026573032
C           -2.19111229098177       -3.86376330452976        1.09409106438121
C           -2.82271910872402       -3.13087905062192        0.09738922539411
N           -3.55423786965932        0.07761955500542        0.59321250379688
C           -5.86033395998389       -1.33708567459456        1.30895728507403
C           -7.01312407611125       -2.09109157807095        1.40356495891777
H           -9.12892419525339       -2.14665965623490        1.07869765061665
H           -9.24100899290315        0.16337919743655        0.22897721633790
H           -7.17128960896200        1.51965092456129        0.06605190471479
H           -5.72507197280018        4.29548130337242        0.77159693722083
H           -5.76534624217898        6.77262906988101        0.76341266487334
H           -3.67435744099287        8.03353095166713        0.42458435163594
H           -1.54776155080801        6.83093444864852        0.09220661766030
H           -1.51865495506136        4.35326011938373        0.09631988029640
H           -0.00365121316734        1.77939828926337        0.46453880745014
H            5.70435289806841        4.32940540172043        0.73078974162495
H            5.73145630934981        6.80667956279009        0.70794333252657
H            3.63358704090400        8.05440602285713        0.36301459867085
H            1.51320564187951        6.83860947840473        0.03917135905602
H            1.49721607529937        4.36081320534703        0.05847218414212
H            4.92454444010556       -1.70730233853659        1.59850953576867
H            6.98788149106146       -3.05693295690797        1.76007530122651
H            9.14534503590864       -2.09303569049194        1.04255615546786
H            9.24079967276418        0.21441923939753        0.18383663337342
H            7.16292106395991        1.55876265955649        0.02568723708350
H            2.54724092838392        0.13753632539659       -2.41906242729752
H            4.56700846948942        0.49355425767157       -3.79296799942084
H            6.49713339568292       -1.00178944912674       -3.61074234331820
H            6.45333434151115       -2.94323619647564       -2.08063825160572
H            5.73825820893421       -4.87892465290081       -0.23958982643366
H            4.60880468608549       -6.20390761351864        1.51840102328009
H            2.41048841551552       -5.54293375221036        2.36820185997264
H            1.25110465507778       -3.55088538041520        1.47981051118914
H            0.00604970747398       -2.99338798435259       -0.78298511306681
H           -2.55678830700556        0.13131654506684       -2.40413567638466
H           -4.58305564874296        0.48146716953508       -3.76982748738327
H           -6.50489224179463       -1.02432291226119       -3.58588172367593
H           -6.44572384920473       -2.97069020997611       -2.06253657140195
H           -5.71404009133341       -4.90919837648482       -0.23141106319124
H           -4.57156039331889       -6.23486735459641        1.51764861812202
H           -2.37389976040012       -5.56538414016978        2.36250755110491
H           -1.22814825185436       -3.56394850817165        1.47784826698392
H           -4.90773555685978       -1.73988142066368        1.61624433609466
H           -6.96284698198702       -3.10138051319976        1.78244221071448

 projected vibrational frequencies (cm⁻¹)
eigval :       -0.00    -0.00     0.00     0.00     0.00     0.00
eigval :        4.87    11.07    12.50    16.76    20.69    21.81
eigval :       25.75    26.18    27.41    29.63    32.15    45.09
eigval :       48.72    51.64    52.29    58.70    71.22    72.34
eigval :       81.60    81.64    95.19   103.23   104.06   107.98
eigval :      121.77   123.02   126.93   136.60   141.66   149.33
eigval :      161.56   166.62   187.41   190.38   195.34   196.81
eigval :      215.36   216.86   228.46   232.58   246.78   247.89
eigval :      257.02   262.87   272.73   273.56   288.88   322.35
eigval :      342.16   352.02   365.36   366.32   367.27   371.34
eigval :      372.16   374.35   382.13   394.16   394.56   401.50
eigval :      407.95   417.90   419.38   420.63   421.89   428.99
eigval :      429.46   435.79   447.04   473.17   481.49   502.94
eigval :      516.63   517.00   535.74   536.85   538.13   538.31
eigval :      540.47   568.20   573.77   583.83   585.29   585.55
eigval :      586.36   587.49   588.11   589.79   591.29   597.58
eigval :      603.34   605.21   618.54   619.60   633.24   638.45
eigval :      647.75   653.62   658.71   668.24   671.92   672.39
eigval :      672.57   674.45   677.12   689.63   707.37   707.93
eigval :      728.21   729.12   738.42   755.40   758.06   764.60
eigval :      766.89   768.76   769.36   769.65   771.05   775.22
eigval :      776.93   778.76   807.56   825.15   848.88   862.48
eigval :      865.23   868.08   868.55   872.75   875.56   878.11
eigval :      878.70   879.67   894.30   896.72   897.53   899.78
eigval :      900.40   900.70   903.79   904.58   905.06   906.79
eigval :      909.69   909.77   917.63   919.34   919.45   920.11
eigval :      924.39   926.33   929.10   930.07   930.11   930.48
eigval :      931.13   934.88   934.92   963.14   977.96   985.93
eigval :      986.16  1008.57  1010.99  1011.08  1032.20  1047.36
eigval :     1063.49  1065.90  1066.60  1070.21  1070.86  1074.22
eigval :     1075.75  1076.85  1077.52  1096.20  1107.66  1108.08
eigval :     1110.77  1112.52  1112.91  1140.58  1141.87  1143.40
eigval :     1144.16  1145.76  1158.93  1165.21  1176.31  1176.74
eigval :     1178.02  1178.37  1178.93  1179.22  1179.61  1180.64
eigval :     1180.79  1181.84  1191.79  1194.18  1198.84  1202.03
eigval :     1204.14  1217.08  1228.07  1231.41  1231.97  1240.88
eigval :     1253.42  1254.01  1267.80  1269.57  1270.58  1270.73
eigval :     1283.46  1287.28  1291.98  1294.29  1313.24  1313.68
eigval :     1328.34  1329.64  1330.39  1330.73  1342.96  1345.57
eigval :     1345.98  1349.78  1352.59  1361.81  1362.06  1381.22
eigval :     1381.86  1395.66  1399.35  1413.61  1415.59  1424.57
eigval :     1427.26  1432.03  1435.73  1435.87  1437.98  1442.17
eigval :     1458.17  1462.07  1464.77  1466.32  1470.89  1471.95
eigval :     1476.07  1478.69  1484.74  1485.13  1489.79  1523.33
eigval :     1567.70  1568.00  1576.90  1577.24  1581.75  1582.47
eigval :     1583.85  1584.01  1584.18  1584.31  1587.19  1590.82
eigval :     1594.33  1595.18  1603.12  1603.81  3072.32  3072.87
eigval :     3073.03  3073.04  3076.83  3077.76  3078.12  3078.23
eigval :     3078.65  3078.67  3078.97  3080.05  3080.08  3082.79
eigval :     3082.98  3084.64  3085.41  3088.07  3088.19  3088.25
eigval :     3088.84  3089.53  3089.83  3092.08  3093.10  3096.61
eigval :     3096.94  3097.09  3098.64  3100.75  3100.76  3102.58
eigval :     3102.66  3103.55  3103.70  3106.78  3108.02  3112.93

   temp. (K)  partition function   enthalpy   heat capacity  entropy
                                   cal/mol     cal/K/mol   cal/K/mol   J/K/mol
 298.15  VIB  0.829E+27            32208.619    197.515    203.691
         ROT  0.177E+09              888.752      2.981     40.721
         INT  0.147E+36            33097.371    200.496    244.412
         TR   0.249E+29             1481.254      4.968     46.149
         TOT                       34578.6250   205.4639   290.5610  1215.7073

       T/K    H(0)-H(T)+PV         H(T)/Eh          T*S/Eh         G(T)/Eh
   ------------------------------------------------------------------------
    298.15    0.551045E-01    0.848159E+00    0.138055E+00    0.710104E+00
   ------------------------------------------------------------------------

         :::::::::::::::::::::::::::::::::::::::::::::::::::::
         ::                  THERMODYNAMIC                  ::
         :::::::::::::::::::::::::::::::::::::::::::::::::::::
         :: total free energy        -170.584098108029 Eh   ::
         ::.................................................::
         :: total energy             -171.294201901815 Eh   ::
         :: zero point energy           0.793054161546 Eh   ::
         :: G(RRHO) w/o ZPVE           -0.082950367759 Eh   ::
         :: G(RRHO) contrib.            0.710103793786 Eh   ::
         :::::::::::::::::::::::::::::::::::::::::::::::::::::

           -------------------------------------------------
          | TOTAL ENERGY             -171.294201901815 Eh   |
          | TOTAL ENTHALPY           -170.446043193786 Eh   |
          | TOTAL FREE ENERGY        -170.584098108029 Eh   |
          | GRADIENT NORM               0.000096534231 Eh/α |
           -------------------------------------------------

 * finished run on 2025/08/25 at 01:50:28.882
