   * xtb version 6.7.1 (edcfbbe) compiled by 'albert@albert-system' on 2024-07-22

   ID    Z sym.   atoms
    1    6 C      1-5, 7-13, 15-19, 21-27, 29-35, 37, 39-52, 54-65, 67, 68
    2    7 N      6, 14, 20, 28, 36, 38, 53, 66
    3    1 H      69-106

          program call               : xtb data2507/gas/m2Cz2Trz/m2Cz2Trz.xyz --gfn 2 --ohess vtight --parallel 40 --molden --ceasefiles --namespace data2507/gas/m2Cz2Trz/m2Cz2Trz_gas_S0_preOpt
          :  Hamiltonian                  GFN2-xTB          :
 * total energy  :  -171.3296351 Eh     change       -0.4567283E-08 Eh
 * total energy  :  -171.3483402 Eh     change       -0.1870507E-01 Eh
 * total energy  :  -171.3544105 Eh     change       -0.6070305E-02 Eh
 * total energy  :  -171.3567085 Eh     change       -0.2298051E-02 Eh
 * total energy  :  -171.3580798 Eh     change       -0.1371243E-02 Eh
 * total energy  :  -171.3586441 Eh     change       -0.5643197E-03 Eh
 * total energy  :  -171.3589977 Eh     change       -0.3536347E-03 Eh
 * total energy  :  -171.3593179 Eh     change       -0.3202097E-03 Eh
 * total energy  :  -171.3596264 Eh     change       -0.3084845E-03 Eh
 * total energy  :  -171.3599133 Eh     change       -0.2868813E-03 Eh
 * total energy  :  -171.3640943 Eh     change       -0.6054027E-06 Eh
 * total energy  :  -171.3640949 Eh     change       -0.5551556E-06 Eh
 * total energy  :  -171.3640954 Eh     change       -0.5279450E-06 Eh
 * total energy  :  -171.3640959 Eh     change       -0.5236926E-06 Eh
 * total energy  :  -171.3640965 Eh     change       -0.5442706E-06 Eh
 * total energy  :  -171.3640971 Eh     change       -0.6064854E-06 Eh
 * total energy  :  -171.3640978 Eh     change       -0.6616079E-06 Eh
 * total energy  :  -171.3640985 Eh     change       -0.7335031E-06 Eh
 * total energy  :  -171.3640985 Eh     change       -0.5787882E-08 Eh
   *** GEOMETRY OPTIMIZATION CONVERGED AFTER 122 ITERATIONS ***

 final structure:
================
106
 xtb: 6.7.1 (edcfbbe)
C           -8.12170259737308       -1.73987761518648        1.39437423018410
C           -8.24099820749691       -0.41337725174488        1.00921648890849
C           -7.11245771317608        0.36833782713513        0.85702274515143
C           -5.85302348225166       -0.17966872365893        1.08587801764477
C           -4.65152668055738        0.61914809798392        0.85947405144188
N           -4.76523865225184        1.93739383384238        0.74238886410016
C           -3.63363208538672        2.60074471621645        0.52014019037705
C           -3.67750956691430        4.06158251415412        0.49429470496453
C           -4.87049222366119        4.73286850946626        0.75470893689547
C           -4.90443214262063        6.11359916175593        0.73222165488415
C           -3.75307911662982        6.83334929843912        0.45203090268655
C           -2.56380247070198        6.16944439486115        0.19321248392327
C           -2.52220439865330        4.78919173416371        0.21289608766624
N           -2.46177643065241        2.01241599897097        0.29100801945853
C           -2.45705369626629        0.68804082619390        0.37058224825973
C           -1.21130832575464       -0.00620563330610        0.03097025282496
C           -0.00350544463354        0.63450487981533        0.26441254934687
C            1.21141968674550        0.00710225787764        0.03176313271331
C            2.44920176229051        0.71487339279905        0.37257868926328
N            2.43943192807583        2.03926410695621        0.29373431934892
C            3.60460346953636        2.64030285871366        0.52397378061085
C            3.63240462643767        4.10155314447450        0.49901710067963
C            4.81848568278229        4.78574475971755        0.75736154446597
C            4.83717740635067        6.16678150322215        0.73585340654720
C            3.67733926977441        6.87402518776740        0.45882885373890
C            2.49487844337645        6.19725910641023        0.20210055136818
C            2.46855289909733        4.81661696504007        0.22068736189405
N            4.74327201435471        1.98930321733089        0.74669860213917
C            4.64391835956383        0.66984675042299        0.86323308429730
C            5.85384657696662       -0.11586817932147        1.09057978756521
C            5.75218406608668       -1.44888273409672        1.48207865522762
C            6.89312609662198       -2.21073931183845        1.63744337866604
C            8.13907762418605       -1.65137537013401        1.40095423491991
C            8.24436276858159       -0.32324458317574        1.01733242864923
C            7.10752706949416        0.44617052276372        0.86417679681968
N            3.50342269050759       -0.00278093474529        0.73629540522134
C            1.21964930751634       -1.29345317702659       -0.50349189874706
N            2.41555861486643       -1.93656808815158       -0.82854250242237
C            3.46356858413476       -1.37518136928431       -1.53462551760875
C            3.50506716809050       -0.19105876915514       -2.25663002020099
C            4.69775952790009        0.15194288794005       -2.86296187194577
C            5.81926400631634       -0.67036249364547       -2.77755025718128
C            5.76796182040782       -1.87355615293363       -2.10345220609189
C            4.58080958038155       -2.23631644385587       -1.48214632113601
C            4.18028902170378       -3.37603598170032       -0.70491133118267
C            4.83714953821001       -4.52768421836722       -0.29448338332838
C            4.15826595910323       -5.42872488257063        0.50228279416434
C            2.84667375926606       -5.18425329769922        0.90094532421846
C            2.17370412063456       -4.04370674502647        0.50457340653411
C            2.84162192254547       -3.14711422514270       -0.31445205178642
C            0.01091283545975       -1.92900789444309       -0.76294913183753
C           -1.20488660045733       -1.30683707558898       -0.50410102383283
N           -2.39347626667603       -1.96317599881170       -0.82962167765333
C           -3.44706759827175       -1.41364268811428       -1.53669879511272
C           -3.50100774154053       -0.23037929107412       -2.25928563677773
C           -4.69694085007860        0.09923876729374       -2.86665495695618
C           -5.80941692692329       -0.73528728075550       -2.78168720844329
C           -5.74544015562995       -1.93751309680006       -2.10694656713759
C           -4.55485393803667       -2.28693001708499       -1.48456230425098
C           -4.14244854489611       -3.42177050735662       -0.70640761630525
C           -4.78694375786764       -4.58032377843437       -0.29580567055725
C           -4.09879767369872       -5.47343566341263        0.50194085616920
C           -2.79024893389638       -5.21439248809923        0.90140779556511
C           -2.12952248835378       -4.06677051854948        0.50486301623256
C           -2.80664132117269       -3.17800702583283       -0.31513882591830
N           -3.50361894439104       -0.04098902424246        0.73379504618240
C           -5.73729395935724       -1.51110912217436        1.47881006172210
C           -6.87003795671006       -2.28528438269757        1.63328336026171
H           -9.00684793646231       -2.34875718963157        1.50930648078009
H           -9.21823988610421        0.00854996919919        0.82499371561481
H           -7.18372405285241        1.39984706703875        0.54915034462746
H           -5.75446414903059        4.15465982557990        0.97365048492070
H           -5.82933611834699        6.63375370173317        0.93414414034824
H           -3.78296695899351        7.91313598832810        0.43553982170746
H           -1.66861058812850        6.73329211523050       -0.02484568308394
H           -1.60763581830380        4.25388341577938        0.01139210177686
H           -0.00912142657649        1.63276268441276        0.67261250942789
H            5.70924946381629        4.21714829309835        0.97392068514314
H            5.75674593585406        6.69693694011657        0.93612735791739
H            3.69528209254412        7.95408879815606        0.44319132974552
H            1.59301881466275        6.75137534110112       -0.01340751340923
H            1.55948310962206        4.27143578259324        0.02078910735530
H            4.77522869262813       -1.86967367852390        1.65998189329326
H            6.81025291862300       -3.24464359992310        1.93858887586622
H            9.03068592249745       -2.25061463475192        1.51660621982962
H            9.21718938047664        0.10959228135172        0.83505601068786
H            7.16793244012180        1.47871846802831        0.55747227045921
H            2.64045369171331        0.45311683506617       -2.32953933024460
H            4.76210904870147        1.07954377904495       -3.41275696705279
H            6.73702388076929       -0.36042981836167       -3.25456408480766
H            6.63221951155382       -2.51811806362003       -2.05059763606722
H            5.85989425089639       -4.70622026527072       -0.59028934839720
H            4.64971479583278       -6.33245169481373        0.83102094899083
H            2.34524267869831       -5.89890024431556        1.53687265940773
H            1.16506769549253       -3.85400879017793        0.83752211130193
H            0.01642119557350       -2.90923659329469       -1.21677065740880
H           -2.64344426893052        0.42319077477635       -2.33186147910640
H           -4.77105381566501        1.02582108846014       -3.41693851577998
H           -6.73016019708188       -0.43567179539051       -3.25954327426945
H           -6.60262954916317       -2.59147067599013       -2.05439208691114
H           -5.80745247450174       -4.77022980370021       -0.59225191493527
H           -4.58055131897781       -6.38231523090524        0.83082571916276
H           -2.28148931798789       -5.92315022191559        1.53810553678511
H           -1.12326696293023       -3.86582282980283        0.83842524703001
H           -4.75603638207494       -1.92097957717817        1.65853412886587
H           -6.77628261241803       -3.31791362796294        1.93561136288947

          :  Hamiltonian                  GFN2-xTB          :
         :: gradient norm              0.000057238829 Eh/a0 ::
         :: HOMO-LUMO gap              1.938943211776 eV    ::
         :: SCC energy              -174.496576153334 Eh    ::
         :: -> dispersion             -0.177185673345 Eh    ::
         :: repulsion energy           3.132477660795 Eh    ::

    * Orbital Energies and Occupations

         #    Occupation            Energy/Eh            Energy/eV
      -------------------------------------------------------------
         1        2.0000           -0.6849963             -18.6397
       ...           ...                  ...                  ...
       147        2.0000           -0.4077225             -11.0947
       148        2.0000           -0.4067917             -11.0694
       149        2.0000           -0.4067470             -11.0681
       150        2.0000           -0.4015474             -10.9267
       151        2.0000           -0.4013871             -10.9223
       152        2.0000           -0.3786721             -10.3042
       153        2.0000           -0.3786419             -10.3034
       154        2.0000           -0.3727213             -10.1423
       155        2.0000           -0.3725404             -10.1373
       156        2.0000           -0.3718345             -10.1181
       157        2.0000           -0.3708722             -10.0919
       158        2.0000           -0.3639673              -9.9041
       159        2.0000           -0.3623040              -9.8588 (HOMO)
       160                         -0.2910492              -7.9199 (LUMO)
       161                         -0.2855178              -7.7693
       162                         -0.2849399              -7.7536
       163                         -0.2820142              -7.6740
       164                         -0.2495768              -6.7913
       165                         -0.2476495              -6.7389
       166                         -0.2431370              -6.6161
       167                         -0.2427768              -6.6063
       168                         -0.2285957              -6.2204
       169                         -0.2285740              -6.2198
       170                         -0.2261424              -6.1536
       ...                                ...                  ...
       310                          0.7483394              20.3634
      -------------------------------------------------------------
                  HL-Gap            0.0712549 Eh            1.9389 eV

     #   Z          covCN         q      C6AA      α(0)
     1   6 C        2.921    -0.023    28.585     8.768
     2   6 C        2.919    -0.027    28.686     8.783
     3   6 C        2.924    -0.023    28.571     8.766
     4   6 C        2.986     0.001    28.004     8.681
     5   6 C        2.990     0.205    23.659     7.979
     6   7 N        1.843    -0.293    28.435     7.903
     7   6 C        2.989     0.203    23.692     7.984
     8   6 C        2.984     0.001    28.010     8.681
     9   6 C        2.923    -0.023    28.584     8.768
    10   6 C        2.918    -0.027    28.680     8.782
    11   6 C        2.920    -0.023    28.587     8.768
    12   6 C        2.918    -0.027    28.670     8.781
    13   6 C        2.924    -0.023    28.585     8.768
    14   7 N        1.846    -0.295    28.489     7.910
    15   6 C        2.991     0.210    23.552     7.961
    16   6 C        2.982    -0.015    28.369     8.737
    17   6 C        2.931    -0.020    28.514     8.757
    18   6 C        2.982    -0.015    28.369     8.737
    19   6 C        2.991     0.210    23.552     7.961
    20   7 N        1.846    -0.295    28.489     7.910
    21   6 C        2.989     0.203    23.692     7.984
    22   6 C        2.984     0.001    28.010     8.681
    23   6 C        2.923    -0.023    28.584     8.768
    24   6 C        2.918    -0.027    28.680     8.782
    25   6 C        2.920    -0.023    28.587     8.768
    26   6 C        2.918    -0.027    28.670     8.781
    27   6 C        2.924    -0.023    28.585     8.768
    28   7 N        1.843    -0.293    28.435     7.903
    29   6 C        2.990     0.205    23.659     7.979
    30   6 C        2.986     0.001    28.004     8.681
    31   6 C        2.924    -0.020    28.511     8.756
    32   6 C        2.919    -0.026    28.648     8.777
    33   6 C        2.921    -0.023    28.585     8.768
    34   6 C        2.919    -0.027    28.686     8.783
    35   6 C        2.924    -0.023    28.571     8.766
    36   7 N        1.846    -0.298    28.577     7.923
    37   6 C        2.912     0.076    26.305     8.410
    38   7 N        2.802    -0.031    21.835     6.940
    39   6 C        3.079     0.054    26.709     8.473
    40   6 C        2.910    -0.047    29.168     8.856
    41   6 C        2.924    -0.032    28.808     8.802
    42   6 C        2.921    -0.040    28.994     8.830
    43   6 C        2.913    -0.032    28.805     8.801
    44   6 C        3.068    -0.013    28.266     8.718
    45   6 C        3.070    -0.012    28.247     8.715
    46   6 C        2.913    -0.032    28.787     8.798
    47   6 C        2.920    -0.040    29.003     8.831
    48   6 C        2.924    -0.033    28.817     8.803
    49   6 C        2.910    -0.048    29.193     8.860
    50   6 C        3.076     0.052    26.765     8.482
    51   6 C        2.926    -0.057    29.422     8.895
    52   6 C        2.912     0.076    26.305     8.410
    53   7 N        2.802    -0.031    21.835     6.940
    54   6 C        3.079     0.054    26.709     8.473
    55   6 C        2.910    -0.047    29.168     8.856
    56   6 C        2.924    -0.032    28.808     8.802
    57   6 C        2.921    -0.040    28.994     8.830
    58   6 C        2.913    -0.032    28.805     8.801
    59   6 C        3.068    -0.013    28.266     8.718
    60   6 C        3.070    -0.012    28.247     8.715
    61   6 C        2.913    -0.032    28.787     8.798
    62   6 C        2.920    -0.040    29.003     8.831
    63   6 C        2.924    -0.033    28.818     8.803
    64   6 C        2.910    -0.048    29.193     8.860
    65   6 C        3.076     0.052    26.765     8.482
    66   7 N        1.846    -0.298    28.577     7.923
    67   6 C        2.924    -0.020    28.511     8.756
    68   6 C        2.919    -0.026    28.648     8.777
    69   1 H        0.926     0.037     2.484     2.465
    70   1 H        0.926     0.038     2.480     2.463
    71   1 H        0.926     0.053     2.278     2.360
    72   1 H        0.926     0.056     2.245     2.343
    73   1 H        0.926     0.037     2.485     2.465
    74   1 H        0.926     0.037     2.491     2.468
    75   1 H        0.926     0.036     2.502     2.473
    76   1 H        0.926     0.058     2.228     2.334
    77   1 H        0.926     0.078     1.995     2.209
    78   1 H        0.926     0.056     2.245     2.343
    79   1 H        0.926     0.037     2.485     2.465
    80   1 H        0.926     0.037     2.491     2.468
    81   1 H        0.926     0.036     2.502     2.473
    82   1 H        0.926     0.058     2.228     2.334
    83   1 H        0.926     0.053     2.285     2.364
    84   1 H        0.926     0.038     2.474     2.460
    85   1 H        0.926     0.037     2.484     2.465
    86   1 H        0.926     0.038     2.480     2.463
    87   1 H        0.926     0.053     2.278     2.360
    88   1 H        0.926     0.022     2.707     2.573
    89   1 H        0.926     0.030     2.585     2.514
    90   1 H        0.926     0.030     2.590     2.517
    91   1 H        0.926     0.031     2.570     2.507
    92   1 H        0.926     0.031     2.568     2.506
    93   1 H        0.926     0.029     2.600     2.522
    94   1 H        0.926     0.031     2.571     2.508
    95   1 H        0.926     0.026     2.648     2.545
    96   1 H        0.926     0.060     2.204     2.321
    97   1 H        0.926     0.022     2.707     2.573
    98   1 H        0.926     0.030     2.585     2.514
    99   1 H        0.926     0.030     2.590     2.517
   100   1 H        0.926     0.031     2.570     2.507
   101   1 H        0.926     0.031     2.568     2.506
   102   1 H        0.926     0.029     2.601     2.522
   103   1 H        0.926     0.031     2.571     2.508
   104   1 H        0.926     0.026     2.648     2.545
   105   1 H        0.926     0.053     2.285     2.364
   106   1 H        0.926     0.038     2.474     2.460

molecular dipole:
                 x           y           z       tot (Debye)
 q only:       -0.001       0.279       0.045
   full:       -0.002       0.447       0.114       1.172

 projected vibrational frequencies (cm⁻¹)
eigval :       -0.00    -0.00    -0.00     0.00     0.00     0.00
eigval :        7.07     8.12    12.26    16.77    21.36    21.54
eigval :       24.46    27.12    27.19    30.02    31.92    48.39
eigval :       50.18    50.50    53.86    59.40    67.41    69.69
eigval :       78.01    82.56    94.02   102.94   104.04   106.08
eigval :      123.05   126.48   129.02   135.55   145.60   153.27
eigval :      161.88   169.20   187.50   196.31   197.91   199.97
eigval :      205.13   215.23   227.76   232.50   254.71   258.30
eigval :      261.74   268.86   275.67   278.28   302.38   321.00
eigval :      346.10   361.82   364.82   365.59   368.50   369.92
eigval :      370.04   384.18   392.49   397.92   399.19   406.66
eigval :      417.15   418.83   421.68   424.64   432.99   433.70
eigval :      443.04   446.63   457.98   481.38   498.24   515.88
eigval :      518.85   521.52   534.68   541.18   541.49   544.05
eigval :      546.88   578.60   586.41   587.08   587.44   587.80
eigval :      588.21   595.64   611.45   612.16   618.97   620.55
eigval :      626.39   626.47   628.28   632.47   642.25   647.02
eigval :      659.62   664.82   669.65   673.51   675.42   675.76
eigval :      676.25   691.76   698.86   708.18   708.84   716.24
eigval :      747.97   752.97   755.17   757.18   764.12   766.56
eigval :      769.66   775.01   775.34   778.44   780.45   794.17
eigval :      794.38   816.71   847.12   847.57   860.99   865.61
eigval :      873.05   873.38   876.38   878.58   878.91   879.13
eigval :      882.24   895.48   897.80   899.43   900.02   902.42
eigval :      902.48   906.34   910.87   911.15   911.79   912.56
eigval :      912.70   912.74   919.69   922.34   922.37   922.53
eigval :      929.30   930.94   930.97   931.44   933.40   933.97
eigval :      935.64   935.67   973.20   978.98   990.52   990.97
eigval :     1012.43  1012.73  1037.74  1045.35  1059.37  1066.87
eigval :     1070.70  1073.01  1073.81  1074.49  1074.97  1075.65
eigval :     1077.21  1082.66  1104.46  1108.40  1110.21  1112.82
eigval :     1113.03  1114.95  1147.56  1148.90  1152.92  1166.67
eigval :     1167.03  1170.68  1171.14  1178.27  1179.21  1180.19
eigval :     1180.65  1181.07  1181.95  1182.07  1182.20  1188.76
eigval :     1190.51  1203.23  1204.57  1209.53  1210.27  1212.95
eigval :     1217.06  1232.75  1236.18  1236.97  1251.77  1268.26
eigval :     1269.84  1270.49  1271.10  1296.16  1296.57  1300.63
eigval :     1301.89  1310.62  1325.13  1328.33  1329.58  1329.84
eigval :     1332.18  1339.73  1359.86  1359.93  1361.52  1361.97
eigval :     1366.65  1373.11  1373.37  1377.08  1378.27  1396.38
eigval :     1420.43  1423.48  1428.05  1428.56  1432.19  1432.77
eigval :     1434.34  1434.56  1456.76  1468.47  1469.25  1471.04
eigval :     1475.13  1475.57  1478.04  1483.48  1488.42  1488.60
eigval :     1507.92  1507.93  1518.93  1521.13  1538.33  1572.69
eigval :     1576.17  1577.06  1583.96  1584.26  1586.49  1586.50
eigval :     1591.13  1591.69  1594.83  1595.26  1596.54  1596.63
eigval :     1599.35  1599.60  1615.05  1615.76  3072.56  3072.76
eigval :     3073.38  3073.39  3074.01  3074.47  3076.61  3076.97
eigval :     3079.92  3079.99  3080.35  3081.00  3081.28  3081.31
eigval :     3082.98  3083.65  3087.01  3087.17  3089.31  3089.37
eigval :     3089.74  3090.07  3091.33  3091.76  3093.47  3095.84
eigval :     3096.32  3097.49  3098.20  3104.80  3104.82  3106.66
eigval :     3107.36  3107.42  3107.83  3109.65  3109.69  3112.83

   temp. (K)  partition function   enthalpy   heat capacity  entropy
                                   cal/mol     cal/K/mol   cal/K/mol   J/K/mol
 298.15  VIB  0.527E+27            31829.680    194.809    201.674
         ROT  0.175E+09              888.752      2.981     40.702
         INT  0.923E+35            32718.432    197.790    242.376
         TR   0.249E+29             1481.254      4.968     46.149
         TOT                       34199.6861   202.7583   288.5250  1207.1886

       T/K    H(0)-H(T)+PV         H(T)/Eh          T*S/Eh         G(T)/Eh
   ------------------------------------------------------------------------
    298.15    0.545007E-01    0.853998E+00    0.137088E+00    0.716910E+00
   ------------------------------------------------------------------------

         :::::::::::::::::::::::::::::::::::::::::::::::::::::
         ::                  THERMODYNAMIC                  ::
         :::::::::::::::::::::::::::::::::::::::::::::::::::::
         :: total free energy        -170.647188278172 Eh   ::
         ::.................................................::
         :: total energy             -171.364098492538 Eh   ::
         :: zero point energy           0.799497085820 Eh   ::
         :: G(RRHO) w/o ZPVE           -0.082586871454 Eh   ::
         :: G(RRHO) contrib.            0.716910214366 Eh   ::
         :::::::::::::::::::::::::::::::::::::::::::::::::::::

           -------------------------------------------------
          | TOTAL ENERGY             -171.364098492538 Eh   |
          | TOTAL ENTHALPY           -170.510100737788 Eh   |
          | TOTAL FREE ENERGY        -170.647188278172 Eh   |
          | GRADIENT NORM               0.000057238920 Eh/α |
          | HOMO-LUMO GAP               1.938943273849 eV   |
           -------------------------------------------------

 * finished run on 2025/08/25 at 01:43:20.565
