   * xtb version 6.7.1 (edcfbbe) compiled by 'albert@albert-system' on 2024-07-22

   ID    Z sym.   atoms
    1    6 C      1-5, 7-13, 15-19, 21-27, 29-35, 37, 39-52, 54-65, 67, 68
    2    7 N      6, 14, 20, 28, 36, 38, 53, 66
    3    1 H      69-106

          program call               : xtb data2507/gas/m2Cz2Trz/m2Cz2Trz_gas_T1_crest.xyz --gfn 2 --spinpol --tblite --uhf 2 --ohess vtight --parallel 40 --molden --ceasefiles --namespace data2507/gas/m2Cz2Trz/m2Cz2Trz_gas_T1_finalOpt
 * total energy  :  -171.2941924 Eh     change       -0.1451098E-06 Eh
 * total energy  :  -171.2942034 Eh     change       -0.1096471E-04 Eh
 * total energy  :  -171.2942079 Eh     change       -0.4489501E-05 Eh
 * total energy  :  -171.2942096 Eh     change       -0.1706429E-05 Eh
 * total energy  :  -171.2942108 Eh     change       -0.1269664E-05 Eh
 * total energy  :  -171.2942125 Eh     change       -0.1643819E-05 Eh
 * total energy  :  -171.2942141 Eh     change       -0.1659007E-05 Eh
 * total energy  :  -171.2942157 Eh     change       -0.1575619E-05 Eh
 * total energy  :  -171.2942169 Eh     change       -0.1223356E-05 Eh
 * total energy  :  -171.2942180 Eh     change       -0.1024683E-05 Eh
 * total energy  :  -171.2942192 Eh     change       -0.1274021E-05 Eh
 * total energy  :  -171.2942201 Eh     change       -0.8769659E-06 Eh
 * total energy  :  -171.2942209 Eh     change       -0.8189431E-06 Eh
 * total energy  :  -171.2942213 Eh     change       -0.3837822E-06 Eh
 * total energy  :  -171.2942218 Eh     change       -0.4585890E-06 Eh
 * total energy  :  -171.2942218 Eh     change       -0.5913893E-07 Eh
   *** GEOMETRY OPTIMIZATION CONVERGED AFTER 16 ITERATIONS ***

 final structure:
================
106
 xtb: 6.7.1 (edcfbbe)
C           -8.26261278401308       -1.46889812110487        0.89993947036328
C           -8.29752809183808       -0.18557188466273        0.37676229889144
C           -7.13941201313257        0.56343297135189        0.29997550141973
C           -5.93398682835398        0.02433418859184        0.74003097419164
C           -4.69457533634533        0.78504131469632        0.60007612936575
N           -4.75198038240362        2.10784021250538        0.49069069295851
C           -3.57492516378737        2.74607394423549        0.35456208287256
C           -3.58384902567801        4.20413094835398        0.32332772777219
C           -4.78097819677019        4.90363488189382        0.47701848492497
C           -4.78246527443132        6.28431193926253        0.45403596793319
C           -3.59614984952699        6.98021979618639        0.27901146423228
C           -2.40318913188476        6.28932650315928        0.12603463557573
C           -2.39261865428236        4.90951159110429        0.14704421804690
N           -2.41536073212260        2.12986416667236        0.22995243818140
C           -2.43598026495572        0.79329260709856        0.30201613261186
C           -1.21479986664198        0.07370710676611        0.06142429432019
C            0.00183405591076        0.73274373119471        0.16852472550091
C            1.21436248755634        0.06978660366337        0.05776867567440
C            2.43988483514126        0.79059585401624        0.28668210493047
N            2.42186319919565        2.12384021821596        0.18129757949680
C            3.58430644243420        2.73942731822530        0.29340155309328
C            3.59655634833100        4.19638579691913        0.22160552654852
C            4.79192857699209        4.89864603606723        0.37479826182802
C            4.79585213906726        6.27809598308489        0.31067388164273
C            3.61381411015630        6.96954833138210        0.09399712638849
C            2.42261405122573        6.27572245347794       -0.05892940310183
C            2.40959239899413        4.89713528219530        0.00386611366641
N            4.75780341641559        2.10199622648229        0.44849517566306
C            4.69493538502447        0.78274172190432        0.59122823021700
C            5.93110890969007        0.02074466985022        0.75125485797150
C            5.89386934742966       -1.25528172041666        1.30719342852326
C            7.05315670192603       -1.99878138694525        1.40632336981856
C            8.25303367568442       -1.47844394859009        0.94774802438304
C            8.29502643306687       -0.20536015815139        0.40060676108553
C            7.14024376960247        0.54668715773135        0.30545948349520
N            3.56134938009554        0.10738076551107        0.56660791689766
C            1.20807820453082       -1.32555444657877       -0.24196477386962
N            2.40594280536960       -2.02211376119935       -0.44604578628138
C            3.38496260815537       -1.68753732212541       -1.36083017394058
C            3.39636646522588       -0.67088512958515       -2.30523588561568
C            4.53197256598883       -0.52713369867670       -3.07965405519596
C            5.62176040321974       -1.38252328981282       -2.93677956732907
C            5.59713667976713       -2.42337552970846       -2.02735460485224
C            4.46929557576927       -2.58570694324572       -1.23724574897572
C            4.10439092167384       -3.52205138565592       -0.20904257209498
C            4.73796932413283       -4.61626242321320        0.35948689440826
C            4.09764191127080       -5.29622040469900        1.37965187391233
C            2.84597281793731       -4.89087459059966        1.84045309031615
C            2.19402798982135       -3.80549527370685        1.28876861479911
C            2.82384103369197       -3.12826882343474        0.25233910987604
C           -0.00344365303000       -1.98585053440732       -0.38050287226010
C           -1.21205189114895       -1.32080341772930       -0.24541234166253
N           -2.41224194428231       -2.00947813774558       -0.46108140098833
C           -3.38117783500651       -1.66378817283071       -1.38304255835035
C           -3.38113544825942       -0.63703555682372       -2.31639124762561
C           -4.50792940051273       -0.48394181259446       -3.10188877567455
C           -5.59984385186937       -1.33986838167068       -2.98049483003747
C           -5.58621610557842       -2.39045641285052       -2.08208450263440
C           -4.46735843947089       -2.56228453047984       -1.28124062254341
C           -4.11395978212338       -3.51089147286635       -0.26023388827121
C           -4.75405952406910       -4.61149443098904        0.28823768070415
C           -4.12489631249221       -5.30415941915469        1.30680810612690
C           -2.87793391100863       -4.90523447602427        1.78575431967320
C           -2.21954044721131       -3.81378022723545        1.25416173888988
C           -2.83789376475134       -3.12365954295797        0.21921705193386
N           -3.56340194025793        0.10845675829419        0.56217693429227
C           -5.90393684012921       -1.26192375931212        1.27223094060200
C           -7.06651115128278       -2.00251128182500        1.35306830397370
H           -9.17037974738260       -2.05198187828791        0.95733618736985
H           -9.23188758645227        0.22886287490875        0.02726344387461
H           -7.14553983625040        1.56197609041570       -0.10920138188618
H           -5.69455366367990        4.34678726915765        0.61646858908162
H           -5.71080672082180        6.82374300325884        0.57406741528402
H           -3.60106979623573        8.06036423538509        0.26255607716797
H           -1.47977618386689        6.83345630184780       -0.00902914260716
H           -1.47450003238794        4.35608318565373        0.02852480073995
H            0.00364962497869        1.78492408346550        0.40492884897155
H            5.70209589137383        4.34513910016069        0.54613748053867
H            5.72274668627071        6.82004812707971        0.43040495375051
H            3.62079099064423        8.04868448325933        0.04451844675349
H            1.50282474652505        6.81635358040308       -0.22842513617035
H            1.49316009513362        4.34097794887641       -0.11503150082613
H            4.95297760745032       -1.64531599927079        1.66321044597424
H            7.01984849937385       -2.98789416102920        1.83908433060196
H            9.15821424412121       -2.06399496448027        1.01933759724252
H            9.23230573404628        0.19858939449834        0.04666289419942
H            7.15173495322173        1.53720205765008       -0.12265121274737
H            2.55370745861731       -0.00518995909292       -2.42005485126092
H            4.57540917487604        0.26673265921983       -3.81059992840389
H            6.49525154423677       -1.23067897760668       -3.55295855693527
H            6.43890245815283       -3.09141209863791       -1.92609477994597
H            5.71253205802787       -4.92481352730218        0.01266109915961
H            4.57423630738790       -6.15158940239171        1.83504651749053
H            2.37894601661359       -5.43586306473472        2.64733187758431
H            1.23203708847750       -3.48449442035941        1.65765531514027
H           -0.00503281126758       -3.03399888549485       -0.64612462965975
H           -2.53670701291954        0.02897618563289       -2.41471624106793
H           -4.54246115696301        0.31772081527853       -3.82474230011341
H           -6.46615045273735       -1.18079572556678       -3.60493700703599
H           -6.42942787199710       -3.05900921184479       -1.99772809916252
H           -5.72499012861817       -4.91528986062585       -0.07267344351038
H           -4.60672448204662       -6.16468129921339        1.74670957979946
H           -2.41979495353806       -5.46028512526239        2.59084845708044
H           -1.26126345676158       -3.49811398546486        1.63699957839667
H           -4.96617437568087       -1.66211453457267        1.62524448019241
H           -7.03871442606404       -2.99957986999659        1.76757223955292

 projected vibrational frequencies (cm⁻¹)
eigval :       -0.00    -0.00    -0.00    -0.00     0.00     0.00
eigval :        4.23    11.14    12.35    17.15    20.58    22.07
eigval :       25.35    26.22    27.46    30.01    31.57    45.18
eigval :       48.50    51.40    52.32    58.30    71.54    72.66
eigval :       81.22    82.01    95.39   103.09   103.89   107.78
eigval :      122.01   122.49   126.93   136.50   141.48   148.94
eigval :      161.92   166.03   188.58   190.34   194.82   196.41
eigval :      215.13   217.26   228.39   232.44   246.77   248.06
eigval :      256.97   262.68   272.52   273.42   289.18   322.42
eigval :      342.87   350.98   365.10   366.10   366.88   371.28
eigval :      372.07   373.82   381.54   394.01   394.38   401.53
eigval :      407.68   418.39   419.42   420.79   422.19   428.80
eigval :      429.07   435.53   447.33   472.69   482.23   503.03
eigval :      516.55   516.85   535.74   536.88   538.16   538.52
eigval :      540.92   567.82   573.99   583.63   585.30   585.66
eigval :      586.63   587.68   588.15   589.91   591.45   597.86
eigval :      603.71   605.25   618.45   619.85   633.79   638.59
eigval :      647.75   653.68   658.63   668.07   671.87   672.30
eigval :      672.35   674.22   677.14   689.46   707.36   707.91
eigval :      726.59   730.49   738.15   755.24   758.11   764.57
eigval :      766.56   768.52   768.94   769.29   771.08   774.99
eigval :      776.71   778.91   807.82   825.01   849.74   862.42
eigval :      865.12   867.83   868.27   872.20   875.15   877.71
eigval :      878.45   879.34   893.76   896.49   897.40   899.60
eigval :      900.13   900.52   903.57   904.39   904.59   906.47
eigval :      909.23   909.46   917.46   919.09   919.18   919.86
eigval :      923.68   925.72   928.72   929.73   929.82   930.09
eigval :      930.75   934.57   934.61   963.24   978.01   985.39
eigval :      986.26  1008.21  1010.78  1010.80  1033.06  1045.22
eigval :     1063.01  1065.94  1066.08  1069.68  1070.41  1074.02
eigval :     1075.54  1076.20  1077.42  1096.73  1107.10  1107.88
eigval :     1110.53  1112.21  1112.45  1139.31  1140.32  1142.55
eigval :     1144.33  1150.28  1159.02  1165.15  1175.96  1176.40
eigval :     1177.26  1177.83  1178.80  1179.09  1179.50  1180.25
eigval :     1180.94  1182.06  1191.69  1195.17  1198.11  1202.03
eigval :     1206.15  1217.67  1227.72  1231.10  1231.67  1240.86
eigval :     1252.80  1255.17  1267.44  1269.38  1270.47  1270.61
eigval :     1283.43  1287.37  1291.80  1294.11  1313.21  1314.07
eigval :     1328.28  1329.44  1330.37  1330.70  1343.10  1345.00
eigval :     1347.17  1349.85  1353.37  1361.58  1361.66  1381.06
eigval :     1382.21  1395.46  1399.98  1413.48  1415.62  1424.52
eigval :     1427.67  1432.08  1435.60  1435.70  1437.91  1442.30
eigval :     1458.08  1462.47  1464.62  1466.13  1470.88  1472.30
eigval :     1476.28  1478.80  1484.52  1484.81  1490.80  1523.60
eigval :     1567.54  1567.86  1576.71  1577.41  1581.66  1582.32
eigval :     1583.89  1584.00  1584.22  1584.34  1587.24  1590.87
eigval :     1594.42  1595.26  1601.67  1603.68  3072.14  3072.66
eigval :     3072.79  3072.87  3076.46  3077.59  3077.77  3078.04
eigval :     3078.36  3078.41  3078.75  3079.78  3079.82  3082.47
eigval :     3082.74  3084.28  3085.00  3087.87  3087.93  3087.96
eigval :     3088.41  3089.20  3089.52  3091.65  3092.54  3096.73
eigval :     3097.06  3097.35  3098.18  3100.12  3100.30  3101.99
eigval :     3102.18  3103.04  3103.27  3106.90  3107.87  3113.21

   temp. (K)  partition function   enthalpy   heat capacity  entropy
                                   cal/mol     cal/K/mol   cal/K/mol   J/K/mol
 298.15  VIB  0.959E+27            32214.329    197.527    203.848
         ROT  0.177E+09              888.752      2.981     40.721
         INT  0.170E+36            33103.082    200.508    244.569
         TR   0.249E+29             1481.254      4.968     46.149
         TOT                       34584.3357   205.4765   290.7181  1216.3644

       T/K    H(0)-H(T)+PV         H(T)/Eh          T*S/Eh         G(T)/Eh
   ------------------------------------------------------------------------
    298.15    0.551136E-01    0.848098E+00    0.138130E+00    0.709968E+00
   ------------------------------------------------------------------------

         :::::::::::::::::::::::::::::::::::::::::::::::::::::
         ::                  THERMODYNAMIC                  ::
         :::::::::::::::::::::::::::::::::::::::::::::::::::::
         :: total free energy        -170.584253349734 Eh   ::
         ::.................................................::
         :: total energy             -171.294221785660 Eh   ::
         :: zero point energy           0.792984324801 Eh   ::
         :: G(RRHO) w/o ZPVE           -0.083015888876 Eh   ::
         :: G(RRHO) contrib.            0.709968435926 Eh   ::
         :::::::::::::::::::::::::::::::::::::::::::::::::::::

           -------------------------------------------------
          | TOTAL ENERGY             -171.294221785660 Eh   |
          | TOTAL ENTHALPY           -170.446123813810 Eh   |
          | TOTAL FREE ENERGY        -170.584253349734 Eh   |
          | GRADIENT NORM               0.000197514941 Eh/α |
           -------------------------------------------------

 * finished run on 2025/08/25 at 02:02:34.172
