   * xtb version 6.7.1 (edcfbbe) compiled by 'albert@albert-system' on 2024-07-22

   ID    Z sym.   atoms
    1    6 C      1, 3-11, 13-16, 18, 20, 22, 24-27, 29-34, 36-41
    2    8 O      2, 12, 28, 35
    3    7 N      17, 19, 21, 23, 42
    4    1 H      43-67

          program call               : xtb data2507/toluene/MeOCzPCN/MeOCzPCN_toluene_T1_crest.xyz --gfn 2 --uhf 2 --gbsa toluene --ohess vtight --parallel 40 --molden --ceasefiles --namespace data2507/toluene/MeOCzPCN/MeOCzPCN_toluene_T1_finalOpt
      * Solvation model:               GBSA
        Solvent                        toluene
        Solvent mass                       9.2140E+01 g/mol
          :  Hamiltonian                  GFN2-xTB          :
 * total energy  :  -114.3215299 Eh     change       -0.3396522E-08 Eh
 * total energy  :  -114.3216715 Eh     change       -0.1415308E-03 Eh
 * total energy  :  -114.3217233 Eh     change       -0.5180061E-04 Eh
 * total energy  :  -114.3217340 Eh     change       -0.1070723E-04 Eh
 * total energy  :  -114.3217429 Eh     change       -0.8964157E-05 Eh
 * total energy  :  -114.3217498 Eh     change       -0.6814784E-05 Eh
 * total energy  :  -114.3217539 Eh     change       -0.4167581E-05 Eh
 * total energy  :  -114.3217577 Eh     change       -0.3728401E-05 Eh
 * total energy  :  -114.3217614 Eh     change       -0.3765730E-05 Eh
 * total energy  :  -114.3217654 Eh     change       -0.3935924E-05 Eh
 * total energy  :  -114.3218104 Eh     change       -0.1794301E-06 Eh
 * total energy  :  -114.3218106 Eh     change       -0.2261115E-06 Eh
 * total energy  :  -114.3218108 Eh     change       -0.2071053E-06 Eh
 * total energy  :  -114.3218110 Eh     change       -0.1517627E-06 Eh
 * total energy  :  -114.3218111 Eh     change       -0.1177153E-06 Eh
 * total energy  :  -114.3218111 Eh     change        0.2717258E-09 Eh
 * total energy  :  -114.3218111 Eh     change        0.1429470E-08 Eh
 * total energy  :  -114.3218111 Eh     change        0.8551396E-08 Eh
 * total energy  :  -114.3218111 Eh     change       -0.2819704E-08 Eh
   *** GEOMETRY OPTIMIZATION CONVERGED AFTER 47 ITERATIONS ***

 final structure:
================
67
 xtb: 6.7.1 (edcfbbe)
C            5.65736979215647       -4.78731639890074        0.64400399726393
O            4.35889994465354       -4.56749035268980        0.12934194140313
C            3.92181938486827       -3.29542408879859       -0.02938212373131
C            2.62113665155261       -3.17233169741254       -0.55253441500487
C            2.03894208276587       -1.94416905298948       -0.76083768005473
C            2.76154769948778       -0.80439299388649       -0.42623432867032
C            4.08961766092950       -0.91678811683379        0.05059549437941
C            4.66982756740519       -2.15750338570247        0.26122428216501
C            4.58935052737580        0.42617168353082        0.18464889468688
C            5.80073533962014        0.95152750955864        0.58905851196564
C            5.96886861800101        2.34040949691363        0.59309247854964
O            7.18780622728867        2.77460778313359        0.99821844194878
C            7.45302297670691        4.16212901251530        1.03444220366641
C            4.91886005116718        3.17998556565087        0.19864178518319
C            3.70223072346225        2.66242524414829       -0.20633850640420
C            3.53873314900533        1.28668982478030       -0.22051360980501
N            2.43141076349278        0.52951892783447       -0.55981324448196
C            1.19718277926159        1.05038031397055       -0.92534136558771
N            1.18601749757067        2.10984906154405       -1.68829033529862
C            0.00706439339612        2.64217105952019       -2.02770399558151
N           -1.18411031068930        2.13738946484415       -1.68945161208664
C           -1.22252285320689        1.07986227452282       -0.92464277271427
N           -2.46968428619816        0.59301565095195       -0.55699754539822
C           -3.55890179822889        1.38004277243521       -0.23066122811942
C           -3.68976206330731        2.76421958568750       -0.23705512708783
C           -4.89170273548541        3.30202072767345        0.16126646608935
C           -5.96771546063626        2.49114453552737        0.57101093015934
O           -7.08672434887193        3.16253531461114        0.93371628443466
C           -8.21715086940190        2.43078418338967        1.36400669192067
C           -5.83662988288599        1.10445956768922        0.58619159189964
C           -4.62875561356500        0.55441497941009        0.18588759209930
C           -4.16436461979280       -0.80343299557829        0.07556964251483
C           -4.75974054771548       -2.02704088960190        0.30562138868362
C           -4.03473675102783       -3.19411058381856        0.04263530102707
O           -4.68442504902030       -4.35366277640139        0.30591692148174
C           -4.02355444690279       -5.58344286758989        0.08561236220104
C           -2.73856253850314       -3.11325701981244       -0.48108045712195
C           -2.13765459331264       -1.89095420044035       -0.71466305574673
C           -2.83065920913084       -0.73203374101543       -0.40275828566757
C           -0.01993426573383        0.46116396155913       -0.39521308988518
C           -0.02583571549066       -0.33346972244934        0.71950420901019
N           -0.02755464130753       -1.01967975967584        1.66231394916012
H            6.42202248088673       -4.36812303148210       -0.01596274026273
H            5.76324149741045       -4.36540862388427        1.64720613489327
H            5.77060033240522       -5.86894423645220        0.69035178592217
H            2.09083420397319       -4.07945269976982       -0.79384956234456
H            1.05053214759918       -1.87657782353567       -1.18529027261870
H            5.67881763905380       -2.21716680443353        0.63310735025095
H            6.61938670006107        0.32411313845134        0.90144818221304
H            8.48175862331000        4.25036376915696        1.37954854441456
H            6.78836015707320        4.67637825968354        1.73431461895654
H            7.36157713601933        4.61125707449564        0.04154915902924
H            5.04567799636688        4.24988744510597        0.20470924189083
H            2.90129727340812        3.31319544948109       -0.51866447494371
H            0.01723126991617        3.51342358477146       -2.66072281429796
H           -2.87463666554308        3.39179281180570       -0.55888533954861
H           -5.04066783348602        4.36993620703212        0.16892691553437
H           -8.58635986916471        1.77042847290276        0.57442814293783
H           -7.99353022319339        1.84552553519643        2.26034521454045
H           -8.97420109431100        3.17750423608988        1.59678663708469
H           -6.63937179049495        0.45783819871218        0.89827851132581
H           -5.76773255966584       -2.11001170067484        0.67776061199452
H           -3.78049239645045       -5.72004980740087       -0.97197151418047
H           -3.11281417909274       -5.65863354923765        0.68612917684055
H           -4.73001303631695       -6.35069791805564        0.39759983890728
H           -2.18787339850391       -4.00842077968175       -0.71755538654279
H           -1.14823173651364       -1.85512634897758       -1.14105136693472

          :  Hamiltonian                  GFN2-xTB          :
         :: gradient norm              0.000076866026 Eh/a0 ::
         :: HOMO-LUMO gap              0.256573689439 eV    ::
         :: SCC energy              -116.070717581886 Eh    ::
         :: -> dispersion             -0.089986036143 Eh    ::
         :: -> Gsolv                  -0.058793475032 Eh    ::
         :: repulsion energy           1.748906473418 Eh    ::

    * Orbital Energies and Occupations

         #    Occupation            Energy/Eh            Energy/eV
      -------------------------------------------------------------
         1        2.0000           -0.7293241             -19.8459
       ...           ...                  ...                  ...
        92        2.0000           -0.4326321             -11.7725
        93        2.0000           -0.4299560             -11.6997
        94        2.0000           -0.4209338             -11.4542
        95        2.0000           -0.4091868             -11.1345
        96        2.0000           -0.4091357             -11.1331
        97        2.0000           -0.4057337             -11.0406
        98        2.0000           -0.3965860             -10.7917
        99        2.0000           -0.3891661             -10.5897
       100        2.0000           -0.3888922             -10.5823
       101        1.9999           -0.3772568             -10.2657
       102        1.7623           -0.3698526             -10.0642
       103        1.2378           -0.3676392             -10.0040
       104        0.9930           -0.2775085              -7.5514 (HOMO)
       105        0.0069           -0.2680794              -7.2948 (LUMO)
       106        0.0000           -0.2633865              -7.1671
       107                         -0.2544515              -6.9240
       108                         -0.2347440              -6.3877
       109                         -0.2345377              -6.3821
       110                         -0.2090242              -5.6878
       111                         -0.2037402              -5.5441
       112                         -0.2022244              -5.5028
       113                         -0.2007379              -5.4624
       114                         -0.1882995              -5.1239
       115                         -0.1713928              -4.6638
       ...                                ...                  ...
       193                          1.1589004              31.5353
      -------------------------------------------------------------
                  HL-Gap            0.0094291 Eh            0.2566 eV

     #   Z          covCN         q      C6AA      α(0)
     1   6 C        3.643     0.025    20.498     6.509
     2   8 O        1.705    -0.261    18.319     5.779
     3   6 C        2.865     0.145    24.837     8.169
     4   6 C        2.923    -0.055    29.375     8.888
     5   6 C        2.909    -0.036    28.892     8.814
     6   6 C        3.070     0.044    26.947     8.512
     7   6 C        3.064    -0.011    28.219     8.711
     8   6 C        2.909    -0.067    29.667     8.931
     9   6 C        3.061    -0.010    28.214     8.710
    10   6 C        2.912    -0.054    29.353     8.884
    11   6 C        2.862     0.144    24.854     8.172
    12   8 O        1.705    -0.261    18.324     5.780
    13   6 C        3.641     0.026    20.491     6.509
    14   6 C        2.919    -0.068    29.700     8.937
    15   6 C        2.909    -0.039    28.981     8.827
    16   6 C        3.072     0.046    26.889     8.502
    17   7 N        2.803    -0.034    21.894     6.949
    18   6 C        2.903     0.159    24.567     8.127
    19   7 N        1.839    -0.295    28.495     7.911
    20   6 C        2.891     0.102    25.745     8.319
    21   7 N        1.839    -0.295    28.483     7.909
    22   6 C        2.902     0.159    24.570     8.128
    23   7 N        2.803    -0.033    21.879     6.947
    24   6 C        3.074     0.047    26.864     8.498
    25   6 C        2.908    -0.038    28.953     8.823
    26   6 C        2.923    -0.056    29.384     8.889
    27   6 C        2.864     0.146    24.830     8.168
    28   8 O        1.705    -0.260    18.306     5.777
    29   6 C        3.642     0.025    20.498     6.509
    30   6 C        2.909    -0.067    29.661     8.930
    31   6 C        3.063    -0.011    28.225     8.712
    32   6 C        3.062    -0.010    28.196     8.708
    33   6 C        2.912    -0.054    29.351     8.884
    34   6 C        2.863     0.145    24.844     8.170
    35   8 O        1.705    -0.259    18.296     5.775
    36   6 C        3.642     0.026    20.493     6.509
    37   6 C        2.919    -0.067    29.676     8.933
    38   6 C        2.910    -0.036    28.902     8.815
    39   6 C        3.068     0.043    26.976     8.516
    40   6 C        2.954    -0.063    29.575     8.920
    41   6 C        1.903     0.088    28.904     8.683
    42   7 N        0.911    -0.390    30.097     7.934
    43   1 H        0.924     0.058     2.221     2.331
    44   1 H        0.924     0.057     2.229     2.335
    45   1 H        0.925     0.077     2.005     2.214
    46   1 H        0.926     0.061     2.187     2.313
    47   1 H        0.926     0.032     2.562     2.503
    48   1 H        0.926     0.065     2.146     2.291
    49   1 H        0.926     0.065     2.136     2.286
    50   1 H        0.925     0.077     2.012     2.218
    51   1 H        0.924     0.056     2.250     2.346
    52   1 H        0.924     0.057     2.239     2.340
    53   1 H        0.926     0.059     2.209     2.324
    54   1 H        0.926     0.055     2.263     2.352
    55   1 H        0.926     0.021     2.715     2.577
    56   1 H        0.926     0.057     2.232     2.337
    57   1 H        0.926     0.063     2.169     2.303
    58   1 H        0.924     0.058     2.224     2.332
    59   1 H        0.924     0.057     2.232     2.336
    60   1 H        0.925     0.077     2.011     2.217
    61   1 H        0.926     0.064     2.155     2.296
    62   1 H        0.926     0.067     2.116     2.275
    63   1 H        0.924     0.057     2.240     2.340
    64   1 H        0.924     0.056     2.245     2.343
    65   1 H        0.925     0.078     1.999     2.211
    66   1 H        0.926     0.058     2.221     2.330
    67   1 H        0.926     0.031     2.576     2.510

molecular dipole:
                 x           y           z       tot (Debye)
 q only:        0.384      -0.858       0.280
   full:        0.496      -0.721       0.060       2.230

 projected vibrational frequencies (cm⁻¹)
eigval :       -0.00    -0.00     0.00     0.00     0.00     0.00
eigval :       12.29    16.14    21.11    35.56    52.66    54.13
eigval :       64.13    67.12    74.03    76.57    92.49   100.99
eigval :      105.12   108.99   115.71   119.86   130.98   137.05
eigval :      150.34   174.11   181.08   201.02   206.53   210.40
eigval :      214.65   222.10   228.22   234.10   247.51   249.80
eigval :      255.25   258.68   269.22   280.03   298.74   334.17
eigval :      338.14   339.25   366.52   376.54   382.72   391.94
eigval :      393.65   400.35   404.05   416.57   418.46   422.92
eigval :      435.51   466.59   469.80   479.78   501.10   510.79
eigval :      516.89   535.28   545.39   558.61   568.78   579.66
eigval :      581.57   588.73   609.00   609.91   610.44   625.09
eigval :      638.93   646.96   671.68   672.15   688.35   698.12
eigval :      699.46   703.08   721.56   751.65   773.31   783.83
eigval :      786.06   796.45   804.92   808.42   814.27   839.13
eigval :      845.70   849.84   855.61   883.81   888.68   896.20
eigval :      900.42   910.65   914.42   917.23   925.61   934.92
eigval :      953.04  1016.24  1020.92  1028.89  1045.46  1046.10
eigval :     1047.35  1050.38  1109.23  1111.42  1112.00  1112.36
eigval :     1113.08  1123.39  1125.59  1130.79  1144.83  1146.39
eigval :     1149.21  1152.53  1155.50  1169.82  1174.25  1182.23
eigval :     1182.86  1188.29  1194.05  1225.27  1231.40  1235.97
eigval :     1238.71  1252.06  1265.68  1269.66  1280.86  1294.70
eigval :     1320.25  1325.94  1345.46  1345.81  1359.17  1361.87
eigval :     1365.10  1391.10  1391.16  1391.48  1392.01  1412.49
eigval :     1413.58  1415.91  1426.60  1445.13  1447.26  1455.75
eigval :     1458.24  1458.56  1458.99  1459.62  1460.15  1466.20
eigval :     1468.62  1469.53  1470.42  1475.81  1486.13  1543.58
eigval :     1547.84  1555.60  1562.49  1564.56  1566.38  1578.27
eigval :     1594.83  2206.00  2945.10  2945.77  2946.36  2946.38
eigval :     2955.21  2956.31  2956.59  2956.72  3027.96  3028.96
eigval :     3029.76  3029.87  3098.59  3099.24  3101.29  3104.99
eigval :     3105.84  3114.31  3114.52  3114.92  3115.23  3120.22
eigval :     3121.25  3121.46  3121.89

   temp. (K)  partition function   enthalpy   heat capacity  entropy
                                   cal/mol     cal/K/mol   cal/K/mol   J/K/mol
 298.15  VIB  0.514E+16            21464.194    132.572    133.501
         ROT  0.621E+08              888.752      2.981     38.640
         INT  0.319E+24            22352.947    135.553    172.141
         TR   0.127E+29             1481.254      4.968     44.809
         TOT                       23834.2006   140.5210   216.9506   907.7213

       T/K    H(0)-H(T)+PV         H(T)/Eh          T*S/Eh         G(T)/Eh
   ------------------------------------------------------------------------
    298.15    0.379822E-01    0.533218E+00    0.103080E+00    0.430138E+00
   ------------------------------------------------------------------------

         :::::::::::::::::::::::::::::::::::::::::::::::::::::
         ::                  THERMODYNAMIC                  ::
         :::::::::::::::::::::::::::::::::::::::::::::::::::::
         :: total free energy        -113.891673207022 Eh   ::
         ::.................................................::
         :: total energy             -114.321811109530 Eh   ::
         :: zero point energy           0.495235915504 Eh   ::
         :: G(RRHO) w/o ZPVE           -0.065098012996 Eh   ::
         :: G(RRHO) contrib.            0.430137902508 Eh   ::
         :::::::::::::::::::::::::::::::::::::::::::::::::::::

           -------------------------------------------------
          | TOTAL ENERGY             -114.321811109530 Eh   |
          | TOTAL ENTHALPY           -113.788592977715 Eh   |
          | TOTAL FREE ENERGY        -113.891673207022 Eh   |
          | GRADIENT NORM               0.000077610872 Eh/α |
          | HOMO-LUMO GAP               0.256577938841 eV   |
           -------------------------------------------------

 * finished run on 2025/09/10 at 21:33:57.718
