   * xtb version 6.7.1 (edcfbbe) compiled by 'albert@albert-system' on 2024-07-22

   ID    Z sym.   atoms
    1    6 C      1, 3-11, 13-16, 18, 20, 22, 24-27, 29-34, 36-41
    2    8 O      2, 12, 28, 35
    3    7 N      17, 19, 21, 23, 42
    4    1 H      43-67

          program call               : xtb data2507/toluene/MeOCzPCN/MeOCzPCN.xyz --gfn 2 --gbsa toluene --ohess vtight --parallel 40 --molden --ceasefiles --namespace data2507/toluene/MeOCzPCN/MeOCzPCN_toluene_S0_preOpt
      * Solvation model:               GBSA
        Solvent                        toluene
        Solvent mass                       9.2140E+01 g/mol
          :  Hamiltonian                  GFN2-xTB          :
 * total energy  :  -114.3772737 Eh     change       -0.2503356E-08 Eh
 * total energy  :  -114.3951294 Eh     change       -0.1785572E-01 Eh
 * total energy  :  -114.4001028 Eh     change       -0.4973349E-02 Eh
 * total energy  :  -114.4011904 Eh     change       -0.1087594E-02 Eh
 * total energy  :  -114.4020401 Eh     change       -0.8497190E-03 Eh
 * total energy  :  -114.4023529 Eh     change       -0.3128017E-03 Eh
 * total energy  :  -114.4026009 Eh     change       -0.2479964E-03 Eh
 * total energy  :  -114.4028081 Eh     change       -0.2071720E-03 Eh
 * total energy  :  -114.4029444 Eh     change       -0.1363075E-03 Eh
 * total energy  :  -114.4030203 Eh     change       -0.7588688E-04 Eh
 * total energy  :  -114.4033736 Eh     change       -0.8096631E-06 Eh
 * total energy  :  -114.4033743 Eh     change       -0.6919227E-06 Eh
 * total energy  :  -114.4033749 Eh     change       -0.6180475E-06 Eh
 * total energy  :  -114.4033755 Eh     change       -0.5791201E-06 Eh
 * total energy  :  -114.4033761 Eh     change       -0.5704240E-06 Eh
 * total energy  :  -114.4033767 Eh     change       -0.5870361E-06 Eh
 * total energy  :  -114.4033773 Eh     change       -0.6341585E-06 Eh
 * total energy  :  -114.4033780 Eh     change       -0.7015780E-06 Eh
 * total energy  :  -114.4033780 Eh     change       -0.5060855E-08 Eh
   *** GEOMETRY OPTIMIZATION CONVERGED AFTER 68 ITERATIONS ***

 final structure:
================
67
 xtb: 6.7.1 (edcfbbe)
C            5.76358627345499       -4.76850893280827       -0.65730920877829
O            4.46137551764830       -4.59439930148148       -0.13643134095904
C            3.99572320076265       -3.32951388056444        0.04276671330157
C            2.69687839627244       -3.23958349035094        0.56504491801320
C            2.08644957062718       -2.02388566157783        0.78719606708170
C            2.78089655274083       -0.86862154170861        0.46361076799195
C            4.10800667011701       -0.94796868498217        0.00274320110537
C            4.71820585747163       -2.17393280725429       -0.22312464098709
C            4.60045899037220        0.40345232309661       -0.08787960320250
C            5.81299148362360        0.93523694488091       -0.48626673148722
C            5.98766014935160        2.31782847541140       -0.45022554910611
O            7.20908473334771        2.76508981730461       -0.85447343469928
C            7.46342586041863        4.15440323715712       -0.85720847092688
C            4.94556281336108        3.14403398253378       -0.02108405640484
C            3.72679133552472        2.61855603643959        0.37634662011539
C            3.55852022533942        1.24809159553483        0.34698431501491
N            2.43046630730668        0.47240864620304        0.64038476517136
C            1.20195370177416        0.97131906113403        0.96807460398815
N            1.17691774691105        2.08820099388738        1.70030896538279
C           -0.00000137888947        2.59280919700415        1.99759438508640
N           -1.17692013061439        2.08820196637277        1.70030529884642
C           -1.20195464007482        0.97131967809185        0.96807124420023
N           -2.43046700638939        0.47240965209522        0.64037972156476
C           -2.78089761035328       -0.86862071258732        0.46360880314817
C           -2.08645257117059       -2.02388425268285        0.78720003337268
C           -2.69687879332909       -3.23958256437131        0.56504319910687
C           -3.99571887024939       -3.32951317466218        0.04275338906330
O           -4.46137091586200       -4.59439882853398       -0.13644331735975
C           -5.76358082872325       -4.76850959084513       -0.65732293316674
C           -4.71820206552244       -2.17393248943570       -0.22313823730740
C           -4.10800525779667       -0.94796804771601        0.00273366917592
C           -4.60045948715405        0.40345257358665       -0.08788608238044
C           -5.81299219099405        0.93523661315785       -0.48627311562040
C           -5.98766122117819        2.31782815659243       -0.45023278179184
O           -7.20908602379172        2.76508890939677       -0.85448065661677
C           -7.46343043154696        4.15440169240771       -0.85720768577760
C           -4.94556342118685        3.14403415894658       -0.02109343185157
C           -3.72679138495222        2.61855686306971        0.37633615809587
C           -3.55852026702016        1.24809240220053        0.34697575065154
C            0.00000036127625        0.38104100437558        0.50976441483529
C            0.00000380526541       -0.53424540443846       -0.55033826843748
N           -0.00000371016542       -1.18559727726323       -1.49814017480630
H            5.85832202236251       -4.31885334608780       -1.64979203879367
H            6.51931135193327       -4.34791056421907        0.01250862218940
H            5.90366735174344       -5.84547740368228       -0.73139197856092
H            2.18254722096092       -4.15819923586350        0.79761506045888
H            1.10034119933605       -1.99557626357004        1.22276488862501
H            5.73371054301074       -2.20217572959717       -0.58013533720076
H            6.62298664859820        0.31080173830262       -0.82562464124132
H            8.48626181951660        4.25953188469143       -1.21508485617589
H            7.38495372165959        4.57697253318128        0.14872308238676
H            6.78538081135377        4.68309366337861       -1.53363105452959
H            5.07431675970147        4.21344345134795        0.00969573235305
H            2.93529712958731        3.26838313629336        0.71193162073002
H           -0.00000177516751        3.51350932370752        2.56725027588267
H           -1.10034232385666       -1.99557495315668        1.22276426667059
H           -2.18254628947773       -4.15819808440476        0.79761062247797
H           -6.51930794783058       -4.34791437524294        0.01249481671597
H           -5.85831607856455       -4.31885161844000       -1.64980455358900
H           -5.90365970335661       -5.84547812632269       -0.73140946550352
H           -5.73370806597637       -2.20217588966984       -0.58014501378826
H           -6.62298552819432        0.31080159077290       -0.82563614622265
H           -7.38495336681151        4.57696649041877        0.14872538371652
H           -6.78539111780190        4.68309719118641       -1.53363213631902
H           -8.48626891225084        4.25952887563359       -1.21507702933417
H           -5.07431823689478        4.21344361718053        0.00968721560849
H           -2.93529957958352        3.26838375652592        0.71192738080363

          :  Hamiltonian                  GFN2-xTB          :
         :: gradient norm              0.000059449611 Eh/a0 ::
         :: HOMO-LUMO gap              1.952335359117 eV    ::
         :: SCC energy              -116.170839972486 Eh    ::
         :: -> dispersion             -0.090316927834 Eh    ::
         :: -> Gsolv                  -0.052583662096 Eh    ::
         :: repulsion energy           1.767461963904 Eh    ::

    * Orbital Energies and Occupations

         #    Occupation            Energy/Eh            Energy/eV
      -------------------------------------------------------------
         1        2.0000           -0.7229685             -19.6730
       ...           ...                  ...                  ...
        91        2.0000           -0.4374816             -11.9045
        92        2.0000           -0.4331834             -11.7875
        93        2.0000           -0.4318973             -11.7525
        94        2.0000           -0.4290124             -11.6740
        95        2.0000           -0.4282052             -11.6521
        96        2.0000           -0.4218324             -11.4786
        97        2.0000           -0.4053941             -11.0313
        98        2.0000           -0.4053769             -11.0309
        99        2.0000           -0.3988033             -10.8520
       100        2.0000           -0.3876442             -10.5483
       101        2.0000           -0.3875360             -10.5454
       102        2.0000           -0.3747624             -10.1978
       103        2.0000           -0.3720760             -10.1247 (HOMO)
       104                         -0.3003289              -8.1724 (LUMO)
       105                         -0.2857266              -7.7750
       106                         -0.2622086              -7.1351
       107                         -0.2606180              -7.0918
       108                         -0.2318165              -6.3080
       109                         -0.2317760              -6.3069
       110                         -0.2270592              -6.1786
       111                         -0.2148106              -5.8453
       112                         -0.2018252              -5.4919
       113                         -0.1995416              -5.4298
       114                         -0.1981646              -5.3923
       ...                                ...                  ...
       193                          1.1436706              31.1209
      -------------------------------------------------------------
                  HL-Gap            0.0717470 Eh            1.9523 eV

     #   Z          covCN         q      C6AA      α(0)
     1   6 C        3.643     0.029    20.435     6.499
     2   8 O        1.705    -0.277    18.588     5.821
     3   6 C        2.865     0.141    24.929     8.184
     4   6 C        2.924    -0.056    29.382     8.889
     5   6 C        2.911    -0.043    29.076     8.842
     6   6 C        3.055     0.037    27.120     8.540
     7   6 C        3.063    -0.010    28.200     8.708
     8   6 C        2.911    -0.071    29.761     8.946
     9   6 C        3.061    -0.009    28.186     8.706
    10   6 C        2.914    -0.059    29.478     8.903
    11   6 C        2.862     0.139    24.963     8.190
    12   8 O        1.705    -0.279    18.628     5.827
    13   6 C        3.641     0.030    20.423     6.498
    14   6 C        2.922    -0.068    29.692     8.936
    15   6 C        2.911    -0.047    29.167     8.856
    16   6 C        3.057     0.042    26.996     8.521
    17   7 N        2.800    -0.051    22.226     7.002
    18   6 C        2.915     0.181    24.131     8.055
    19   7 N        1.843    -0.292    28.427     7.902
    20   6 C        2.902     0.160    24.535     8.122
    21   7 N        1.843    -0.292    28.427     7.902
    22   6 C        2.915     0.181    24.131     8.055
    23   7 N        2.800    -0.051    22.226     7.002
    24   6 C        3.055     0.037    27.120     8.540
    25   6 C        2.911    -0.043    29.076     8.842
    26   6 C        2.924    -0.056    29.382     8.889
    27   6 C        2.865     0.141    24.929     8.184
    28   8 O        1.705    -0.277    18.588     5.821
    29   6 C        3.643     0.029    20.435     6.499
    30   6 C        2.911    -0.071    29.761     8.946
    31   6 C        3.063    -0.010    28.200     8.708
    32   6 C        3.061    -0.009    28.186     8.706
    33   6 C        2.914    -0.059    29.478     8.903
    34   6 C        2.862     0.139    24.963     8.190
    35   8 O        1.705    -0.279    18.628     5.827
    36   6 C        3.641     0.030    20.423     6.498
    37   6 C        2.922    -0.068    29.692     8.936
    38   6 C        2.911    -0.047    29.167     8.856
    39   6 C        3.057     0.042    26.996     8.521
    40   6 C        2.962    -0.039    28.979     8.830
    41   6 C        1.907     0.118    28.210     8.578
    42   7 N        0.911    -0.285    27.350     7.564
    43   1 H        0.924     0.052     2.291     2.367
    44   1 H        0.924     0.053     2.288     2.366
    45   1 H        0.925     0.073     2.050     2.239
    46   1 H        0.926     0.058     2.220     2.330
    47   1 H        0.926     0.024     2.680     2.560
    48   1 H        0.926     0.061     2.191     2.315
    49   1 H        0.926     0.060     2.200     2.320
    50   1 H        0.925     0.072     2.064     2.247
    51   1 H        0.924     0.051     2.311     2.377
    52   1 H        0.924     0.050     2.322     2.383
    53   1 H        0.926     0.056     2.250     2.346
    54   1 H        0.926     0.052     2.292     2.367
    55   1 H        0.925     0.051     2.303     2.373
    56   1 H        0.926     0.024     2.680     2.560
    57   1 H        0.926     0.058     2.220     2.330
    58   1 H        0.924     0.053     2.288     2.366
    59   1 H        0.924     0.052     2.291     2.367
    60   1 H        0.925     0.073     2.050     2.239
    61   1 H        0.926     0.061     2.191     2.315
    62   1 H        0.926     0.060     2.200     2.320
    63   1 H        0.924     0.051     2.311     2.377
    64   1 H        0.924     0.050     2.322     2.383
    65   1 H        0.925     0.072     2.064     2.247
    66   1 H        0.926     0.056     2.250     2.346
    67   1 H        0.926     0.052     2.292     2.367

molecular dipole:
                 x           y           z       tot (Debye)
 q only:        0.000       0.965      -0.206
   full:        0.000       1.377       0.050       3.501

 projected vibrational frequencies (cm⁻¹)
eigval :       -0.00    -0.00     0.00     0.00     0.00     0.00
eigval :       14.62    17.34    21.60    34.92    54.40    56.07
eigval :       65.06    70.74    78.38    80.02    94.45   104.98
eigval :      106.95   109.10   109.43   117.59   133.57   146.66
eigval :      161.79   180.36   180.86   206.21   208.82   208.86
eigval :      219.09   220.19   222.88   238.25   240.42   252.04
eigval :      254.86   262.51   268.88   286.77   303.69   341.65
eigval :      350.95   352.14   375.16   384.70   388.70   396.04
eigval :      397.29   406.16   414.94   423.14   428.17   437.26
eigval :      447.53   471.17   476.39   504.40   520.03   530.78
eigval :      537.33   549.60   552.77   556.63   573.81   584.07
eigval :      594.08   601.64   611.41   611.56   621.74   642.05
eigval :      649.17   670.21   670.29   690.15   701.31   701.48
eigval :      717.08   725.28   758.65   783.14   793.92   796.44
eigval :      801.28   804.55   804.81   821.66   835.46   845.21
eigval :      856.40   856.50   892.70   892.91   893.36   896.01
eigval :      904.78   915.05   919.80   921.01   932.23   944.46
eigval :     1024.11  1024.86  1040.27  1050.70  1051.19  1052.36
eigval :     1056.18  1113.95  1113.98  1117.01  1117.03  1120.83
eigval :     1132.47  1136.44  1140.35  1149.02  1151.03  1157.41
eigval :     1161.34  1171.05  1172.20  1181.34  1181.56  1191.85
eigval :     1200.42  1201.99  1229.09  1237.61  1242.84  1245.41
eigval :     1256.53  1283.91  1284.28  1290.83  1295.30  1319.43
eigval :     1347.83  1351.80  1357.13  1361.81  1362.63  1392.76
eigval :     1392.86  1393.59  1393.61  1410.28  1413.73  1414.08
eigval :     1424.12  1426.50  1459.96  1460.56  1461.29  1461.32
eigval :     1461.44  1461.45  1471.05  1472.20  1472.31  1475.15
eigval :     1475.43  1480.65  1483.82  1485.96  1527.48  1572.00
eigval :     1572.41  1581.90  1582.79  1603.23  1603.65  1614.99
eigval :     1615.09  2334.39  2939.14  2939.16  2941.23  2941.24
eigval :     2950.18  2950.22  2952.97  2953.01  3025.87  3025.88
eigval :     3027.46  3027.48  3054.71  3090.61  3092.72  3109.50
eigval :     3109.56  3113.67  3113.76  3115.11  3115.11  3120.39
eigval :     3120.43  3123.50  3123.53

   temp. (K)  partition function   enthalpy   heat capacity  entropy
                                   cal/mol     cal/K/mol   cal/K/mol   J/K/mol
 298.15  VIB  0.220E+16            21124.442    130.725    131.162
         ROT  0.628E+08              888.752      2.981     38.663
         INT  0.138E+24            22013.194    133.706    169.825
         TR   0.127E+29             1481.254      4.968     44.809
         TOT                       23494.4478   138.6744   214.6344   898.0303

       T/K    H(0)-H(T)+PV         H(T)/Eh          T*S/Eh         G(T)/Eh
   ------------------------------------------------------------------------
    298.15    0.374408E-01    0.537309E+00    0.101980E+00    0.435329E+00
   ------------------------------------------------------------------------

         :::::::::::::::::::::::::::::::::::::::::::::::::::::
         ::                  THERMODYNAMIC                  ::
         :::::::::::::::::::::::::::::::::::::::::::::::::::::
         :: total free energy        -113.968048801741 Eh   ::
         ::.................................................::
         :: total energy             -114.403378007339 Eh   ::
         :: zero point energy           0.499868147947 Eh   ::
         :: G(RRHO) w/o ZPVE           -0.064538942349 Eh   ::
         :: G(RRHO) contrib.            0.435329205598 Eh   ::
         :::::::::::::::::::::::::::::::::::::::::::::::::::::

           -------------------------------------------------
          | TOTAL ENERGY             -114.403378007339 Eh   |
          | TOTAL ENTHALPY           -113.866069073621 Eh   |
          | TOTAL FREE ENERGY        -113.968048801741 Eh   |
          | GRADIENT NORM               0.000059455791 Eh/α |
          | HOMO-LUMO GAP               1.952335679402 eV   |
           -------------------------------------------------

 * finished run on 2025/09/10 at 21:23:34.930
