   * xtb version 6.7.1 (edcfbbe) compiled by 'albert@albert-system' on 2024-07-22

   ID    Z sym.   atoms
    1    6 C      1, 3-11, 13-16, 18, 20, 22, 24-27, 29-34, 36-41
    2    8 O      2, 12, 28, 35
    3    7 N      17, 19, 21, 23, 42
    4    1 H      43-67

          program call               : xtb data2507/toluene/MeOCzPCN/MeOCzPCN_toluene_S0_crest.xyz --gfn 2 --gbsa toluene --ohess vtight --parallel 40 --molden --ceasefiles --namespace data2507/toluene/MeOCzPCN/MeOCzPCN_toluene_S0_finalOpt
      * Solvation model:               GBSA
        Solvent                        toluene
        Solvent mass                       9.2140E+01 g/mol
          :  Hamiltonian                  GFN2-xTB          :
 * total energy  :  -114.4034257 Eh     change       -0.8924133E-09 Eh
 * total energy  :  -114.4035256 Eh     change       -0.9994737E-04 Eh
 * total energy  :  -114.4035640 Eh     change       -0.3835465E-04 Eh
 * total energy  :  -114.4035683 Eh     change       -0.4359024E-05 Eh
 * total energy  :  -114.4035714 Eh     change       -0.3062713E-05 Eh
 * total energy  :  -114.4035742 Eh     change       -0.2836557E-05 Eh
 * total energy  :  -114.4035773 Eh     change       -0.3066575E-05 Eh
 * total energy  :  -114.4035799 Eh     change       -0.2615878E-05 Eh
 * total energy  :  -114.4035826 Eh     change       -0.2678806E-05 Eh
 * total energy  :  -114.4035851 Eh     change       -0.2464025E-05 Eh
 * total energy  :  -114.4035905 Eh     change       -0.8106772E-06 Eh
 * total energy  :  -114.4035915 Eh     change       -0.1030047E-05 Eh
 * total energy  :  -114.4035926 Eh     change       -0.1124298E-05 Eh
 * total energy  :  -114.4035936 Eh     change       -0.1024293E-05 Eh
 * total energy  :  -114.4035946 Eh     change       -0.9240894E-06 Eh
 * total energy  :  -114.4035952 Eh     change       -0.6032996E-06 Eh
 * total energy  :  -114.4035957 Eh     change       -0.5477500E-06 Eh
 * total energy  :  -114.4035962 Eh     change       -0.4356972E-06 Eh
 * total energy  :  -114.4035962 Eh     change       -0.8348820E-08 Eh
   *** GEOMETRY OPTIMIZATION CONVERGED AFTER 22 ITERATIONS ***

 final structure:
================
67
 xtb: 6.7.1 (edcfbbe)
C            5.64492362411644       -4.79283094382257        0.61160242550388
O            4.34129213447301       -4.57766684782946        0.10994656005456
C            3.90100296947124       -3.29864640852832       -0.03009063048931
C            2.59851594891135       -3.16730684712240       -0.53396399778848
C            2.01167531701575       -1.93348645168092       -0.71604733371444
C            2.73341084031946       -0.80192145881281       -0.36969964040766
C            4.06433753456096       -0.92182107429217        0.07107803874984
C            4.65101848044815       -2.16591641687207        0.25661529842520
C            4.58777835332466        0.41576056365630        0.18753745483471
C            5.81923952422216        0.91009446599048        0.57588169337919
C            6.02575928237076        2.28867842586792        0.56708798419574
O            7.26569052907449        2.69781651194116        0.95479906487058
C            7.55713737953719        4.07971021458389        0.97137520600812
C            4.99473340927451        3.14833682255351        0.17855133344084
C            3.75712137628145        2.66031968594933       -0.20826953589106
C            3.55835654292292        1.29360027379962       -0.20978468219575
N            2.40954841410005        0.55037458236193       -0.50647982245176
C            1.19024428582644        1.08237561544526       -0.81755812298364
N            1.18563357223140        2.21524871459758       -1.52472955518939
C            0.01758501420976        2.74453981828133       -1.81473021672658
N           -1.16765095364445        2.24874701450891       -1.53725323855063
C           -1.21390114949323        1.11839068280098       -0.82721495896953
N           -2.45148580796535        0.62726682088992       -0.52369831432230
C           -3.57909100659583        1.40934072175292       -0.24222895159527
C           -3.73583606862572        2.78606600145664       -0.26365895343841
C           -4.95598223310296        3.30424140408578        0.11590383019200
C           -6.01829815713730        2.48113877276999        0.52061064593711
O           -7.16029549052395        3.13709016937296        0.86474331382627
C           -8.27497267735327        2.37798569244137        1.28543960518136
C           -5.85858213349158        1.10236578330165        0.55012258934446
C           -4.63304109447001        0.57392302066191        0.16650020273027
C           -4.15453781259911       -0.78247052863600        0.07683718140696
C           -4.76426330892698       -2.00509386250311        0.28437478237425
C           -4.04509952407588       -3.17178396737528        0.02848822899395
O           -4.70502420700031       -4.33557987308957        0.27471043165790
C           -4.04084072557109       -5.56153700936237        0.04677762951472
C           -2.74558785707034       -3.09206941575625       -0.47729314541079
C           -2.13121243039820       -1.86861949604858       -0.68628863661550
C           -2.81578892196534       -0.71249885885453       -0.36487996088809
C           -0.02234036876593        0.50430032108987       -0.37133941589443
C           -0.03676298075285       -0.43046219245920        0.67114307829226
N           -0.04439796227518       -1.10378552038126        1.60360898907027
H            6.40233162167594       -4.36970064184198       -0.05466694588069
H            5.75901305970153       -4.37238091630752        1.61479692464513
H            5.76334851757685       -5.87406203012897        0.65482571483055
H            2.06297507656277       -4.06856585182354       -0.78574261229007
H            1.02238748274968       -1.87173907430885       -1.14045727352955
H            5.67042051542752       -2.22471626481696        0.59845765577404
H            6.62070206628656        0.25957947056223        0.88519241601334
H            8.59134856304330        4.15234020621255        1.30377162523133
H            6.91117693564160        4.61571109873239        1.67293879584280
H            7.46399940593489        4.51945626366412       -0.02591995835655
H            5.14729062427053        4.21502668591178        0.17108969340349
H            2.97478688315950        3.33574232776981       -0.51336247667749
H            0.03360438095482        3.67836250929364       -2.36226864289242
H           -2.93410102033747        3.43280898965255       -0.57931424137260
H           -5.12312288302847        4.36962690971603        0.10789440136330
H           -8.61678906712071        1.70222585618891        0.49605204334778
H           -8.04765493805632        1.80458945865760        2.18892888243722
H           -9.05532943519108        3.10495025087023        1.50367596825915
H           -6.64791068437049        0.43895109838398        0.86066983628967
H           -5.78339217969117       -2.08010232393802        0.62611874393733
H           -3.78899967016059       -5.68823913064183       -1.01028249610045
H           -3.13511468919693       -5.64324262668098        0.65452845067512
H           -4.74892523245465       -6.33284132051370        0.34490765265797
H           -2.19628310355095       -3.98588517803628       -0.72231697778216
H           -1.14069203361345       -1.84592894861023       -1.11227489898459

          :  Hamiltonian                  GFN2-xTB          :
         :: gradient norm              0.000144536833 Eh/a0 ::
         :: HOMO-LUMO gap              1.955449976253 eV    ::
         :: SCC energy              -116.171033094785 Eh    ::
         :: -> dispersion             -0.090380812690 Eh    ::
         :: -> Gsolv                  -0.052250297450 Eh    ::
         :: repulsion energy           1.767436927846 Eh    ::

    * Orbital Energies and Occupations

         #    Occupation            Energy/Eh            Energy/eV
      -------------------------------------------------------------
         1        2.0000           -0.7239079             -19.6985
       ...           ...                  ...                  ...
        91        2.0000           -0.4375252             -11.9057
        92        2.0000           -0.4334511             -11.7948
        93        2.0000           -0.4320621             -11.7570
        94        2.0000           -0.4293029             -11.6819
        95        2.0000           -0.4284782             -11.6595
        96        2.0000           -0.4218913             -11.4802
        97        2.0000           -0.4058885             -11.0448
        98        2.0000           -0.4053339             -11.0297
        99        2.0000           -0.3986218             -10.8471
       100        2.0000           -0.3881190             -10.5613
       101        2.0000           -0.3876978             -10.5498
       102        2.0000           -0.3750493             -10.2056
       103        2.0000           -0.3723942             -10.1334 (HOMO)
       104                         -0.3005326              -8.1779 (LUMO)
       105                         -0.2857642              -7.7760
       106                         -0.2625327              -7.1439
       107                         -0.2608405              -7.0978
       108                         -0.2323209              -6.3218
       109                         -0.2319443              -6.3115
       110                         -0.2274117              -6.1882
       111                         -0.2148720              -5.8470
       112                         -0.2021229              -5.5000
       113                         -0.1997934              -5.4367
       114                         -0.1983687              -5.3979
       ...                                ...                  ...
       193                          1.1432499              31.1094
      -------------------------------------------------------------
                  HL-Gap            0.0718616 Eh            1.9555 eV

     #   Z          covCN         q      C6AA      α(0)
     1   6 C        3.643     0.029    20.435     6.499
     2   8 O        1.705    -0.277    18.590     5.821
     3   6 C        2.865     0.141    24.935     8.185
     4   6 C        2.924    -0.056    29.393     8.891
     5   6 C        2.911    -0.044    29.083     8.843
     6   6 C        3.055     0.037    27.118     8.540
     7   6 C        3.063    -0.010    28.198     8.708
     8   6 C        2.911    -0.071    29.760     8.945
     9   6 C        3.061    -0.009    28.189     8.707
    10   6 C        2.914    -0.059    29.478     8.903
    11   6 C        2.862     0.139    24.961     8.189
    12   8 O        1.705    -0.279    18.626     5.827
    13   6 C        3.641     0.030    20.423     6.498
    14   6 C        2.922    -0.068    29.688     8.935
    15   6 C        2.911    -0.047    29.162     8.855
    16   6 C        3.057     0.042    26.995     8.521
    17   7 N        2.800    -0.051    22.225     7.002
    18   6 C        2.915     0.181    24.130     8.055
    19   7 N        1.843    -0.292    28.427     7.902
    20   6 C        2.902     0.161    24.531     8.121
    21   7 N        1.843    -0.292    28.417     7.900
    22   6 C        2.914     0.181    24.133     8.056
    23   7 N        2.800    -0.051    22.216     7.000
    24   6 C        3.058     0.043    26.984     8.519
    25   6 C        2.910    -0.045    29.112     8.847
    26   6 C        2.926    -0.056    29.383     8.889
    27   6 C        2.865     0.140    24.948     8.187
    28   8 O        1.705    -0.278    18.616     5.825
    29   6 C        3.643     0.029    20.422     6.497
    30   6 C        2.911    -0.071    29.767     8.947
    31   6 C        3.063    -0.011    28.224     8.712
    32   6 C        3.061    -0.008    28.159     8.702
    33   6 C        2.914    -0.059    29.472     8.902
    34   6 C        2.863     0.140    24.940     8.186
    35   8 O        1.705    -0.276    18.573     5.819
    36   6 C        3.641     0.029    20.433     6.499
    37   6 C        2.921    -0.068    29.690     8.935
    38   6 C        2.912    -0.045    29.123     8.849
    39   6 C        3.053     0.036    27.135     8.543
    40   6 C        2.962    -0.040    28.996     8.832
    41   6 C        1.906     0.118    28.205     8.577
    42   7 N        0.911    -0.286    27.378     7.567
    43   1 H        0.924     0.052     2.290     2.366
    44   1 H        0.924     0.052     2.292     2.367
    45   1 H        0.925     0.073     2.050     2.239
    46   1 H        0.926     0.058     2.223     2.332
    47   1 H        0.926     0.023     2.682     2.561
    48   1 H        0.926     0.061     2.193     2.316
    49   1 H        0.926     0.060     2.201     2.320
    50   1 H        0.925     0.072     2.064     2.247
    51   1 H        0.924     0.050     2.322     2.383
    52   1 H        0.924     0.051     2.311     2.377
    53   1 H        0.926     0.056     2.250     2.346
    54   1 H        0.926     0.052     2.292     2.367
    55   1 H        0.925     0.051     2.302     2.373
    56   1 H        0.926     0.055     2.257     2.350
    57   1 H        0.926     0.059     2.207     2.323
    58   1 H        0.924     0.051     2.303     2.373
    59   1 H        0.924     0.051     2.309     2.376
    60   1 H        0.925     0.072     2.065     2.247
    61   1 H        0.926     0.058     2.222     2.331
    62   1 H        0.926     0.063     2.169     2.303
    63   1 H        0.924     0.051     2.313     2.378
    64   1 H        0.924     0.051     2.309     2.376
    65   1 H        0.925     0.074     2.045     2.236
    66   1 H        0.926     0.055     2.264     2.353
    67   1 H        0.926     0.022     2.708     2.573

molecular dipole:
                 x           y           z       tot (Debye)
 q only:        0.441      -0.310       0.042
   full:        0.563      -0.210      -0.233       1.639

 projected vibrational frequencies (cm⁻¹)
eigval :       -0.00    -0.00    -0.00    -0.00     0.00     0.00
eigval :       13.40    17.73    22.12    36.44    54.30    56.49
eigval :       65.06    66.19    75.62    78.15    95.36   104.71
eigval :      108.01   110.18   115.01   124.84   136.41   140.22
eigval :      156.67   175.00   179.81   201.65   207.91   212.08
eigval :      217.64   223.56   231.12   243.61   245.58   251.65
eigval :      260.00   262.84   272.66   280.71   302.24   340.85
eigval :      350.55   352.14   373.67   384.50   389.79   395.83
eigval :      399.89   407.97   414.26   423.48   426.40   438.47
eigval :      448.67   473.29   475.59   509.10   514.97   531.87
eigval :      536.06   549.83   553.19   557.38   572.10   586.48
eigval :      593.39   608.34   610.57   610.98   622.97   634.01
eigval :      649.74   669.73   670.82   691.75   700.78   701.82
eigval :      717.64   725.24   761.26   785.19   790.73   795.73
eigval :      802.12   805.21   811.49   821.01   839.71   849.81
eigval :      855.21   862.27   885.76   895.32   896.51   902.14
eigval :      909.25   912.94   919.81   924.75   931.35   944.13
eigval :     1022.95  1025.00  1041.23  1050.85  1051.29  1052.35
eigval :     1056.74  1114.67  1115.93  1116.60  1117.06  1120.21
eigval :     1133.46  1136.06  1140.45  1149.26  1150.96  1157.16
eigval :     1161.96  1169.61  1171.42  1180.39  1181.83  1192.99
eigval :     1201.22  1204.80  1230.47  1234.29  1243.52  1245.72
eigval :     1257.58  1279.74  1285.03  1291.16  1297.90  1319.52
eigval :     1344.74  1351.71  1354.62  1361.74  1369.02  1392.19
eigval :     1392.76  1393.42  1393.55  1410.21  1412.89  1414.05
eigval :     1423.68  1426.35  1459.72  1460.67  1461.82  1462.10
eigval :     1463.43  1463.55  1469.88  1472.02  1473.71  1475.56
eigval :     1475.70  1481.05  1484.41  1486.55  1526.65  1572.19
eigval :     1572.81  1581.81  1582.74  1601.94  1603.57  1615.12
eigval :     1616.24  2333.62  2939.26  2939.77  2940.64  2941.43
eigval :     2950.28  2951.17  2952.20  2952.95  3026.33  3027.19
eigval :     3027.69  3028.13  3055.65  3091.55  3094.81  3106.58
eigval :     3109.35  3113.22  3114.75  3116.11  3118.88  3120.11
eigval :     3120.66  3122.13  3123.38

   temp. (K)  partition function   enthalpy   heat capacity  entropy
                                   cal/mol     cal/K/mol   cal/K/mol   J/K/mol
 298.15  VIB  0.222E+16            21105.725    130.615    131.087
         ROT  0.620E+08              888.752      2.981     38.639
         INT  0.138E+24            21994.477    133.596    169.726
         TR   0.127E+29             1481.254      4.968     44.809
         TOT                       23475.7314   138.5641   214.5352   897.6154

       T/K    H(0)-H(T)+PV         H(T)/Eh          T*S/Eh         G(T)/Eh
   ------------------------------------------------------------------------
    298.15    0.374110E-01    0.537433E+00    0.101933E+00    0.435500E+00
   ------------------------------------------------------------------------

         :::::::::::::::::::::::::::::::::::::::::::::::::::::
         ::                  THERMODYNAMIC                  ::
         :::::::::::::::::::::::::::::::::::::::::::::::::::::
         :: total free energy        -113.968096186957 Eh   ::
         ::.................................................::
         :: total energy             -114.403596168825 Eh   ::
         :: zero point energy           0.500021638305 Eh   ::
         :: G(RRHO) w/o ZPVE           -0.064521656438 Eh   ::
         :: G(RRHO) contrib.            0.435499981867 Eh   ::
         :::::::::::::::::::::::::::::::::::::::::::::::::::::

           -------------------------------------------------
          | TOTAL ENERGY             -114.403596168825 Eh   |
          | TOTAL ENTHALPY           -113.866163571274 Eh   |
          | TOTAL FREE ENERGY        -113.968096186957 Eh   |
          | GRADIENT NORM               0.000144263011 Eh/α |
          | HOMO-LUMO GAP               1.955453509487 eV   |
           -------------------------------------------------

 * finished run on 2025/09/10 at 21:28:28.133
