   * xtb version 6.7.1 (edcfbbe) compiled by 'albert@albert-system' on 2024-07-22

   ID    Z sym.   atoms
    1    6 C      1, 3-11, 13-16, 18, 20, 22, 24-27, 29-34, 36-41
    2    8 O      2, 12, 28, 35
    3    7 N      17, 19, 21, 23, 42
    4    1 H      43-67

          program call               : xtb data2507/toluene/MeOCzPCN/MeOCzPCN_toluene_S0_finalOpt.xtbopt.xyz --gfn 2 --uhf 2 --gbsa toluene --ohess vtight --parallel 40 --molden --ceasefiles --namespace data2507/toluene/MeOCzPCN/MeOCzPCN_toluene_T1_preOpt
      * Solvation model:               GBSA
        Solvent                        toluene
        Solvent mass                       9.2140E+01 g/mol
          :  Hamiltonian                  GFN2-xTB          :
 * total energy  :  -114.3155771 Eh     change       -0.2377675E-08 Eh
 * total energy  :  -114.3190013 Eh     change       -0.3424122E-02 Eh
 * total energy  :  -114.3210880 Eh     change       -0.2086687E-02 Eh
 * total energy  :  -114.3213638 Eh     change       -0.2758904E-03 Eh
 * total energy  :  -114.3215939 Eh     change       -0.2300730E-03 Eh
 * total energy  :  -114.3216475 Eh     change       -0.5357802E-04 Eh
 * total energy  :  -114.3217254 Eh     change       -0.7792268E-04 Eh
 * total energy  :  -114.3217491 Eh     change       -0.2367520E-04 Eh
 * total energy  :  -114.3217598 Eh     change       -0.1074313E-04 Eh
 * total energy  :  -114.3217667 Eh     change       -0.6882894E-05 Eh
 * total energy  :  -114.3217967 Eh     change       -0.7208922E-06 Eh
 * total energy  :  -114.3217974 Eh     change       -0.6600167E-06 Eh
 * total energy  :  -114.3217980 Eh     change       -0.5947467E-06 Eh
 * total energy  :  -114.3217985 Eh     change       -0.4966837E-06 Eh
 * total energy  :  -114.3217989 Eh     change       -0.4801108E-06 Eh
 * total energy  :  -114.3217993 Eh     change       -0.3876822E-06 Eh
 * total energy  :  -114.3217997 Eh     change       -0.3203903E-06 Eh
 * total energy  :  -114.3218000 Eh     change       -0.3007117E-06 Eh
 * total energy  :  -114.3218000 Eh     change       -0.4271300E-08 Eh
   *** GEOMETRY OPTIMIZATION CONVERGED AFTER 44 ITERATIONS ***

 final structure:
================
67
 xtb: 6.7.1 (edcfbbe)
C            5.61332976431759       -4.81475158948633        0.63324322350592
O            4.31607180047811       -4.58161306438993        0.12144433806619
C            3.89020978369326       -3.30515665418084       -0.03242844329933
C            2.58903333414021       -3.16868774777179       -0.55089315739313
C            2.01719454907278       -1.93467939847236       -0.75299714896256
C            2.75046538796183       -0.80232717870712       -0.41660328592872
C            4.07967157996099       -0.92831671563180        0.05352612558402
C            4.64956921555092       -2.17480685820658        0.25820121263708
C            4.59252105964733        0.40955433293099        0.18820146783192
C            5.81169751109020        0.92201090436536        0.58559046396497
C            5.99391755218196        2.30907218356505        0.59056871008804
O            7.22025132276142        2.73011902094733        0.98717740062338
C            7.50089983062239        4.11464325973986        1.02073978938429
C            4.94948559624993        3.15972075590980        0.20515685119579
C            3.72497334105589        2.65504105570284       -0.19238769759967
C            3.54768855262836        1.28100891235104       -0.20854003759879
N            2.43119555700411        0.53509035441704       -0.54359250534825
C            1.19952366872102        1.06782496674653       -0.89985885432002
N            1.19282258221194        2.13516234453566       -1.65198064204378
C            0.01629387952831        2.67652722699289       -1.98521334598167
N           -1.17725769114553        2.17136317373134       -1.65620261331032
C           -1.22065465920753        1.10595007875265       -0.90263558360665
N           -2.46971051677174        0.61467198392656       -0.54810386954583
C           -3.56402188157208        1.39641528547215       -0.22551686550082
C           -3.70009610328271        2.78011977798689       -0.22590984986571
C           -4.90743389567061        3.31140883764504        0.16492114703864
C           -5.98386340506733        2.49457179702750        0.56155911150872
O           -7.10882423620379        3.15973172503174        0.91729970021092
C           -8.24021115062213        2.42104575392759        1.33303809150906
C           -5.84738125145444        1.10838508794416        0.57154727080829
C           -4.63423845002077        0.56492339109038        0.17838866993122
C           -4.16482539422597       -0.79083059511062        0.06391871316390
C           -4.75784630690361       -2.01762759427729        0.28286444787372
C           -4.02772712229099       -3.18090983102072        0.01717670376117
O           -4.67488895769894       -4.34415409060897        0.27011280737726
C           -4.00816008010876       -5.57024504358023        0.04678637011552
C           -2.72920216983610       -3.09284500040279       -0.49942594028931
C           -2.13078642397833       -1.86727449289068       -0.72159560262504
C           -2.82831644968738       -0.71239482470238       -0.40517356331667
C           -0.02074865477330        0.48099721103500       -0.37374367176540
C           -0.03175725188052       -0.31777854272235        0.73794505932758
N           -0.03843714633090       -1.00764828735594        1.67802222963359
H            6.38074258968367       -4.40150496109515       -0.02725930567296
H            5.72492277294759       -4.39582620076006        1.63708106487114
H            5.71639043162928       -5.89749475258968        0.67725451546843
H            2.04978597491836       -4.07012870064331       -0.79362117266975
H            1.02844613692491       -1.85709798521900       -1.17461686673477
H            5.65958603737074       -2.24457274422271        0.62552082980370
H            6.62618562322303        0.28585139151461        0.89111508663827
H            8.53335475535826        4.19173570913935        1.35733366040011
H            6.84766856583159        4.63634222103512        1.72583315702881
H            7.40619484481648        4.56440578948901        0.02843347998687
H            5.08696098087482        4.22830718556299        0.21222173502079
H            2.92841427277027        3.31430921697192       -0.49789743348570
H            0.03061676815072        3.55551078044785       -2.60740550147247
H           -2.88475076562212        3.41225594967142       -0.53805403079718
H           -5.06059719375051        4.37870017556633        0.17624539757788
H           -8.59808876641470        1.76204770662222        0.53712061518996
H           -8.02297088620767        1.83336697224762        2.22936921137733
H           -9.00321735298762        3.16321411012925        1.56084544799551
H           -6.65003724880329        0.45710545373004        0.87401153425024
H           -5.76782888468732       -2.10591024441268        0.64831714952448
H           -3.76014939711529       -5.70084943209535       -1.01041197011683
H           -3.09961838494707       -5.64464272185100        0.65073060453856
H           -4.71277144280214       -6.34183168047428        0.35216513305332
H           -2.17472155702713       -3.98471510740596       -0.73942838484973
H           -1.13988787210900       -1.82571627411389       -1.14375937033705

          :  Hamiltonian                  GFN2-xTB          :
         :: gradient norm              0.000040812638 Eh/a0 ::
         :: HOMO-LUMO gap              0.258241168341 eV    ::
         :: SCC energy              -116.070716879149 Eh    ::
         :: -> dispersion             -0.090027514138 Eh    ::
         :: -> Gsolv                  -0.058783444168 Eh    ::
         :: repulsion energy           1.748916923695 Eh    ::

    * Orbital Energies and Occupations

         #    Occupation            Energy/Eh            Energy/eV
      -------------------------------------------------------------
         1        2.0000           -0.7293232             -19.8459
       ...           ...                  ...                  ...
        92        2.0000           -0.4326203             -11.7722
        93        2.0000           -0.4299204             -11.6987
        94        2.0000           -0.4209338             -11.4542
        95        2.0000           -0.4091635             -11.1339
        96        2.0000           -0.4091219             -11.1328
        97        2.0000           -0.4057179             -11.0401
        98        2.0000           -0.3965846             -10.7916
        99        2.0000           -0.3891484             -10.5893
       100        2.0000           -0.3888846             -10.5821
       101        1.9999           -0.3772795             -10.2663
       102        1.7669           -0.3698769             -10.0649
       103        1.2332           -0.3676149             -10.0033
       104        0.9932           -0.2775901              -7.5536 (HOMO)
       105        0.0067           -0.2681005              -7.2954 (LUMO)
       106        0.0000           -0.2633743              -7.1668
       107                         -0.2543994              -6.9226
       108                         -0.2347202              -6.3871
       109                         -0.2345262              -6.3818
       110                         -0.2090409              -5.6883
       111                         -0.2037463              -5.5442
       112                         -0.2022125              -5.5025
       113                         -0.2007071              -5.4615
       114                         -0.1882549              -5.1227
       115                         -0.1713292              -4.6621
       ...                                ...                  ...
       193                          1.1589140              31.5357
      -------------------------------------------------------------
                  HL-Gap            0.0094896 Eh            0.2582 eV

     #   Z          covCN         q      C6AA      α(0)
     1   6 C        3.643     0.025    20.497     6.509
     2   8 O        1.705    -0.261    18.320     5.779
     3   6 C        2.865     0.145    24.837     8.169
     4   6 C        2.923    -0.055    29.376     8.888
     5   6 C        2.909    -0.036    28.893     8.814
     6   6 C        3.070     0.044    26.950     8.512
     7   6 C        3.064    -0.011    28.219     8.711
     8   6 C        2.909    -0.067    29.668     8.931
     9   6 C        3.061    -0.010    28.214     8.710
    10   6 C        2.912    -0.055    29.354     8.884
    11   6 C        2.862     0.144    24.854     8.172
    12   8 O        1.705    -0.261    18.325     5.780
    13   6 C        3.641     0.026    20.490     6.509
    14   6 C        2.919    -0.068    29.700     8.937
    15   6 C        2.909    -0.039    28.981     8.827
    16   6 C        3.072     0.046    26.891     8.503
    17   7 N        2.803    -0.034    21.892     6.949
    18   6 C        2.903     0.159    24.569     8.127
    19   7 N        1.839    -0.295    28.498     7.911
    20   6 C        2.891     0.102    25.743     8.318
    21   7 N        1.839    -0.295    28.487     7.910
    22   6 C        2.902     0.159    24.571     8.128
    23   7 N        2.803    -0.033    21.878     6.947
    24   6 C        3.073     0.047    26.866     8.498
    25   6 C        2.908    -0.038    28.953     8.823
    26   6 C        2.923    -0.056    29.384     8.889
    27   6 C        2.864     0.146    24.830     8.168
    28   8 O        1.705    -0.260    18.307     5.777
    29   6 C        3.643     0.025    20.498     6.509
    30   6 C        2.909    -0.067    29.662     8.930
    31   6 C        3.063    -0.011    28.225     8.712
    32   6 C        3.062    -0.010    28.196     8.708
    33   6 C        2.912    -0.054    29.351     8.884
    34   6 C        2.863     0.145    24.844     8.170
    35   8 O        1.705    -0.259    18.296     5.775
    36   6 C        3.642     0.026    20.493     6.509
    37   6 C        2.919    -0.067    29.676     8.933
    38   6 C        2.911    -0.036    28.904     8.816
    39   6 C        3.068     0.043    26.977     8.517
    40   6 C        2.954    -0.063    29.570     8.919
    41   6 C        1.903     0.088    28.903     8.683
    42   7 N        0.911    -0.390    30.091     7.934
    43   1 H        0.924     0.058     2.222     2.331
    44   1 H        0.924     0.057     2.230     2.335
    45   1 H        0.925     0.077     2.005     2.214
    46   1 H        0.926     0.061     2.188     2.313
    47   1 H        0.926     0.032     2.560     2.502
    48   1 H        0.926     0.065     2.146     2.291
    49   1 H        0.926     0.065     2.137     2.286
    50   1 H        0.925     0.077     2.012     2.218
    51   1 H        0.924     0.056     2.250     2.346
    52   1 H        0.924     0.057     2.239     2.340
    53   1 H        0.926     0.059     2.210     2.325
    54   1 H        0.926     0.055     2.259     2.350
    55   1 H        0.926     0.021     2.715     2.577
    56   1 H        0.926     0.057     2.230     2.335
    57   1 H        0.926     0.063     2.169     2.303
    58   1 H        0.924     0.058     2.224     2.332
    59   1 H        0.924     0.057     2.232     2.336
    60   1 H        0.925     0.077     2.011     2.218
    61   1 H        0.926     0.064     2.155     2.296
    62   1 H        0.926     0.067     2.116     2.275
    63   1 H        0.924     0.057     2.240     2.340
    64   1 H        0.924     0.056     2.245     2.343
    65   1 H        0.925     0.078     1.999     2.211
    66   1 H        0.926     0.058     2.221     2.330
    67   1 H        0.926     0.031     2.576     2.510

molecular dipole:
                 x           y           z       tot (Debye)
 q only:        0.390      -0.887       0.237
   full:        0.506      -0.747       0.019       2.293

 projected vibrational frequencies (cm⁻¹)
eigval :       -0.00     0.00     0.00     0.00     0.00     0.00
eigval :       12.09    16.45    20.75    34.69    52.85    54.01
eigval :       64.33    65.77    72.74    76.89    92.59   101.15
eigval :      105.27   109.06   115.41   119.11   129.97   135.47
eigval :      149.85   173.64   181.46   201.12   207.54   210.98
eigval :      215.15   223.11   228.47   234.67   247.44   249.85
eigval :      255.63   259.14   269.16   280.13   298.83   334.06
eigval :      338.16   339.39   366.34   376.96   382.70   391.49
eigval :      392.72   400.43   403.92   415.52   417.77   422.14
eigval :      435.40   466.90   469.77   480.53   500.97   510.70
eigval :      516.85   535.38   545.49   558.66   568.67   579.99
eigval :      581.56   588.86   608.89   609.73   610.42   625.22
eigval :      638.87   647.04   671.62   672.10   688.35   698.64
eigval :      699.46   708.46   721.84   751.63   773.10   784.14
eigval :      785.97   795.84   804.41   805.57   811.50   833.55
eigval :      842.22   844.50   852.13   883.57   888.61   894.98
eigval :      900.28   906.43   915.11   917.23   925.75   934.91
eigval :      955.04  1016.54  1020.84  1028.97  1045.37  1046.01
eigval :     1047.21  1050.16  1109.24  1111.71  1112.34  1112.43
eigval :     1113.10  1122.95  1126.02  1130.95  1145.67  1146.70
eigval :     1148.72  1152.81  1155.22  1169.49  1173.62  1181.81
eigval :     1182.62  1188.27  1193.93  1225.46  1231.02  1235.77
eigval :     1238.45  1251.89  1265.79  1269.72  1280.81  1294.95
eigval :     1320.09  1325.81  1345.39  1345.82  1359.21  1361.87
eigval :     1364.97  1390.81  1391.10  1391.40  1391.87  1412.23
eigval :     1413.55  1415.82  1426.52  1445.15  1447.28  1455.94
eigval :     1458.46  1458.57  1458.75  1459.56  1460.10  1466.50
eigval :     1468.92  1469.71  1470.58  1475.80  1486.21  1543.57
eigval :     1547.83  1555.58  1562.41  1564.62  1566.27  1578.36
eigval :     1594.91  2206.10  2945.07  2945.90  2946.34  2946.35
eigval :     2955.18  2956.22  2956.50  2956.61  3028.12  3028.83
eigval :     3029.49  3029.71  3098.60  3100.42  3102.75  3105.49
eigval :     3106.02  3113.92  3114.34  3115.16  3115.44  3120.18
eigval :     3121.23  3121.39  3122.21

   temp. (K)  partition function   enthalpy   heat capacity  entropy
                                   cal/mol     cal/K/mol   cal/K/mol   J/K/mol
 298.15  VIB  0.553E+16            21472.540    132.569    133.586
         ROT  0.620E+08              888.752      2.981     38.638
         INT  0.343E+24            22361.292    135.550    172.224
         TR   0.127E+29             1481.254      4.968     44.809
         TOT                       23842.5463   140.5181   217.0335   908.0680

       T/K    H(0)-H(T)+PV         H(T)/Eh          T*S/Eh         G(T)/Eh
   ------------------------------------------------------------------------
    298.15    0.379955E-01    0.533175E+00    0.103120E+00    0.430056E+00
   ------------------------------------------------------------------------

         :::::::::::::::::::::::::::::::::::::::::::::::::::::
         ::                  THERMODYNAMIC                  ::
         :::::::::::::::::::::::::::::::::::::::::::::::::::::
         :: total free energy        -113.891744071995 Eh   ::
         ::.................................................::
         :: total energy             -114.321799956977 Eh   ::
         :: zero point energy           0.495179972122 Eh   ::
         :: G(RRHO) w/o ZPVE           -0.065124087140 Eh   ::
         :: G(RRHO) contrib.            0.430055884982 Eh   ::
         :::::::::::::::::::::::::::::::::::::::::::::::::::::

           -------------------------------------------------
          | TOTAL ENERGY             -114.321799956977 Eh   |
          | TOTAL ENTHALPY           -113.788624468780 Eh   |
          | TOTAL FREE ENERGY        -113.891744071995 Eh   |
          | GRADIENT NORM               0.000041064731 Eh/α |
          | HOMO-LUMO GAP               0.258226318159 eV   |
           -------------------------------------------------

 * finished run on 2025/09/10 at 21:28:33.876
