   * xtb version 6.7.1 (edcfbbe) compiled by 'albert@albert-system' on 2024-07-22

   ID    Z sym.   atoms
    1    6 C      1-6, 8-13, 15-19, 21-34, 36
    2    8 O      7
    3    7 N      14, 20, 35
    4    1 H      37-55

          program call               : xtb data2507/gas/PXZ-10-DPPZ/PXZ-10-DPPZ.xyz --gfn 2 --ohess vtight --parallel 40 --molden --ceasefiles --namespace data2507/gas/PXZ-10-DPPZ/PXZ-10-DPPZ_gas_S0_preOpt
          :  Hamiltonian                  GFN2-xTB          :
 * total energy  :   -91.0802799 Eh     change       -0.2156909E-08 Eh
 * total energy  :   -91.0953136 Eh     change       -0.1503363E-01 Eh
 * total energy  :   -91.0990787 Eh     change       -0.3765095E-02 Eh
 * total energy  :   -91.0996077 Eh     change       -0.5290234E-03 Eh
 * total energy  :   -91.0999203 Eh     change       -0.3125762E-03 Eh
 * total energy  :   -91.0999920 Eh     change       -0.7171859E-04 Eh
 * total energy  :   -91.1000328 Eh     change       -0.4080262E-04 Eh
 * total energy  :   -91.1000677 Eh     change       -0.3489625E-04 Eh
 * total energy  :   -91.1000913 Eh     change       -0.2359764E-04 Eh
 * total energy  :   -91.1001582 Eh     change       -0.6691758E-04 Eh
 * total energy  :   -91.1027794 Eh     change       -0.1859599E-06 Eh
 * total energy  :   -91.1027795 Eh     change       -0.1740269E-06 Eh
 * total energy  :   -91.1027797 Eh     change       -0.2135056E-06 Eh
 * total energy  :   -91.1027801 Eh     change       -0.3406428E-06 Eh
 * total energy  :   -91.1027807 Eh     change       -0.5821517E-06 Eh
 * total energy  :   -91.1027815 Eh     change       -0.8245038E-06 Eh
 * total energy  :   -91.1027823 Eh     change       -0.8201212E-06 Eh
 * total energy  :   -91.1027829 Eh     change       -0.6151336E-06 Eh
 * total energy  :   -91.1027829 Eh     change       -0.3333540E-08 Eh
   *** GEOMETRY OPTIMIZATION CONVERGED AFTER 94 ITERATIONS ***

 final structure:
================
55
 xtb: 6.7.1 (edcfbbe)
C           -4.92988880115873       -0.02458931751600        3.44630808910480
C           -4.27441710281774       -1.23349374973565        3.33259337500881
C           -3.50613888518354       -1.51242678807277        2.21249437935048
C           -3.38273475418582       -0.58955999317414        1.18155167853628
C           -4.02470162093008        0.64895088759358        1.32390770032221
C           -4.79493050725084        0.91977589239556        2.44020725803698
O           -3.91141387615892        1.65458852325930        0.39767111174834
C           -3.18675772680208        1.38829025037115       -0.73659856468990
C           -3.10946063142668        2.39054326755717       -1.68700820922757
C           -2.42616162685542        2.17521550645808       -2.87392049961126
C           -1.85247333205223        0.94247638678426       -3.11662205397179
C           -1.92889131801198       -0.06304845250885       -2.16717644270365
C           -2.55926009475568        0.15620740920938       -0.94869795404792
N           -2.62941564752531       -0.84020271037848        0.02947310785996
C           -1.69784535057539       -1.89279806831543       -0.00905064215484
C           -2.08141841772043       -3.21177770508902       -0.00064471592701
C           -1.12585524133818       -4.24122436309594       -0.01409031665447
C            0.21282178302484       -3.96729288474332       -0.04261826381936
C            0.65059922267640       -2.62634247910122       -0.06157026389334
N            1.96153886013700       -2.34498151971968       -0.08496183616187
C            2.32902120785974       -1.07757884750422       -0.10073610194796
C            3.73739246473503       -0.74847991648354       -0.11091454847487
C            4.68075164848634       -1.77891836436521       -0.07560697303347
C            6.02719062205886       -1.49903986057943       -0.06678224990891
C            6.44806353890590       -0.17426198907258       -0.09018855812283
C            5.52810628261985        0.85085800910747       -0.12836751024555
C            4.15130509738874        0.59850107614470       -0.14392284350089
C            3.16069844736098        1.66572184877395       -0.19818452386354
C            3.51048803780508        3.01819402975260       -0.28603850799844
C            2.55155559402060        4.00608671126470       -0.34756402898352
C            1.19980959843910        3.68114803348412       -0.32660683570220
C            0.82404568324424        2.36120419917391       -0.24047922913292
C            1.78769584227515        1.35088233833581       -0.17350892536985
C            1.36224509461412       -0.02751578038761       -0.10192248210839
N            0.07180990741491       -0.29312517641082       -0.06148176753650
C           -0.31056832669400       -1.57417137603637       -0.04571341642472
H           -5.53385609454760        0.19556266537467        4.31240074543538
H           -4.35158905059146       -1.97256727181497        4.11533832026114
H           -2.98415207106593       -2.45401669927193        2.15164450054820
H           -5.27271337017978        1.88426409462542        2.50693271547436
H           -3.59084454679913        3.33268004433525       -1.47772750863915
H           -2.36035555420014        2.96501658926282       -3.60571368774225
H           -1.34279416449104        0.75236937104408       -4.04878094316348
H           -1.48743585155413       -1.02707939630881       -2.36902070313720
H           -3.13233108432657       -3.46094955234364        0.00415215739432
H           -1.46872457375703       -5.26531247304060       -0.00774663349481
H            0.95597808227788       -4.74862839276164       -0.05007749720037
H            4.31616399837191       -2.79386125776039       -0.05295993485595
H            6.75243165116657       -2.29839361363468       -0.03877633219445
H            7.50352212477246        0.05576801891344       -0.07822572939700
H            5.89300255678722        1.86536119782803       -0.14291388223526
H            4.54821115038824        3.30997926682191       -0.31256146750412
H            2.85556020512288        5.04049241679935       -0.41637238405541
H            0.45259764730265        4.45832654572202       -0.38097563383998
H           -0.21547972628178        2.07317441884244       -0.23184453643435

          :  Hamiltonian                  GFN2-xTB          :
         :: gradient norm              0.000033826578 Eh/a0 ::
         :: HOMO-LUMO gap              0.953120087253 eV    ::
         :: SCC energy               -92.724307490967 Eh    ::
         :: -> dispersion             -0.080788367315 Eh    ::
         :: repulsion energy           1.621524556716 Eh    ::

    * Orbital Energies and Occupations

         #    Occupation            Energy/Eh            Energy/eV
      -------------------------------------------------------------
         1        2.0000           -0.7228006             -19.6684
       ...           ...                  ...                  ...
        72        2.0000           -0.4251526             -11.5690
        73        2.0000           -0.4200778             -11.4309
        74        2.0000           -0.4188658             -11.3979
        75        2.0000           -0.4174408             -11.3591
        76        2.0000           -0.4122648             -11.2183
        77        2.0000           -0.4101226             -11.1600
        78        2.0000           -0.4055989             -11.0369
        79        2.0000           -0.4012690             -10.9191
        80        2.0000           -0.3935113             -10.7080
        81        2.0000           -0.3899294             -10.6105
        82        2.0000           -0.3849469             -10.4749
        83        2.0000           -0.3525281              -9.5928
        84        2.0000           -0.3370519              -9.1717 (HOMO)
        85                         -0.3020255              -8.2185 (LUMO)
        86                         -0.2664950              -7.2517
        87                         -0.2539320              -6.9098
        88                         -0.2330004              -6.3403
        89                         -0.2274107              -6.1882
        90                         -0.2242837              -6.1031
        91                         -0.2185782              -5.9478
        92                         -0.2098213              -5.7095
        93                         -0.2038435              -5.5469
        94                         -0.1965987              -5.3497
        95                         -0.1902349              -5.1766
       ...                                ...                  ...
       163                          0.7151751              19.4609
      -------------------------------------------------------------
                  HL-Gap            0.0350265 Eh            0.9531 eV

     #   Z          covCN         q      C6AA      α(0)
     1   6 C        2.919    -0.040    29.001     8.831
     2   6 C        2.919    -0.039    28.965     8.826
     3   6 C        2.924    -0.060    29.495     8.906
     4   6 C        2.922     0.044    27.006     8.522
     5   6 C        2.885     0.126    25.227     8.234
     6   6 C        2.920    -0.056    29.396     8.891
     7   8 O        1.709    -0.253    18.190     5.758
     8   6 C        2.885     0.126    25.226     8.234
     9   6 C        2.920    -0.056    29.402     8.892
    10   6 C        2.920    -0.040    28.985     8.829
    11   6 C        2.919    -0.038    28.936     8.821
    12   6 C        2.925    -0.049    29.224     8.865
    13   6 C        2.928     0.051    26.856     8.499
    14   7 N        2.750    -0.059    22.377     7.026
    15   6 C        2.921     0.055    26.770     8.485
    16   6 C        2.917    -0.046    29.133     8.851
    17   6 C        2.916    -0.029    28.728     8.789
    18   6 C        2.916    -0.046    29.143     8.852
    19   6 C        2.964     0.080    26.202     8.396
    20   7 N        1.848    -0.239    27.095     7.715
    21   6 C        2.959     0.084    26.119     8.383
    22   6 C        2.988    -0.001    28.052     8.688
    23   6 C        2.924    -0.027    28.667     8.780
    24   6 C        2.917    -0.028    28.710     8.787
    25   6 C        2.918    -0.027    28.670     8.780
    26   6 C        2.922    -0.033    28.834     8.806
    27   6 C        2.976     0.007    27.851     8.657
    28   6 C        2.976     0.007    27.860     8.658
    29   6 C        2.922    -0.034    28.838     8.806
    30   6 C        2.918    -0.027    28.664     8.780
    31   6 C        2.917    -0.027    28.688     8.783
    32   6 C        2.924    -0.025    28.622     8.773
    33   6 C        2.989    -0.001    28.048     8.688
    34   6 C        2.964     0.085    26.108     8.381
    35   7 N        1.849    -0.242    27.179     7.727
    36   6 C        2.970     0.073    26.366     8.422
    37   1 H        0.926     0.037     2.486     2.466
    38   1 H        0.926     0.035     2.516     2.481
    39   1 H        0.926     0.035     2.515     2.480
    40   1 H        0.926     0.050     2.320     2.382
    41   1 H        0.926     0.049     2.333     2.389
    42   1 H        0.926     0.036     2.496     2.471
    43   1 H        0.926     0.034     2.532     2.488
    44   1 H        0.926     0.029     2.599     2.521
    45   1 H        0.926     0.047     2.359     2.402
    46   1 H        0.926     0.043     2.411     2.428
    47   1 H        0.926     0.054     2.272     2.357
    48   1 H        0.926     0.059     2.206     2.323
    49   1 H        0.926     0.036     2.497     2.471
    50   1 H        0.926     0.035     2.518     2.481
    51   1 H        0.926     0.037     2.495     2.470
    52   1 H        0.926     0.037     2.493     2.469
    53   1 H        0.926     0.035     2.510     2.477
    54   1 H        0.926     0.038     2.480     2.463
    55   1 H        0.926     0.056     2.246     2.344

molecular dipole:
                 x           y           z       tot (Debye)
 q only:        0.535      -0.086      -0.092
   full:        0.637      -0.157      -0.081       1.681

 projected vibrational frequencies (cm⁻¹)
eigval :       -0.00    -0.00    -0.00    -0.00     0.00     0.00
eigval :       15.31    17.79    22.18    47.12    57.96    65.19
eigval :       85.29    91.25   102.93   117.89   151.01   160.18
eigval :      195.46   206.64   224.34   236.87   252.56   254.56
eigval :      282.06   302.54   307.82   329.39   347.64   386.31
eigval :      392.90   395.95   398.45   399.61   412.41   422.20
eigval :      431.02   439.69   462.06   498.51   509.44   516.04
eigval :      520.98   527.30   533.59   543.08   555.09   575.57
eigval :      579.41   585.23   596.28   612.71   633.84   661.38
eigval :      663.91   671.30   677.41   683.31   687.55   704.67
eigval :      735.14   762.59   767.32   769.32   777.64   779.71
eigval :      789.60   793.42   804.06   844.73   855.72   858.95
eigval :      863.21   867.82   869.94   879.76   892.22   897.73
eigval :      901.27   914.00   914.67   916.39   917.64   921.04
eigval :      927.63   929.12   929.75   934.12  1015.75  1050.63
eigval :     1078.49  1085.20  1088.71  1094.29  1096.72  1102.59
eigval :     1109.59  1139.16  1147.28  1151.35  1170.92  1176.03
eigval :     1180.86  1181.48  1182.16  1189.66  1202.96  1224.28
eigval :     1234.95  1243.13  1250.97  1261.54  1264.03  1281.20
eigval :     1291.47  1295.85  1309.46  1314.55  1325.05  1331.86
eigval :     1337.40  1347.06  1354.23  1367.80  1390.51  1423.54
eigval :     1426.96  1428.22  1437.05  1444.94  1462.30  1477.68
eigval :     1486.54  1489.72  1501.80  1508.80  1534.89  1555.64
eigval :     1568.54  1569.24  1579.52  1587.01  1590.29  1591.94
eigval :     1599.25  1602.41  3076.94  3077.71  3082.38  3085.15
eigval :     3087.63  3088.67  3090.75  3092.61  3092.94  3098.47
eigval :     3099.75  3100.80  3107.19  3108.16  3109.05  3109.97
eigval :     3110.04  3110.57  3111.84

   temp. (K)  partition function   enthalpy   heat capacity  entropy
                                   cal/mol     cal/K/mol   cal/K/mol   J/K/mol
 298.15  VIB  0.256E+11            14749.931     99.357     88.825
         ROT  0.253E+08              888.752      2.981     36.853
         INT  0.646E+18            15638.684    102.338    125.678
         TR   0.959E+28             1481.254      4.968     44.257
         TOT                       17119.9376   107.3062   169.9344   711.0055

       T/K    H(0)-H(T)+PV         H(T)/Eh          T*S/Eh         G(T)/Eh
   ------------------------------------------------------------------------
    298.15    0.272824E-01    0.437675E+00    0.807413E-01    0.356934E+00
   ------------------------------------------------------------------------

         :::::::::::::::::::::::::::::::::::::::::::::::::::::
         ::                  THERMODYNAMIC                  ::
         :::::::::::::::::::::::::::::::::::::::::::::::::::::
         :: total free energy         -90.745848884597 Eh   ::
         ::.................................................::
         :: total energy              -91.102782934248 Eh   ::
         :: zero point energy           0.410393005252 Eh   ::
         :: G(RRHO) w/o ZPVE           -0.053458955601 Eh   ::
         :: G(RRHO) contrib.            0.356934049651 Eh   ::
         :::::::::::::::::::::::::::::::::::::::::::::::::::::

           -------------------------------------------------
          | TOTAL ENERGY              -91.102782934248 Eh   |
          | TOTAL ENTHALPY            -90.665107571778 Eh   |
          | TOTAL FREE ENERGY         -90.745848884597 Eh   |
          | GRADIENT NORM               0.000033840606 Eh/α |
          | HOMO-LUMO GAP               0.953119461251 eV   |
           -------------------------------------------------

 * finished run on 2025/09/05 at 11:43:51.620
