   * xtb version 6.7.1 (edcfbbe) compiled by 'albert@albert-system' on 2024-07-22

   ID    Z sym.   atoms
    1    6 C      1-6, 8-13, 15-19, 21-34, 36
    2    8 O      7
    3    7 N      14, 20, 35
    4    1 H      37-55

          program call               : xtb data2507/gas/PXZ-10-DPPZ/PXZ-10-DPPZ_gas_T1_crest.xyz --gfn 2 --spinpol --tblite --uhf 2 --ohess vtight --parallel 40 --molden --ceasefiles --namespace data2507/gas/PXZ-10-DPPZ/PXZ-10-DPPZ_gas_T1_finalOpt
 * total energy  :   -91.0647043 Eh     change        0.1025155E-07 Eh
 * total energy  :   -91.0647276 Eh     change       -0.2334306E-04 Eh
 * total energy  :   -91.0647335 Eh     change       -0.5879952E-05 Eh
 * total energy  :   -91.0647348 Eh     change       -0.1293987E-05 Eh
 * total energy  :   -91.0647359 Eh     change       -0.1134722E-05 Eh
 * total energy  :   -91.0647369 Eh     change       -0.9619331E-06 Eh
 * total energy  :   -91.0647381 Eh     change       -0.1200000E-05 Eh
 * total energy  :   -91.0647393 Eh     change       -0.1182625E-05 Eh
 * total energy  :   -91.0647401 Eh     change       -0.8379609E-06 Eh
 * total energy  :   -91.0647407 Eh     change       -0.5431055E-06 Eh
 * total energy  :   -91.0647412 Eh     change       -0.5302690E-06 Eh
 * total energy  :   -91.0647419 Eh     change       -0.7311007E-06 Eh
 * total energy  :   -91.0647429 Eh     change       -0.9654409E-06 Eh
 * total energy  :   -91.0647438 Eh     change       -0.9571940E-06 Eh
 * total energy  :   -91.0647445 Eh     change       -0.6475161E-06 Eh
 * total energy  :   -91.0647448 Eh     change       -0.2770916E-06 Eh
 * total energy  :   -91.0647448 Eh     change       -0.1818736E-07 Eh
   *** GEOMETRY OPTIMIZATION CONVERGED AFTER 17 ITERATIONS ***

 final structure:
================
55
 xtb: 6.7.1 (edcfbbe)
C           -1.62895305793945        3.07577491048071        2.35734027074623
C           -1.09726220151277        1.89594623197358        2.84747682716342
C           -1.42338744197945        0.68586302883373        2.26350334973397
C           -2.27767181081977        0.63346428701476        1.16307415461110
C           -2.84876895063996        1.83151035504024        0.70658837594042
C           -2.51744583537228        3.04013176926565        1.29525828409144
O           -3.75876454992779        1.86001573092707       -0.31311387646513
C           -4.04085465286637        0.67796658107798       -0.94115624785573
C           -4.93175436758763        0.72975456616038       -2.00020291274489
C           -5.24479732829914       -0.41996197000396       -2.70519843121989
C           -4.64774790019849       -1.61766871819195       -2.35629164314334
C           -3.75902118366508       -1.67664043185256       -1.29703002725652
C           -3.45422951459022       -0.53790147394509       -0.55714597548450
N           -2.59779237879320       -0.56962319288841        0.54438214018514
C           -1.72726669444774       -1.67067290849219        0.72551695544920
C           -2.19363373593821       -2.92041405825466        1.11371786861241
C           -1.31751538562731       -3.98834182346321        1.21262811734358
C            0.02922130833368       -3.82734061893686        0.93188700891632
C            0.53610024008198       -2.58457727454121        0.55662354899198
N            1.82986922896293       -2.37334717654857        0.31136686916098
C            2.30332941632190       -1.16482592973903        0.02220388742631
C            3.69894695930697       -0.96101868517269       -0.21914045555609
C            4.57033001707542       -2.05996050458034       -0.15314528384814
C            5.91264599587141       -1.90688002227825       -0.38441746847675
C            6.41883751089372       -0.64310428569005       -0.68852644726599
C            5.58084970278049        0.44400911730018       -0.75441034141639
C            4.20238568506374        0.32555714458669       -0.52205940470404
C            3.29756974678981        1.45093154889999       -0.57654912178787
C            3.72070685538758        2.76189164576464       -0.84065574398140
C            2.83381683456898        3.81124222991842       -0.87673444223043
C            1.47449273007780        3.59547238183759       -0.64844912091846
C            1.02488144897317        2.32709305027823       -0.38999442667220
C            1.91711272867258        1.24334796867442       -0.34910056957241
C            1.41563843045854       -0.06170564534675       -0.05956952958700
N            0.11656640726391       -0.26118053448290        0.15280864896116
C           -0.36252687839074       -1.46293715968980        0.45692223517795
H           -1.36553172301479        4.02155031772643        2.80370603328096
H           -0.42175493955828        1.91292363204667        3.68845705402606
H           -1.01922502153323       -0.23147728059722        2.66114562118937
H           -2.96558358294540        3.93952495075738        0.90406972468978
H           -5.35958205491404        1.68478026145007       -2.26011927489589
H           -5.94055785928308       -0.37264500391192       -3.52786699357475
H           -4.86849511046989       -2.51696049323216       -2.91017372114994
H           -3.28774978793194       -2.61326409465059       -1.04695587505999
H           -3.23994722757163       -3.04131076057390        1.34969500769049
H           -1.68646127873162       -4.95515245605599        1.51845369935154
H            0.71816132312731       -4.65140260577509        1.02624801043086
H            4.14805276801329       -3.02494782892342        0.08231364675659
H            6.57658638977641       -2.75707562458178       -0.33395937992991
H            7.47577560455132       -0.51860024996421       -0.87389919794038
H            6.00481842249439        1.40641542622156       -0.99341967800762
H            4.76495329738831        2.96495990210362       -1.01801807969639
H            3.19168036125660        4.80971084721918       -1.08164201587260
H            0.78237985235424        4.42394832435935       -0.67491705644764
H           -0.02035553699632        2.13313743994625       -0.20446852416495

 projected vibrational frequencies (cm⁻¹)
eigval :       -0.00    -0.00    -0.00     0.00     0.00     0.00
eigval :       17.53    20.24    29.93    51.68    61.23    68.74
eigval :       85.75    99.88   106.12   118.29   150.70   162.78
eigval :      184.83   205.60   225.15   238.93   251.74   255.60
eigval :      269.55   301.63   315.34   327.11   350.31   382.92
eigval :      393.29   397.82   400.35   409.11   415.70   425.72
eigval :      435.25   442.12   468.99   500.59   505.25   512.65
eigval :      522.18   525.26   527.23   540.40   553.59   568.84
eigval :      578.00   584.97   592.42   600.55   629.58   631.34
eigval :      661.94   665.75   671.22   674.22   681.02   683.47
eigval :      703.48   725.67   760.71   765.35   775.05   779.09
eigval :      779.72   782.90   794.03   840.33   852.61   856.55
eigval :      857.97   864.47   870.66   871.27   874.08   898.02
eigval :      901.64   906.25   908.23   912.59   913.51   917.49
eigval :      917.68   918.44   921.86   922.94  1007.03  1037.66
eigval :     1076.15  1082.99  1086.66  1090.21  1099.60  1100.49
eigval :     1113.96  1136.68  1148.93  1150.97  1170.43  1175.09
eigval :     1177.38  1180.26  1181.47  1191.77  1208.95  1223.00
eigval :     1223.88  1240.62  1249.39  1256.71  1260.42  1264.39
eigval :     1282.70  1284.62  1301.81  1314.66  1318.20  1322.79
eigval :     1327.28  1345.77  1352.20  1358.87  1361.34  1392.13
eigval :     1405.83  1419.42  1419.96  1430.01  1442.84  1458.53
eigval :     1464.74  1466.22  1478.36  1488.57  1521.25  1537.28
eigval :     1539.96  1553.42  1562.57  1569.74  1581.67  1585.45
eigval :     1592.18  1594.91  3074.86  3075.48  3084.44  3085.76
eigval :     3087.62  3092.95  3093.65  3096.46  3096.96  3098.75
eigval :     3101.11  3102.53  3103.09  3106.90  3107.55  3108.51
eigval :     3113.05  3113.74  3115.39

   temp. (K)  partition function   enthalpy   heat capacity  entropy
                                   cal/mol     cal/K/mol   cal/K/mol   J/K/mol
 298.15  VIB  0.122E+11            14785.496    100.390     88.503
         ROT  0.248E+08              888.752      2.981     36.819
         INT  0.303E+18            15674.248    103.371    125.323
         TR   0.959E+28             1481.254      4.968     44.257
         TOT                       17155.5023   108.3392   169.5792   709.5195

       T/K    H(0)-H(T)+PV         H(T)/Eh          T*S/Eh         G(T)/Eh
   ------------------------------------------------------------------------
    298.15    0.273390E-01    0.435911E+00    0.805726E-01    0.355338E+00
   ------------------------------------------------------------------------

         :::::::::::::::::::::::::::::::::::::::::::::::::::::
         ::                  THERMODYNAMIC                  ::
         :::::::::::::::::::::::::::::::::::::::::::::::::::::
         :: total free energy         -90.709406664376 Eh   ::
         ::.................................................::
         :: total energy              -91.064744779752 Eh   ::
         :: zero point energy           0.408571643863 Eh   ::
         :: G(RRHO) w/o ZPVE           -0.053233528488 Eh   ::
         :: G(RRHO) contrib.            0.355338115375 Eh   ::
         :::::::::::::::::::::::::::::::::::::::::::::::::::::

           -------------------------------------------------
          | TOTAL ENERGY              -91.064744779752 Eh   |
          | TOTAL ENTHALPY            -90.628834102748 Eh   |
          | TOTAL FREE ENERGY         -90.709406664376 Eh   |
          | GRADIENT NORM               0.000098776245 Eh/α |
           -------------------------------------------------

 * finished run on 2025/09/05 at 11:48:45.130
