   * xtb version 6.7.1 (edcfbbe) compiled by 'albert@albert-system' on 2024-07-22

   ID    Z sym.   atoms
    1    6 C      1-6, 8-13, 15-19, 21-34, 36
    2    8 O      7
    3    7 N      14, 20, 35
    4    1 H      37-55

          program call               : xtb data2507/gas/PXZ-10-DPPZ/PXZ-10-DPPZ_gas_S0_finalOpt.xtbopt.xyz --gfn 2 --spinpol --tblite --uhf 2 --ohess vtight --parallel 40 --molden --ceasefiles --namespace data2507/gas/PXZ-10-DPPZ/PXZ-10-DPPZ_gas_T1_preOpt
 * total energy  :   -91.0601115 Eh     change       -0.7582742E-08 Eh
 * total energy  :   -91.0633679 Eh     change       -0.3256431E-02 Eh
 * total energy  :   -91.0643037 Eh     change       -0.9358201E-03 Eh
 * total energy  :   -91.0644366 Eh     change       -0.1329052E-03 Eh
 * total energy  :   -91.0645184 Eh     change       -0.8175726E-04 Eh
 * total energy  :   -91.0645479 Eh     change       -0.2952792E-04 Eh
 * total energy  :   -91.0645899 Eh     change       -0.4196407E-04 Eh
 * total energy  :   -91.0646402 Eh     change       -0.5032568E-04 Eh
 * total energy  :   -91.0646783 Eh     change       -0.3811488E-04 Eh
 * total energy  :   -91.0646973 Eh     change       -0.1898358E-04 Eh
 * total energy  :   -91.0647402 Eh     change       -0.3021613E-05 Eh
 * total energy  :   -91.0647420 Eh     change       -0.1818527E-05 Eh
 * total energy  :   -91.0647426 Eh     change       -0.5968781E-06 Eh
 * total energy  :   -91.0647436 Eh     change       -0.9747973E-06 Eh
 * total energy  :   -91.0647439 Eh     change       -0.2809208E-06 Eh
 * total energy  :   -91.0647441 Eh     change       -0.2760981E-06 Eh
 * total energy  :   -91.0647443 Eh     change       -0.1979802E-06 Eh
 * total energy  :   -91.0647444 Eh     change       -0.1165872E-06 Eh
 * total energy  :   -91.0647445 Eh     change       -0.5642939E-07 Eh
   *** GEOMETRY OPTIMIZATION CONVERGED AFTER 28 ITERATIONS ***

 final structure:
================
55
 xtb: 6.7.1 (edcfbbe)
C           -1.71044680203577        3.00460401233943        2.40644135950301
C           -1.16125745792331        1.82598771031527        2.87990445601260
C           -1.46026093705813        0.62094566077785        2.27154205483892
C           -2.30440778605738        0.57293454728486        1.16318674798575
C           -2.89313887849083        1.76849680926188        0.72289524190292
C           -2.58894866566716        2.97208797130389        1.33600005399390
O           -3.79451321281500        1.79890435816784       -0.30438397595138
C           -4.04970794207570        0.62339686184116       -0.95582243267424
C           -4.93158948031407        0.67805747959580       -2.02222515865755
C           -5.21735657726639       -0.46443198397637       -2.75021093915834
C           -4.60234803817993       -1.65740446065933       -2.41656266361690
C           -3.72263381519177       -1.71935822960671       -1.34997208454412
C           -3.44500131800930       -0.58851129440337       -0.58764907971537
N           -2.59815764161924       -0.62451119132205        0.52096020514698
C           -1.71020807118831       -1.71333863230214        0.69138275841735
C           -2.15741618028866       -2.97643330056745        1.05800283057046
C           -1.26332093993110       -4.03016556070629        1.14838106204086
C            0.08230397035799       -3.84163751372762        0.87974622515742
C            0.56982918202146       -2.58511491111759        0.52520684068929
N            1.86119452808616       -2.34798548564205        0.29118483408750
C            2.31514321840287       -1.12754141018384        0.02134417437683
C            3.70834165327441       -0.89625429072617       -0.20888468591470
C            4.59847032430419       -1.98057795895140       -0.15168458010892
C            5.93927309050318       -1.80104056118159       -0.37242326578452
C            6.42501822429218       -0.52473155454218       -0.65694116973315
C            5.56845853086312        0.54830061824146       -0.71420014762304
C            4.19088334874158        0.40274737130165       -0.49214321968087
C            3.26678307750921        1.51274667632941       -0.53763847708005
C            3.66817686847527        2.83402406420561       -0.78368328458560
C            2.76327733303242        3.86814193444544       -0.81120793044764
C            1.40690751179157        3.62599994398292       -0.59191289486490
C            0.97828071977591        2.34687438611462       -0.35140923679857
C            1.88904986623608        1.27832848992975       -0.31995220105903
C            1.40886809466784       -0.03896724560168       -0.05053077901034
N            0.11225430316930       -0.26380406378783        0.15142001878022
C           -0.34755943775058       -1.47794472000250        0.43530444959464
H           -1.46826105511840        3.94675697332334        2.87208431801254
H           -0.49320340987860        1.84004724331582        3.72687363119050
H           -1.04248784070397       -0.29593419640690        2.65596215246498
H           -3.05003284775834        3.87015749054054        0.95702484508706
H           -5.37418537500812        1.62971712587755       -2.26941686613618
H           -5.90643644418862       -0.41501673775763       -3.57834519582142
H           -4.80212566307989       -2.55057514932845       -2.98803868215523
H           -3.23711786539221       -2.65172395709901       -1.11143213929637
H           -3.20320649868106       -3.11902529380926        1.28397611112750
H           -1.61735803438603       -5.00752389861921        1.43784440769778
H            0.78501653989909       -4.65473241738196        0.96751345501595
H            4.19175437745799       -2.95579141317905        0.06854685966537
H            6.61775191056840       -2.64004914849103       -0.32856168220233
H            7.48078604520020       -0.37928840169407       -0.83350978789679
H            5.97692844808422        1.52105578354341       -0.93781445034728
H            4.70948004867478        3.05733023921810       -0.95387455529696
H            3.10459403842900        4.87515471734001       -1.00206597632792
H            0.70070769734168        4.44271220423352       -0.61081812261714
H           -0.06422297280342        2.13248909364230       -0.17298787793265

 projected vibrational frequencies (cm⁻¹)
eigval :       -0.00    -0.00    -0.00     0.00     0.00     0.00
eigval :       17.70    20.14    29.48    51.58    61.20    68.50
eigval :       85.77    99.78   106.12   118.45   150.69   162.65
eigval :      184.67   205.55   225.19   238.77   251.56   255.74
eigval :      269.47   301.67   315.14   327.03   350.33   382.90
eigval :      393.27   398.22   400.29   409.10   415.70   425.58
eigval :      435.15   442.00   469.08   500.39   505.18   512.61
eigval :      522.14   525.16   527.16   540.31   553.56   568.85
eigval :      578.11   584.88   592.40   600.45   629.53   631.33
eigval :      661.75   665.76   671.19   674.22   681.04   683.40
eigval :      703.56   725.67   761.01   765.25   775.06   778.99
eigval :      779.62   782.73   793.95   840.47   852.57   856.48
eigval :      858.07   864.37   870.46   871.05   874.00   897.83
eigval :      901.51   905.94   908.15   912.60   913.43   917.28
eigval :      917.53   918.22   921.76   922.85  1007.38  1038.26
eigval :     1076.50  1083.13  1086.65  1090.17  1099.70  1100.64
eigval :     1114.11  1136.68  1148.93  1150.88  1170.22  1174.85
eigval :     1177.19  1179.98  1181.32  1191.79  1209.06  1222.41
eigval :     1224.44  1240.70  1249.37  1256.63  1259.54  1264.19
eigval :     1282.86  1284.19  1301.73  1314.64  1318.00  1322.73
eigval :     1327.17  1345.77  1352.12  1358.77  1361.27  1391.92
eigval :     1405.98  1419.50  1419.88  1429.71  1442.63  1458.53
eigval :     1464.32  1466.37  1478.68  1488.60  1521.09  1537.29
eigval :     1540.27  1553.40  1562.68  1569.78  1581.70  1585.37
eigval :     1592.08  1594.83  3074.45  3075.09  3083.99  3085.34
eigval :     3087.24  3092.55  3093.25  3095.94  3096.56  3098.35
eigval :     3100.77  3102.16  3102.50  3106.29  3107.25  3108.09
eigval :     3112.59  3113.43  3115.00

   temp. (K)  partition function   enthalpy   heat capacity  entropy
                                   cal/mol     cal/K/mol   cal/K/mol   J/K/mol
 298.15  VIB  0.124E+11            14787.785    100.387     88.518
         ROT  0.248E+08              888.752      2.981     36.820
         INT  0.308E+18            15676.537    103.367    125.338
         TR   0.959E+28             1481.254      4.968     44.257
         TOT                       17157.7911   108.3356   169.5941   709.5816

       T/K    H(0)-H(T)+PV         H(T)/Eh          T*S/Eh         G(T)/Eh
   ------------------------------------------------------------------------
    298.15    0.273427E-01    0.435881E+00    0.805796E-01    0.355302E+00
   ------------------------------------------------------------------------

         :::::::::::::::::::::::::::::::::::::::::::::::::::::
         ::                  THERMODYNAMIC                  ::
         :::::::::::::::::::::::::::::::::::::::::::::::::::::
         :: total free energy         -90.709442951384 Eh   ::
         ::.................................................::
         :: total energy              -91.064744504975 Eh   ::
         :: zero point energy           0.408538489712 Eh   ::
         :: G(RRHO) w/o ZPVE           -0.053236936121 Eh   ::
         :: G(RRHO) contrib.            0.355301553591 Eh   ::
         :::::::::::::::::::::::::::::::::::::::::::::::::::::

           -------------------------------------------------
          | TOTAL ENERGY              -91.064744504975 Eh   |
          | TOTAL ENTHALPY            -90.628863334692 Eh   |
          | TOTAL FREE ENERGY         -90.709442951384 Eh   |
          | GRADIENT NORM               0.000079042060 Eh/α |
           -------------------------------------------------

 * finished run on 2025/09/05 at 11:46:06.447
