   * xtb version 6.7.1 (edcfbbe) compiled by 'albert@albert-system' on 2024-07-22

   ID    Z sym.   atoms
    1    6 C      1-6, 8-13, 15-19, 21-34, 36
    2    8 O      7
    3    7 N      14, 20, 35
    4    1 H      37-55

          program call               : xtb data2507/gas/PXZ-10-DPPZ/PXZ-10-DPPZ_gas_S0_crest.xyz --gfn 2 --ohess vtight --parallel 40 --molden --ceasefiles --namespace data2507/gas/PXZ-10-DPPZ/PXZ-10-DPPZ_gas_S0_finalOpt
          :  Hamiltonian                  GFN2-xTB          :
 * total energy  :   -91.1027803 Eh     change       -0.1058297E-08 Eh
 * total energy  :   -91.1027811 Eh     change       -0.8560100E-06 Eh
 * total energy  :   -91.1027820 Eh     change       -0.8713695E-06 Eh
 * total energy  :   -91.1027830 Eh     change       -0.1009430E-05 Eh
 * total energy  :   -91.1027833 Eh     change       -0.3234708E-06 Eh
 * total energy  :   -91.1027835 Eh     change       -0.1416121E-06 Eh
 * total energy  :   -91.1027836 Eh     change       -0.1325282E-06 Eh
 * total energy  :   -91.1027837 Eh     change       -0.1138655E-06 Eh
 * total energy  :   -91.1027838 Eh     change       -0.6703355E-07 Eh
   *** GEOMETRY OPTIMIZATION CONVERGED AFTER 9 ITERATIONS ***

 final structure:
================
55
 xtb: 6.7.1 (edcfbbe)
C           -1.86193570083507        2.97400286447461        2.53742209910239
C           -1.30948687740704        1.79236941725294        2.99157750326746
C           -1.55054195612616        0.60489320916281        2.32066748882110
C           -2.32826845911994        0.58394668493285        1.16964473073578
C           -2.93045400129188        1.77546736923941        0.75203527179701
C           -2.68844516573353        2.95997519714730        1.42446395418397
O           -3.78925396359091        1.82566209889132       -0.31685118425275
C           -4.06440877243199        0.64570896388655       -0.96030730759712
C           -4.96687513525029        0.70734913968256       -2.00647695092049
C           -5.27160442577224       -0.42961751400844       -2.73908330982501
C           -4.65295330878172       -1.62265303879933       -2.42614764358821
C           -3.75235483851270       -1.69119985310631       -1.37405084208342
C           -3.45679613285600       -0.56877968564205       -0.61077399721048
N           -2.56594278832560       -0.60149574150186        0.46763362266585
C           -1.67899825487200       -1.67900773388737        0.63898176566503
C           -2.11142779261545       -2.93635351382502        0.98412324799799
C           -1.20354945042995       -3.99924319614464        1.12190514842483
C            0.13675089068708       -3.81840583594057        0.92493194392732
C            0.62524236259458       -2.54094907500588        0.57908584965711
N            1.93776217336769       -2.35217614117653        0.37927496104901
C            2.35355855755216       -1.14213947804112        0.05598946765612
C            3.76269528764536       -0.91669234351914       -0.17943283541242
C            4.65201700125598       -1.99067585311206       -0.08645159220160
C            5.99531726866388       -1.81314808027447       -0.32168222337023
C            6.46705170604303       -0.54955184901789       -0.65860391754583
C            5.60109953295830        0.51832945585332       -0.75025820996476
C            4.22974588763605        0.37121628779516       -0.51096430811574
C            3.29771281644116        1.48863699563244       -0.58767663863272
C            3.70885629662454        2.79875937645281       -0.85931071293576
C            2.80615394120998        3.83867771836003       -0.91376230452431
C            1.45199445388553        3.61117362378923       -0.69531069941047
C            1.01659903852129        2.33480003328865       -0.42663393688071
C            1.92234170193793        1.27150368684555       -0.37297947406919
C            1.43737501764318       -0.05506283286168       -0.07103876767990
N            0.14349266237166       -0.23382270357259        0.10600182254822
C           -0.28762909350529       -1.45609044137984        0.43423673065849
H           -1.66847115589841        3.90318737320251        3.05007727738665
H           -0.68803428086848        1.78484740127942        3.87393871782760
H           -1.12396179192302       -0.31591028378537        2.68824328850275
H           -3.15658600457862        3.86050511157174        1.05972545524701
H           -5.41230277389084        1.66164101935562       -2.23860457263365
H           -5.97778012459383       -0.37161517213735       -3.55228821008894
H           -4.86240475662264       -2.51334762411530       -2.99856602916687
H           -3.26293501583233       -2.62757448982406       -1.15862102218557
H           -3.16259666688327       -3.10747738496162        1.16380145135505
H           -1.58401808987206       -4.97233762775381        1.39519302819200
H            0.84323062587349       -4.62698419628084        1.02444097141066
H            4.24823051358577       -2.95696357705815        0.17198722550907
H            6.67864981029571       -2.64593169566274       -0.24920594222178
H            7.51977384448760       -0.40123225940479       -0.85050333162217
H            6.00407963979402        1.48230148993691       -1.01660906383240
H            4.75151434704819        3.01692441062696       -1.02657607213261
H            3.15694568848499        4.83854781450761       -1.12435933914015
H            0.74974639597031        4.43013897224703       -0.73312630206394
H           -0.02530820465825        2.12448106908549       -0.24268245167917

          :  Hamiltonian                  GFN2-xTB          :
         :: gradient norm              0.000033813235 Eh/a0 ::
         :: HOMO-LUMO gap              0.954086336546 eV    ::
         :: SCC energy               -92.724306272946 Eh    ::
         :: -> dispersion             -0.080797845174 Eh    ::
         :: repulsion energy           1.621522471976 Eh    ::

    * Orbital Energies and Occupations

         #    Occupation            Energy/Eh            Energy/eV
      -------------------------------------------------------------
         1        2.0000           -0.7228257             -19.6691
       ...           ...                  ...                  ...
        72        2.0000           -0.4251404             -11.5687
        73        2.0000           -0.4200851             -11.4311
        74        2.0000           -0.4188573             -11.3977
        75        2.0000           -0.4174254             -11.3587
        76        2.0000           -0.4122632             -11.2183
        77        2.0000           -0.4101396             -11.1605
        78        2.0000           -0.4056014             -11.0370
        79        2.0000           -0.4012551             -10.9187
        80        2.0000           -0.3934956             -10.7076
        81        2.0000           -0.3899177             -10.6102
        82        2.0000           -0.3849591             -10.4753
        83        2.0000           -0.3525089              -9.5923
        84        2.0000           -0.3370647              -9.1720 (HOMO)
        85                         -0.3020028              -8.2179 (LUMO)
        86                         -0.2664769              -7.2512
        87                         -0.2539194              -6.9095
        88                         -0.2330216              -6.3408
        89                         -0.2274076              -6.1881
        90                         -0.2242997              -6.1035
        91                         -0.2185591              -5.9473
        92                         -0.2098271              -5.7097
        93                         -0.2038367              -5.5467
        94                         -0.1965863              -5.3494
        95                         -0.1902391              -5.1767
       ...                                ...                  ...
       163                          0.7151847              19.4612
      -------------------------------------------------------------
                  HL-Gap            0.0350619 Eh            0.9541 eV

     #   Z          covCN         q      C6AA      α(0)
     1   6 C        2.920    -0.040    28.985     8.829
     2   6 C        2.919    -0.038    28.936     8.821
     3   6 C        2.925    -0.049    29.223     8.865
     4   6 C        2.927     0.051    26.856     8.499
     5   6 C        2.885     0.126    25.226     8.234
     6   6 C        2.920    -0.056    29.402     8.892
     7   8 O        1.709    -0.253    18.190     5.758
     8   6 C        2.885     0.126    25.227     8.234
     9   6 C        2.920    -0.056    29.396     8.891
    10   6 C        2.919    -0.040    29.001     8.831
    11   6 C        2.919    -0.039    28.965     8.826
    12   6 C        2.924    -0.060    29.496     8.906
    13   6 C        2.922     0.044    27.007     8.522
    14   7 N        2.750    -0.059    22.375     7.025
    15   6 C        2.921     0.055    26.771     8.485
    16   6 C        2.917    -0.046    29.134     8.851
    17   6 C        2.916    -0.029    28.728     8.789
    18   6 C        2.916    -0.046    29.143     8.852
    19   6 C        2.964     0.080    26.202     8.396
    20   7 N        1.848    -0.239    27.095     7.715
    21   6 C        2.959     0.084    26.119     8.383
    22   6 C        2.988    -0.001    28.052     8.688
    23   6 C        2.924    -0.027    28.667     8.780
    24   6 C        2.917    -0.028    28.710     8.787
    25   6 C        2.918    -0.027    28.670     8.780
    26   6 C        2.922    -0.033    28.834     8.806
    27   6 C        2.976     0.007    27.851     8.657
    28   6 C        2.976     0.007    27.860     8.658
    29   6 C        2.922    -0.034    28.838     8.806
    30   6 C        2.918    -0.027    28.664     8.780
    31   6 C        2.917    -0.027    28.688     8.783
    32   6 C        2.924    -0.025    28.622     8.773
    33   6 C        2.989    -0.001    28.048     8.688
    34   6 C        2.963     0.085    26.109     8.381
    35   7 N        1.849    -0.242    27.179     7.727
    36   6 C        2.970     0.073    26.366     8.423
    37   1 H        0.926     0.036     2.496     2.471
    38   1 H        0.926     0.034     2.531     2.488
    39   1 H        0.926     0.029     2.598     2.521
    40   1 H        0.926     0.049     2.333     2.389
    41   1 H        0.926     0.050     2.320     2.382
    42   1 H        0.926     0.037     2.486     2.465
    43   1 H        0.926     0.035     2.516     2.481
    44   1 H        0.926     0.035     2.514     2.479
    45   1 H        0.926     0.047     2.359     2.402
    46   1 H        0.926     0.043     2.412     2.429
    47   1 H        0.926     0.054     2.272     2.357
    48   1 H        0.926     0.059     2.206     2.323
    49   1 H        0.926     0.036     2.497     2.471
    50   1 H        0.926     0.035     2.518     2.481
    51   1 H        0.926     0.037     2.495     2.470
    52   1 H        0.926     0.037     2.493     2.469
    53   1 H        0.926     0.035     2.510     2.477
    54   1 H        0.926     0.038     2.480     2.463
    55   1 H        0.926     0.056     2.246     2.344

molecular dipole:
                 x           y           z       tot (Debye)
 q only:        0.537      -0.099       0.046
   full:        0.634      -0.177       0.039       1.676

 projected vibrational frequencies (cm⁻¹)
eigval :       -0.00    -0.00     0.00     0.00     0.00     0.00
eigval :       15.37    17.86    22.29    47.12    57.87    65.25
eigval :       85.29    91.32   102.99   117.95   151.04   160.18
eigval :      195.49   206.56   224.33   236.93   252.60   254.60
eigval :      282.15   302.54   307.76   329.39   347.62   386.39
eigval :      392.89   395.93   398.45   399.58   412.40   422.18
eigval :      431.01   439.69   462.02   498.51   509.43   516.05
eigval :      520.99   527.29   533.59   543.08   555.10   575.60
eigval :      579.42   585.23   596.27   612.71   633.82   661.39
eigval :      663.91   671.25   677.42   683.28   687.55   704.65
eigval :      735.11   762.59   767.30   769.28   777.62   779.70
eigval :      789.58   793.42   804.06   844.69   855.76   858.93
eigval :      863.20   867.84   869.94   879.77   892.21   897.74
eigval :      901.32   914.00   914.66   916.41   917.64   921.05
eigval :      927.71   929.13   929.75   934.13  1015.75  1050.67
eigval :     1078.55  1085.20  1088.70  1094.34  1096.76  1102.59
eigval :     1109.52  1139.14  1147.27  1151.34  1170.91  1175.99
eigval :     1180.87  1181.49  1182.17  1189.75  1202.98  1224.22
eigval :     1234.95  1243.13  1250.97  1261.55  1264.01  1281.19
eigval :     1291.44  1295.87  1309.47  1314.53  1325.05  1331.88
eigval :     1337.42  1347.05  1354.18  1367.80  1390.47  1423.52
eigval :     1426.96  1428.23  1437.05  1444.98  1462.29  1477.67
eigval :     1486.48  1489.74  1501.78  1508.78  1534.87  1555.64
eigval :     1568.55  1569.24  1579.52  1587.01  1590.28  1591.91
eigval :     1599.25  1602.42  3076.95  3077.72  3082.37  3085.20
eigval :     3087.68  3088.68  3090.76  3092.61  3093.00  3098.52
eigval :     3099.74  3100.86  3107.21  3108.26  3109.05  3110.01
eigval :     3110.07  3110.63  3111.89

   temp. (K)  partition function   enthalpy   heat capacity  entropy
                                   cal/mol     cal/K/mol   cal/K/mol   J/K/mol
 298.15  VIB  0.252E+11            14749.335     99.358     88.810
         ROT  0.253E+08              888.752      2.981     36.854
         INT  0.638E+18            15638.087    102.339    125.664
         TR   0.959E+28             1481.254      4.968     44.257
         TOT                       17119.3412   107.3069   169.9206   710.9477

       T/K    H(0)-H(T)+PV         H(T)/Eh          T*S/Eh         G(T)/Eh
   ------------------------------------------------------------------------
    298.15    0.272814E-01    0.437676E+00    0.807348E-01    0.356942E+00
   ------------------------------------------------------------------------

         :::::::::::::::::::::::::::::::::::::::::::::::::::::
         ::                  THERMODYNAMIC                  ::
         :::::::::::::::::::::::::::::::::::::::::::::::::::::
         :: total free energy         -90.745842083653 Eh   ::
         ::.................................................::
         :: total energy              -91.102783800968 Eh   ::
         :: zero point energy           0.410395063766 Eh   ::
         :: G(RRHO) w/o ZPVE           -0.053453346451 Eh   ::
         :: G(RRHO) contrib.            0.356941717316 Eh   ::
         :::::::::::::::::::::::::::::::::::::::::::::::::::::

           -------------------------------------------------
          | TOTAL ENERGY              -91.102783800968 Eh   |
          | TOTAL ENTHALPY            -90.665107330420 Eh   |
          | TOTAL FREE ENERGY         -90.745842083653 Eh   |
          | GRADIENT NORM               0.000033787722 Eh/α |
          | HOMO-LUMO GAP               0.954082756291 eV   |
           -------------------------------------------------

 * finished run on 2025/09/05 at 11:46:02.347
