   * xtb version 6.7.1 (edcfbbe) compiled by 'albert@albert-system' on 2024-07-22

   ID    Z sym.   atoms
    1    6 C      1-9, 11-19, 21-39, 41-43, 45-60, 62, 63, 65-71
    2    7 N      10, 20, 40, 44, 64
    3   35 Br     61
    4    1 H      72-121

          program call               : xtb data2507/toluene/3DMAC-BP-Br/3DMAC-BP-Br_toluene_T1_crest.xyz --gfn 2 --uhf 2 --gbsa toluene --ohess vtight --parallel 40 --molden --ceasefiles --namespace data2507/toluene/3DMAC-BP-Br/3DMAC-BP-Br_toluene_T1_finalOpt
      * Solvation model:               GBSA
        Solvent                        toluene
        Solvent mass                       9.2140E+01 g/mol
          :  Hamiltonian                  GFN2-xTB          :
 * total energy  :  -183.5786149 Eh     change       -0.1721151E-07 Eh
 * total energy  :  -183.5787428 Eh     change       -0.1278660E-03 Eh
 * total energy  :  -183.5787993 Eh     change       -0.5652674E-04 Eh
 * total energy  :  -183.5788118 Eh     change       -0.1246330E-04 Eh
 * total energy  :  -183.5788214 Eh     change       -0.9653592E-05 Eh
 * total energy  :  -183.5788308 Eh     change       -0.9416949E-05 Eh
 * total energy  :  -183.5788409 Eh     change       -0.1008383E-04 Eh
 * total energy  :  -183.5788499 Eh     change       -0.8959936E-05 Eh
 * total energy  :  -183.5788585 Eh     change       -0.8640370E-05 Eh
 * total energy  :  -183.5788674 Eh     change       -0.8901223E-05 Eh
 * total energy  :  -183.5790114 Eh     change       -0.5677292E-06 Eh
 * total energy  :  -183.5790120 Eh     change       -0.5846392E-06 Eh
 * total energy  :  -183.5790125 Eh     change       -0.5590310E-06 Eh
 * total energy  :  -183.5790131 Eh     change       -0.5345876E-06 Eh
 * total energy  :  -183.5790132 Eh     change       -0.1694896E-06 Eh
 * total energy  :  -183.5790137 Eh     change       -0.5054292E-06 Eh
 * total energy  :  -183.5790135 Eh     change        0.2894043E-06 Eh
 * total energy  :  -183.5790139 Eh     change       -0.4401118E-06 Eh
 * total energy  :  -183.5790140 Eh     change       -0.9109550E-07 Eh
   *** GEOMETRY OPTIMIZATION CONVERGED AFTER 72 ITERATIONS ***

 final structure:
================
121
 xtb: 6.7.1 (edcfbbe)
C           -8.61767384772691       -3.97180397865220        0.43512103074204
C           -7.28365741552150       -4.68995388787596        0.15363319070258
C           -7.53003329814327       -6.18989432031227       -0.09874854691341
C           -6.65689747544556       -4.08676438154238       -1.08791245166929
C           -7.34065016709237       -4.14020527935115       -2.29530526890895
C           -6.81113455506149       -3.62177940067520       -3.46281624994740
C           -5.55524050731574       -3.03833704369075       -3.43841999718599
C           -4.85326248507835       -2.97115859083596       -2.25453494420552
C           -5.39319831257458       -3.48083507734908       -1.06715000592796
N           -4.66880785351195       -3.39063141511917        0.10819505148290
C           -3.37046657614770       -2.80584518744347        0.07940392707507
C           -2.24045060030562       -3.63529144128514        0.05212546589037
C           -0.99508021229412       -3.06799836867521        0.02617877781272
C           -0.83166530436695       -1.67271582875203        0.01664621270603
C           -1.96869778691834       -0.82822479172143        0.03645016702837
C           -3.23233553162303       -1.43494393098737        0.07509422309531
C           -1.78876658287862        0.60314548839979        0.01119720870086
C           -2.86301969986807        1.50441005224519        0.01781046749507
C           -2.65757624963060        2.86619059657494       -0.02146430878794
N           -3.77331627143485        3.75224148684174       -0.02172574975084
C           -4.42761200491118        4.00906818533688       -1.21296836175765
C           -3.99019604983465        3.38931717812661       -2.39012458095433
C           -4.62743305807608        3.61875713352919       -3.59017908822284
C           -5.71443666007419        4.47570183510087       -3.64036800110179
C           -6.14066920380939        5.09954209793778       -2.48201900183927
C           -5.51755573920193        4.88895569135590       -1.25924566289752
C           -6.02139295180632        5.61526805089032       -0.02775863656006
C           -7.49007843610150        5.21751718766588        0.21573653685706
C           -5.91554932485713        7.13268606401648       -0.27359756849459
C           -5.21409905083058        5.26365371019314        1.20613422092320
C           -5.53664569537166        5.84363571918516        2.42563767906509
C           -4.84184728429107        5.54990160751825        3.58481207262094
C           -3.79480889295117        4.64432350308743        3.53880153467927
C           -3.45239591214552        4.05245699468909        2.34239827998388
C           -4.14522979622043        4.35825716969124        1.16443389884711
C           -1.35784619731126        3.38963617651955       -0.06381668312680
C           -0.29150435717480        2.53127701876756       -0.06413250477163
C           -0.47834230015699        1.13939286148435       -0.02859793074198
C            0.66716097959776        0.28112534489356       -0.03511187602040
N            1.89277673317799        0.81064985976345       -0.06259352078817
C            2.96062457087338        0.00379597330227       -0.06055768963606
C            4.25673012713849        0.52358705297279       -0.08128514504244
C            5.36401183364838       -0.31459606357196       -0.07577010928969
N            6.67509301816904        0.23253746876980       -0.08978080761678
C            7.30438812369116        0.43163994333022       -1.30577001312113
C            6.61788399196635        0.14899979886556       -2.49196189807458
C            7.22126074695892        0.32572772763054       -3.71816104694017
C            8.52360035725395        0.79167237116583       -3.78263884524566
C            9.20189316006094        1.07732974210871       -2.61178563817720
C            8.61968206027506        0.90968021097145       -1.36273623451309
C            9.41348867643457        1.23739276300183       -0.11391354494654
C           10.66078245455654        0.33369285919471       -0.07363252672858
C            9.83070280727493        2.71975833447147       -0.16793841559668
C            8.60708463981062        1.00381012302365        1.14803106634692
C            9.17587914391883        1.26833716477584        2.38648174467197
C            8.48899271220473        1.06326452153998        3.56913909427980
C            7.19255688354855        0.57861856912345        3.52779082858678
C            6.60147300952927        0.30867856063480        2.31255311121722
C            7.29446890063648        0.51602213071790        1.11456490662143
C            5.17142647454710       -1.69406480429502       -0.05288382729541
Br           6.69936300685312       -2.84088176747133       -0.04373167472875
C            3.90597963338847       -2.25131998744991       -0.03551639994745
C            2.78030245557307       -1.42321909332133       -0.03716130560839
N            1.54662081387303       -1.94160303987144       -0.01830631982419
C            0.49019046906047       -1.12472721109634       -0.01292260618451
C           -5.14392890826864       -3.90130531141092        1.30276620380374
C           -4.37667415698771       -3.76342027828823        2.46623383995898
C           -4.81811553840002       -4.26914749847967        3.66966619373292
C           -6.04013641064590       -4.91758807898318        3.73784789637316
C           -6.80845435082923       -5.03917547901676        2.59434633929485
C           -6.38947078132861       -4.54016250374663        1.36832547828896
H           -8.43789276205374       -2.91420250663448        0.62017068554633
H           -9.29189468444598       -4.06291448617510       -0.41154249832302
H           -9.10712109723906       -4.39468404927209        1.30762654684645
H           -7.98763920737695       -6.65771255111582        0.76814475337167
H           -6.58592383879243       -6.69234646671373       -0.30236835249923
H           -8.18708293051120       -6.33596198376327       -0.95118612404723
H           -8.31593600031391       -4.60052472569424       -2.33246164521602
H           -7.37090731428020       -3.67881703044816       -4.38397768537727
H           -5.11948011726551       -2.63683271129378       -4.34120055279980
H           -3.87167697454560       -2.52356288841333       -2.24331548409414
H           -2.36683795825445       -4.70734029952030        0.05413458213760
H           -0.10295293097469       -3.67488782309495        0.00712847828101
H           -4.12892573922285       -0.83608162115276        0.09621928897073
H           -3.88008494974080        1.14721835752398        0.04823327991583
H           -3.13980714939031        2.72614644576857       -2.35726510838810
H           -4.27315923269045        3.12938236713207       -4.48522656253416
H           -6.22258873259559        4.66168207709954       -4.57440957802051
H           -6.98352960599298        5.77092929532054       -2.53919875222564
H           -7.89095279078282        5.73377948901576        1.08321743220565
H           -7.56036901793376        4.14528775447744        0.39035705146057
H           -8.10540351695657        5.46661600465524       -0.64398786764678
H           -4.87689226207912        7.40975596444076       -0.44578002335314
H           -6.28179339648949        7.68973695971074        0.58389102613299
H           -6.49721920008364        7.42490276528467       -1.14306607426099
H           -6.35428975854714        6.54574487722278        2.47955090496460
H           -5.11812674743953        6.02086979435554        4.51598749114270
H           -3.24479441366755        4.39607353148773        4.43435232038315
H           -2.63969838534275        3.34335381118094        2.31197572985183
H           -1.21511288617140        4.45917328766237       -0.09467585731344
H            0.72307618404767        2.89731740901176       -0.09597109615058
H            4.39373177223498        1.59358862953098       -0.09813847375821
H            5.60143381363263       -0.21258093139729       -2.44584674176017
H            6.67316864660610        0.09840210298162       -4.62046891264289
H            9.00760755248728        0.93125460937787       -4.73721905991144
H           10.21624295126185        1.43886518126556       -2.67965199225007
H           11.27745359327544        0.48857734937885       -0.95420678371377
H           10.35975230768391       -0.71203126719662       -0.04347140189082
H           11.26113158181859        0.54405288542435        0.80675524003344
H           10.42830986517983        2.98458087950269        0.69927367338922
H           10.41591899850320        2.92390694480426       -1.05972337853591
H            8.94593440276906        3.35390010867646       -0.18390878815476
H           10.18649790895409        1.64297813816239        2.43651819440565
H            8.96254886393032        1.27774294561415        4.51505544934596
H            6.63950434761723        0.40919960315299        4.43974549985978
H            5.58988007764225       -0.06822150203379        2.28441720698265
H            3.76825258051742       -3.32075016023375       -0.01733237317371
H           -3.42714366680049       -3.25318053265688        2.41961889333958
H           -4.20800108798647       -4.15474547794043        4.55334587494253
H           -6.39522099226846       -5.32024013734248        4.67428691774284
H           -7.76245036352470       -5.53834144336248        2.66611749458224

          :  Hamiltonian                  GFN2-xTB          :
         :: gradient norm              0.000088266683 Eh/a0 ::
         :: HOMO-LUMO gap              0.942505850920 eV    ::
         :: SCC energy              -186.805115043325 Eh    ::
         :: -> dispersion             -0.182211474692 Eh    ::
         :: -> Gsolv                  -0.076677311385 Eh    ::
         :: repulsion energy           3.226101034229 Eh    ::

    * Orbital Energies and Occupations

         #    Occupation            Energy/Eh            Energy/eV
      -------------------------------------------------------------
         1        2.0000           -0.8383516             -22.8127
       ...           ...                  ...                  ...
       160        2.0000           -0.4052262             -11.0268
       161        2.0000           -0.4041417             -10.9973
       162        2.0000           -0.4024632             -10.9516
       163        2.0000           -0.3996481             -10.8750
       164        2.0000           -0.3996151             -10.8741
       165        2.0000           -0.3985345             -10.8447
       166        2.0000           -0.3934076             -10.7052
       167        2.0000           -0.3888660             -10.5816
       168        1.8979           -0.3553972              -9.6708
       169        1.8599           -0.3550560              -9.6616
       170        1.8175           -0.3547564              -9.6534
       171        1.4247           -0.3530438              -9.6068
       172        1.0000           -0.3059931              -8.3265 (HOMO)
       173                         -0.2713565              -7.3840 (LUMO)
       174                         -0.2611766              -7.1070
       175                         -0.2326495              -6.3307
       176                         -0.2326186              -6.3299
       177                         -0.2316274              -6.3029
       178                         -0.2309170              -6.2836
       179                         -0.2270236              -6.1776
       180                         -0.2260969              -6.1524
       181                         -0.2259794              -6.1492
       182                         -0.2252168              -6.1285
       183                         -0.2251867              -6.1276
       ...                                ...                  ...
       339                          0.7014188              19.0866
      -------------------------------------------------------------
                  HL-Gap            0.0346366 Eh            0.9425 eV

     #   Z          covCN         q      C6AA      α(0)
     1   6 C        3.761    -0.105    22.562     6.771
     2   6 C        3.909     0.022    20.141     6.379
     3   6 C        3.761    -0.105    22.558     6.771
     4   6 C        2.978    -0.008    28.224     8.714
     5   6 C        2.927    -0.035    28.880     8.813
     6   6 C        2.917    -0.040    28.988     8.829
     7   6 C        2.919    -0.032    28.787     8.798
     8   6 C        2.923    -0.055    29.357     8.885
     9   6 C        2.928     0.060    26.666     8.469
    10   7 N        2.755    -0.050    22.205     6.999
    11   6 C        2.926     0.062    26.621     8.461
    12   6 C        2.917    -0.041    29.030     8.835
    13   6 C        2.923    -0.028    28.712     8.787
    14   6 C        2.987    -0.011    28.293     8.725
    15   6 C        2.977    -0.001    28.046     8.687
    16   6 C        2.922    -0.044    29.105     8.847
    17   6 C        2.977    -0.001    28.045     8.687
    18   6 C        2.922    -0.044    29.102     8.847
    19   6 C        2.926     0.062    26.622     8.461
    20   7 N        2.755    -0.050    22.207     6.999
    21   6 C        2.928     0.060    26.665     8.468
    22   6 C        2.923    -0.055    29.354     8.885
    23   6 C        2.919    -0.032    28.787     8.798
    24   6 C        2.917    -0.040    28.989     8.829
    25   6 C        2.927    -0.035    28.880     8.813
    26   6 C        2.978    -0.008    28.224     8.715
    27   6 C        3.909     0.022    20.141     6.379
    28   6 C        3.761    -0.105    22.560     6.771
    29   6 C        3.761    -0.105    22.559     6.771
    30   6 C        2.978    -0.008    28.224     8.715
    31   6 C        2.927    -0.035    28.881     8.813
    32   6 C        2.917    -0.040    28.988     8.829
    33   6 C        2.919    -0.032    28.788     8.799
    34   6 C        2.923    -0.054    29.350     8.884
    35   6 C        2.928     0.060    26.662     8.468
    36   6 C        2.917    -0.041    29.031     8.835
    37   6 C        2.923    -0.029    28.715     8.788
    38   6 C        2.987    -0.011    28.290     8.725
    39   6 C        2.947     0.080    26.225     8.399
    40   7 N        1.848    -0.278    28.059     7.851
    41   6 C        2.945     0.084    26.134     8.385
    42   6 C        2.924    -0.076    29.888     8.965
    43   6 C        2.992     0.052    26.832     8.497
    44   7 N        2.759    -0.053    22.256     7.007
    45   6 C        2.929     0.065    26.552     8.451
    46   6 C        2.924    -0.051    29.277     8.873
    47   6 C        2.919    -0.032    28.793     8.799
    48   6 C        2.917    -0.040    28.986     8.829
    49   6 C        2.927    -0.035    28.880     8.813
    50   6 C        2.979    -0.007    28.198     8.711
    51   6 C        3.909     0.023    20.135     6.378
    52   6 C        3.761    -0.106    22.569     6.772
    53   6 C        3.761    -0.106    22.573     6.773
    54   6 C        2.979    -0.007    28.199     8.711
    55   6 C        2.927    -0.035    28.880     8.813
    56   6 C        2.917    -0.040    28.987     8.829
    57   6 C        2.919    -0.032    28.795     8.800
    58   6 C        2.923    -0.052    29.283     8.874
    59   6 C        2.929     0.064    26.557     8.451
    60   6 C        2.913     0.052    26.828     8.493
    61  35 Br       1.066    -0.191   190.346    22.245
    62   6 C        2.989    -0.075    29.852     8.963
    63   6 C        2.949     0.084    26.131     8.384
    64   7 N        1.848    -0.279    28.099     7.856
    65   6 C        2.947     0.080    26.211     8.397
    66   6 C        2.928     0.060    26.663     8.468
    67   6 C        2.923    -0.054    29.347     8.884
    68   6 C        2.919    -0.032    28.788     8.799
    69   6 C        2.917    -0.040    28.987     8.829
    70   6 C        2.927    -0.035    28.881     8.813
    71   6 C        2.979    -0.008    28.222     8.714
    72   1 H        0.925     0.033     2.542     2.493
    73   1 H        0.925     0.046     2.366     2.405
    74   1 H        0.925     0.046     2.368     2.406
    75   1 H        0.925     0.046     2.369     2.407
    76   1 H        0.925     0.033     2.550     2.497
    77   1 H        0.925     0.046     2.369     2.407
    78   1 H        0.926     0.041     2.438     2.442
    79   1 H        0.926     0.034     2.530     2.487
    80   1 H        0.926     0.033     2.546     2.495
    81   1 H        0.926     0.030     2.587     2.515
    82   1 H        0.926     0.045     2.382     2.413
    83   1 H        0.926     0.053     2.278     2.360
    84   1 H        0.926     0.048     2.344     2.394
    85   1 H        0.926     0.048     2.348     2.396
    86   1 H        0.926     0.030     2.590     2.517
    87   1 H        0.926     0.033     2.547     2.496
    88   1 H        0.926     0.034     2.531     2.488
    89   1 H        0.926     0.041     2.439     2.442
    90   1 H        0.925     0.046     2.368     2.407
    91   1 H        0.925     0.033     2.543     2.494
    92   1 H        0.925     0.046     2.366     2.406
    93   1 H        0.925     0.033     2.549     2.497
    94   1 H        0.925     0.046     2.369     2.407
    95   1 H        0.925     0.046     2.369     2.407
    96   1 H        0.926     0.041     2.439     2.442
    97   1 H        0.926     0.034     2.532     2.489
    98   1 H        0.926     0.033     2.549     2.497
    99   1 H        0.926     0.030     2.586     2.515
   100   1 H        0.926     0.045     2.377     2.411
   101   1 H        0.926     0.054     2.269     2.355
   102   1 H        0.926     0.048     2.351     2.398
   103   1 H        0.926     0.020     2.738     2.588
   104   1 H        0.926     0.032     2.559     2.502
   105   1 H        0.926     0.036     2.507     2.476
   106   1 H        0.926     0.043     2.413     2.429
   107   1 H        0.925     0.047     2.354     2.400
   108   1 H        0.925     0.035     2.520     2.482
   109   1 H        0.925     0.047     2.356     2.400
   110   1 H        0.925     0.047     2.351     2.398
   111   1 H        0.925     0.047     2.353     2.399
   112   1 H        0.925     0.032     2.552     2.498
   113   1 H        0.926     0.043     2.412     2.429
   114   1 H        0.926     0.036     2.507     2.476
   115   1 H        0.926     0.032     2.559     2.502
   116   1 H        0.926     0.020     2.737     2.587
   117   1 H        0.926     0.050     2.319     2.382
   118   1 H        0.926     0.030     2.586     2.515
   119   1 H        0.926     0.033     2.549     2.497
   120   1 H        0.926     0.034     2.531     2.488
   121   1 H        0.926     0.041     2.438     2.442

molecular dipole:
                 x           y           z       tot (Debye)
 q only:       -3.814       1.624       0.031
   full:       -4.070       1.760       0.028      11.272

 projected vibrational frequencies (cm⁻¹)
eigval :       -0.00    -0.00    -0.00     0.00     0.00     0.00
eigval :        7.99     9.66     9.75    11.83    14.38    15.95
eigval :       17.34    23.22    24.10    36.68    37.92    38.81
eigval :       48.22    64.82    69.96    78.13    85.16    91.87
eigval :       95.50    96.09    97.41    99.97   102.08   103.42
eigval :      113.29   121.67   128.91   132.24   139.14   140.69
eigval :      144.42   147.04   163.30   193.35   195.36   200.16
eigval :      200.84   205.50   212.87   219.66   220.34   220.71
eigval :      227.46   232.45   235.59   239.16   252.17   258.92
eigval :      261.75   294.41   303.08   304.29   305.30   312.51
eigval :      327.74   328.46   329.25   329.36   332.86   343.88
eigval :      344.32   350.19   352.47   355.52   377.06   377.65
eigval :      380.02   384.18   386.82   394.07   398.91   409.48
eigval :      410.49   418.51   429.66   434.87   438.19   441.53
eigval :      450.31   450.43   450.64   464.58   465.04   478.94
eigval :      500.71   508.44   509.31   510.61   510.71   514.06
eigval :      531.63   540.81   541.93   544.19   544.34   545.48
eigval :      545.73   549.14   552.39   578.57   582.95   584.25
eigval :      585.11   585.74   598.63   604.84   606.67   630.11
eigval :      631.05   649.13   649.95   652.83   653.08   661.96
eigval :      684.70   685.26   685.37   689.40   691.09   694.61
eigval :      696.67   696.89   697.35   699.39   710.99   724.28
eigval :      726.57   747.82   773.07   773.38   775.02   775.17
eigval :      776.62   779.37   801.06   804.01   813.02   817.83
eigval :      818.54   824.42   827.29   828.07   836.85   856.04
eigval :      857.62   862.98   865.77   866.89   867.59   868.33
eigval :      869.75   875.10   901.16   907.09   911.60   912.23
eigval :      913.12   914.35   914.77   915.09   915.23   917.59
eigval :      917.75   918.16   921.32   921.62   921.74   921.86
eigval :      923.68   925.34   936.62   937.13   937.46   956.66
eigval :      957.61   957.83   961.75   996.47   999.91  1012.48
eigval :     1013.19  1014.09  1037.83  1061.17  1075.24  1075.40
eigval :     1075.65  1083.61  1084.85  1088.77  1108.18  1108.36
eigval :     1109.10  1114.95  1115.23  1115.50  1138.45  1138.83
eigval :     1138.87  1139.21  1142.04  1153.27  1153.52  1153.80
eigval :     1160.16  1164.60  1165.49  1181.58  1183.21  1183.74
eigval :     1184.32  1184.95  1185.28  1185.58  1188.64  1189.78
eigval :     1193.22  1217.31  1222.22  1235.03  1238.62  1238.86
eigval :     1245.16  1245.38  1245.67  1249.28  1258.90  1261.29
eigval :     1262.03  1265.26  1273.61  1280.49  1288.78  1292.79
eigval :     1292.84  1292.89  1296.60  1299.33  1309.51  1314.68
eigval :     1320.47  1321.11  1322.63  1328.84  1329.39  1329.92
eigval :     1332.14  1332.43  1333.01  1334.13  1343.43  1358.05
eigval :     1396.39  1397.56  1398.30  1398.64  1399.24  1409.67
eigval :     1416.18  1417.21  1417.27  1422.08  1429.95  1430.15
eigval :     1430.88  1431.31  1432.41  1432.57  1453.90  1462.33
eigval :     1462.51  1464.23  1466.03  1475.27  1478.78  1481.04
eigval :     1483.32  1483.72  1484.57  1485.25  1485.36  1485.45
eigval :     1486.23  1489.66  1494.26  1494.79  1495.20  1499.04
eigval :     1499.80  1500.15  1511.39  1520.11  1532.10  1562.41
eigval :     1562.43  1564.34  1568.20  1573.56  1576.67  1578.86
eigval :     1581.09  1582.48  1582.60  1583.66  1592.84  1593.06
eigval :     1594.34  3023.39  3023.54  3023.85  3025.90  3026.21
eigval :     3027.76  3043.38  3043.41  3043.98  3045.16  3045.88
eigval :     3046.23  3050.52  3051.03  3051.74  3054.53  3055.26
eigval :     3055.38  3076.93  3077.53  3078.36  3078.46  3078.53
eigval :     3078.73  3084.25  3084.91  3085.15  3085.25  3085.34
eigval :     3085.76  3087.93  3088.65  3090.32  3091.56  3095.20
eigval :     3095.32  3095.70  3095.91  3097.59  3098.39  3098.73
eigval :     3098.94  3100.57  3101.31  3101.83  3102.20  3102.29
eigval :     3102.58  3102.80  3109.42

   temp. (K)  partition function   enthalpy   heat capacity  entropy
                                   cal/mol     cal/K/mol   cal/K/mol   J/K/mol
 298.15  VIB  0.666E+29            36042.749    224.333    225.019
         ROT  0.370E+09              888.752      2.981     42.189
         INT  0.247E+38            36931.501    227.314    267.208
         TR   0.297E+29             1481.254      4.968     46.503
         TOT                       38412.7552   232.2821   313.7113  1312.5681

       T/K    H(0)-H(T)+PV         H(T)/Eh          T*S/Eh         G(T)/Eh
   ------------------------------------------------------------------------
    298.15    0.612146E-01    0.100653E+01    0.149054E+00    0.857474E+00
   ------------------------------------------------------------------------

         :::::::::::::::::::::::::::::::::::::::::::::::::::::
         ::                  THERMODYNAMIC                  ::
         :::::::::::::::::::::::::::::::::::::::::::::::::::::
         :: total free energy        -182.721540208370 Eh   ::
         ::.................................................::
         :: total energy             -183.579014006319 Eh   ::
         :: zero point energy           0.945313535356 Eh   ::
         :: G(RRHO) w/o ZPVE           -0.087839737407 Eh   ::
         :: G(RRHO) contrib.            0.857473797949 Eh   ::
         :::::::::::::::::::::::::::::::::::::::::::::::::::::

           -------------------------------------------------
          | TOTAL ENERGY             -183.579014006319 Eh   |
          | TOTAL ENTHALPY           -182.572485849031 Eh   |
          | TOTAL FREE ENERGY        -182.721540208370 Eh   |
          | GRADIENT NORM               0.000098674113 Eh/α |
          | HOMO-LUMO GAP               0.942510263226 eV   |
           -------------------------------------------------

 * finished run on 2025/07/17 at 20:31:56.466
