   * xtb version 6.7.1 (edcfbbe) compiled by 'albert@albert-system' on 2024-07-22

   ID    Z sym.   atoms
    1    6 C      1-9, 11-19, 21-39, 41-43, 45-60, 62, 63, 65-71
    2    7 N      10, 20, 40, 44, 64
    3   35 Br     61
    4    1 H      72-121

          program call               : xtb data2507/toluene/3DMAC-BP-Br/3DMAC-BP-Br.xyz --gfn 2 --gbsa toluene --ohess vtight --parallel 40 --molden --ceasefiles --namespace data2507/toluene/3DMAC-BP-Br/3DMAC-BP-Br_toluene_S0_preOpt
      * Solvation model:               GBSA
        Solvent                        toluene
        Solvent mass                       9.2140E+01 g/mol
          :  Hamiltonian                  GFN2-xTB          :
 * total energy  :  -183.5714918 Eh     change       -0.2489770E-08 Eh
 * total energy  :  -183.6010783 Eh     change       -0.2958652E-01 Eh
 * total energy  :  -183.6127292 Eh     change       -0.1165087E-01 Eh
 * total energy  :  -183.6153944 Eh     change       -0.2665233E-02 Eh
 * total energy  :  -183.6167777 Eh     change       -0.1383242E-02 Eh
 * total energy  :  -183.6175535 Eh     change       -0.7758158E-03 Eh
 * total energy  :  -183.6178664 Eh     change       -0.3129001E-03 Eh
 * total energy  :  -183.6179805 Eh     change       -0.1140778E-03 Eh
 * total energy  :  -183.6180170 Eh     change       -0.3656852E-04 Eh
 * total energy  :  -183.6180325 Eh     change       -0.1548677E-04 Eh
 * total energy  :  -183.6187942 Eh     change       -0.4537328E-06 Eh
 * total energy  :  -183.6187946 Eh     change       -0.4213465E-06 Eh
 * total energy  :  -183.6187950 Eh     change       -0.3249607E-06 Eh
 * total energy  :  -183.6187952 Eh     change       -0.2033023E-06 Eh
 * total energy  :  -183.6187953 Eh     change       -0.1619765E-06 Eh
 * total energy  :  -183.6187955 Eh     change       -0.1388530E-06 Eh
 * total energy  :  -183.6187956 Eh     change       -0.1444742E-06 Eh
 * total energy  :  -183.6187957 Eh     change       -0.1005034E-06 Eh
 * total energy  :  -183.6187958 Eh     change       -0.8423382E-07 Eh
   *** GEOMETRY OPTIMIZATION CONVERGED AFTER 184 ITERATIONS ***

 final structure:
================
121
 xtb: 6.7.1 (edcfbbe)
C           -8.26553516200893       -3.69075586955904       -0.58373794782364
C           -6.97062404845354       -4.43298953981999       -0.20239710961723
C           -7.28768543530870       -5.88585515564447        0.19947573506962
C           -6.04980766337435       -4.45033179834581       -1.40736290598859
C           -6.48386793221855       -5.03664388076847       -2.58929393387968
C           -5.70424111764398       -5.05551771666512       -3.73083052175917
C           -4.45921566469713       -4.45291918256944       -3.70752619071748
C           -4.00277273507171       -3.86586373424433       -2.54600471459349
C           -4.77338964427159       -3.87963084912859       -1.37902937107465
N           -4.27683017386334       -3.29120718268715       -0.22165199073378
C           -2.93542403369930       -2.83777106755063       -0.20927122998561
C           -1.88982648720824       -3.76328418440804       -0.27120853360209
C           -0.59180595263066       -3.31676319049534       -0.25173252892587
C           -0.30244322261382       -1.95012674011370       -0.16560823231496
C           -1.34712041889982       -1.00490045829226       -0.10118674738255
C           -2.66002401044098       -1.48247532938534       -0.13219136558208
C           -1.03617079546566        0.41602946136419       -0.00985165352091
C           -2.03062117741683        1.39549676765714        0.05693373547616
C           -1.71579126205792        2.74163094006012        0.13933017055397
N           -2.74887252040179        3.70968939688941        0.19196710839695
C           -3.49211039361059        3.97712576763359       -0.95192124205824
C           -3.23638294875793        3.26964001386334       -2.13077897644120
C           -3.96274343469363        3.50969589879716       -3.27849377284179
C           -4.95739993070994        4.47088873816759       -3.27533748598171
C           -5.19343732338003        5.19165134949822       -2.11946380827652
C           -4.47598749860392        4.97205237510152       -0.95065647230949
C           -4.76004224150702        5.83254545577167        0.26620377306771
C           -6.23567615832347        5.65328019881778        0.67027220145258
C           -4.48214566912718        7.30283532487285       -0.09982634785237
C           -3.88667130375843        5.44850208920507        1.44540701284475
C           -4.02984415453413        6.12571456824024        2.64952469806009
C           -3.28791025860285        5.79991681576734        3.76974441201738
C           -2.38714926624711        4.75220413348913        3.70121064710707
C           -2.22283141264212        4.06511600798182        2.51668299828447
C           -2.94624066544792        4.41584134150688        1.37242348081849
C           -0.37934587731610        3.14930698847740        0.16740330221946
C            0.61505236838011        2.20414343011171        0.11027669054401
C            0.30810117349445        0.84155084513618        0.02093208080831
C            1.38020619372632       -0.12363005147105       -0.03889080096225
N            2.62989644653489        0.30141533078020        0.00400894740500
C            3.60901282147163       -0.61244531156278       -0.05551638069428
C            4.95695310206311       -0.20123772832760       -0.00705895979433
C            5.96824171612272       -1.12327579675908       -0.07064397188632
N            7.32421065775126       -0.72356225099210       -0.01701684585488
C            7.99965464602736       -0.47506173454882       -1.20598344889024
C            7.31064811603870       -0.55052429948727       -2.41867664523384
C            7.95465260412282       -0.31401274805557       -3.61569208606188
C            9.30043842407815        0.00382250026341       -3.61949628905981
C            9.98164118514125        0.08209303113848       -2.41844145723500
C            9.35930514184603       -0.15164819480589       -1.19954875896416
C           10.16244327129603       -0.04912569015312        0.08382996640331
C           11.31530728977128       -1.06872783217246        0.02686043161812
C           10.72137791719239        1.38158731872483        0.20134854091249
C            9.31519398637304       -0.34082797700034        1.30852884931547
C            9.89390921518130       -0.29397541349205        2.56979123341475
C            9.17276888413134       -0.55427492977567        3.72081804076581
C            7.83008662345607       -0.86986826137837        3.62189444570302
C            7.22859597664147       -0.92099880782940        2.38130324158617
C            7.95747800594568       -0.66006380514556        1.21864043417268
C            5.64635997916269       -2.49991032179544       -0.18985852368595
Br           7.07809591170174       -3.75106704638319       -0.28058874392894
C            4.35486619520677       -2.93927132166048       -0.23790357903800
C            3.30388717169288       -2.00109452965278       -0.16801721544325
N            2.03247176289654       -2.42507751537983       -0.20562865397291
C            1.07468720226588       -1.51825307248169       -0.13886359181570
C           -5.03652578313921       -3.21233595070323        0.94049527948512
C           -4.49181023403004       -2.63849006477770        2.09360790098391
C           -5.22699570698939       -2.53833114795802        3.25638519341781
C           -6.52190765590058       -3.02274182574625        3.29627250053301
C           -7.05223294442547       -3.61926763418954        2.16759615284891
C           -6.33523867681810       -3.73149819403358        0.98332866665965
H           -8.03627320457294       -2.66306237654150       -0.86078398422451
H           -8.75537369247218       -4.17145138606338       -1.42574963137392
H           -8.96271324339964       -3.67406286438825        0.24917008116301
H           -7.95152675795166       -5.91483213443325        1.05905674602011
H           -6.36839403169550       -6.40878956838089        0.45838566287902
H           -7.76581034636697       -6.41764218627115       -0.61848764720428
H           -7.46090100217061       -5.49392748241748       -2.62622847057495
H           -6.07112119471664       -5.52500960252703       -4.63117134345589
H           -3.84164862586288       -4.43402103586206       -4.59355027006275
H           -3.03647890695670       -3.38540603688662       -2.54332784447307
H           -2.11429432243732       -4.81730234773894       -0.33248245075665
H            0.23606670907502       -4.00653572970529       -0.29313560818699
H           -3.49665055574695       -0.80362072534732       -0.09536926411463
H           -3.07424382673246        1.12568132455636        0.04513279563148
H           -2.45221609147845        2.52887084419273       -2.15207943702344
H           -3.74545122545333        2.94675592341120       -4.17445622904513
H           -5.53567213959765        4.66717362058793       -4.16565221161214
H           -5.95909607033410        5.95223261233210       -2.13548507055511
H           -6.48094579164905        6.27181343083344        1.52893004630535
H           -6.42517143384301        4.61323748533107        0.93082452298422
H           -6.89747751413212        5.92850282890795       -0.14604361196756
H           -3.44077332948307        7.42139496568925       -0.39500198042949
H           -4.67531804167540        7.95560471322353        0.74686689327821
H           -5.11087405625860        7.62234496336206       -0.92620308774760
H           -4.74191837394946        6.93369099173987        2.72170429877393
H           -3.42167212601195        6.35068198448872        4.68865214918119
H           -1.81219028275889        4.46431338337853        4.56918692994911
H           -1.52758099921738        3.24063899952125        2.47824048207819
H           -0.14452292090224        4.20085260587911        0.23298718009388
H            1.65558907034718        2.48717876069933        0.12540930327673
H            5.17886300504207        0.85108173661208        0.08190673709223
H            6.25864593852529       -0.79688218716385       -2.42390204974822
H            7.40168909376625       -0.37988144981038       -4.54117797706499
H            9.81690457227333        0.18970301355652       -4.54898150317999
H           11.03135501346142        0.33178326592210       -2.43783875817173
H           11.95880651930529       -0.87772437507243       -0.82721794882479
H           10.91585418047499       -2.07742256083877       -0.06283130056524
H           11.92089772922523       -1.01897838074484        0.92730895279750
H           11.32213429464840        1.48931083379571        1.09996640052316
H           11.34304425349707        1.62549288266463       -0.65544251669980
H            9.90259721737658        2.09786031462690        0.24703328717915
H           10.94097875415661       -0.04974980960199        2.66289072549676
H            9.65625371949600       -0.51169547781853        4.68509150524303
H            7.24635058619696       -1.07807542940587        4.50653813925307
H            6.17901890538143       -1.16780672519066        2.31257057702459
H            4.11293942932358       -3.98669630569226       -0.32583932320590
H           -3.47636329121246       -2.27422988393394        2.08350295674872
H           -4.78259150034812       -2.08595973560371        4.13090492871719
H           -7.10940264543347       -2.94923248899943        4.19905646154200
H           -8.05616444011818       -4.01234495078363        2.21781192089609

          :  Hamiltonian                  GFN2-xTB          :
         :: gradient norm              0.000040697477 Eh/a0 ::
         :: HOMO-LUMO gap              0.737543858247 eV    ::
         :: SCC energy              -186.846784264486 Eh    ::
         :: -> dispersion             -0.182675303656 Eh    ::
         :: -> Gsolv                  -0.071687147852 Eh    ::
         :: repulsion energy           3.227988476952 Eh    ::

    * Orbital Energies and Occupations

         #    Occupation            Energy/Eh            Energy/eV
      -------------------------------------------------------------
         1        2.0000           -0.8488657             -23.0988
       ...           ...                  ...                  ...
       159        2.0000           -0.4054354             -11.0325
       160        2.0000           -0.4046406             -11.0108
       161        2.0000           -0.4037985             -10.9879
       162        2.0000           -0.4010917             -10.9143
       163        2.0000           -0.3995203             -10.8715
       164        2.0000           -0.3993263             -10.8662
       165        2.0000           -0.3956685             -10.7667
       166        2.0000           -0.3941548             -10.7255
       167        2.0000           -0.3940799             -10.7235
       168        2.0000           -0.3707447             -10.0885
       169        2.0000           -0.3527962              -9.6001
       170        2.0000           -0.3498497              -9.5199
       171        2.0000           -0.3496039              -9.5132 (HOMO)
       172        0.0000           -0.3224996              -8.7757 (LUMO)
       173                         -0.2862024              -7.7880
       174                         -0.2708139              -7.3692
       175                         -0.2480563              -6.7500
       176                         -0.2436923              -6.6312
       177                         -0.2274907              -6.1903
       178                         -0.2264229              -6.1613
       179                         -0.2262897              -6.1577
       180                         -0.2248092              -6.1174
       181                         -0.2228085              -6.0629
       182                         -0.2217049              -6.0329
       ...                                ...                  ...
       339                          0.6938927              18.8818
      -------------------------------------------------------------
                  HL-Gap            0.0271043 Eh            0.7375 eV

     #   Z          covCN         q      C6AA      α(0)
     1   6 C        3.761    -0.104    22.537     6.768
     2   6 C        3.909     0.021    20.160     6.382
     3   6 C        3.761    -0.104    22.526     6.766
     4   6 C        2.979    -0.012    28.316     8.729
     5   6 C        2.928    -0.037    28.919     8.819
     6   6 C        2.917    -0.045    29.111     8.848
     7   6 C        2.919    -0.034    28.853     8.808
     8   6 C        2.924    -0.059    29.464     8.902
     9   6 C        2.927     0.057    26.715     8.476
    10   7 N        2.753    -0.069    22.573     7.056
    11   6 C        2.925     0.075    26.323     8.414
    12   6 C        2.918    -0.036    28.899     8.816
    13   6 C        2.923    -0.026    28.643     8.777
    14   6 C        2.987    -0.007    28.196     8.710
    15   6 C        2.975     0.010    27.796     8.648
    16   6 C        2.924    -0.044    29.081     8.844
    17   6 C        2.975     0.010    27.795     8.648
    18   6 C        2.924    -0.043    29.077     8.843
    19   6 C        2.925     0.075    26.321     8.413
    20   7 N        2.754    -0.069    22.583     7.058
    21   6 C        2.926     0.057    26.715     8.476
    22   6 C        2.924    -0.060    29.494     8.906
    23   6 C        2.919    -0.034    28.856     8.809
    24   6 C        2.917    -0.045    29.120     8.849
    25   6 C        2.928    -0.037    28.919     8.819
    26   6 C        2.979    -0.013    28.324     8.730
    27   6 C        3.909     0.021    20.160     6.382
    28   6 C        3.761    -0.104    22.535     6.767
    29   6 C        3.761    -0.104    22.527     6.766
    30   6 C        2.979    -0.013    28.321     8.729
    31   6 C        2.928    -0.037    28.920     8.819
    32   6 C        2.917    -0.045    29.116     8.848
    33   6 C        2.919    -0.034    28.854     8.809
    34   6 C        2.924    -0.059    29.470     8.902
    35   6 C        2.927     0.057    26.713     8.476
    36   6 C        2.918    -0.036    28.898     8.815
    37   6 C        2.923    -0.026    28.643     8.777
    38   6 C        2.987    -0.007    28.191     8.710
    39   6 C        2.960     0.088    26.047     8.371
    40   7 N        1.848    -0.250    27.367     7.753
    41   6 C        2.964     0.080    26.209     8.397
    42   6 C        2.922    -0.053    29.322     8.880
    43   6 C        2.990     0.073    26.353     8.421
    44   7 N        2.760    -0.073    22.659     7.070
    45   6 C        2.928     0.061    26.630     8.463
    46   6 C        2.924    -0.057    29.422     8.895
    47   6 C        2.919    -0.034    28.844     8.807
    48   6 C        2.917    -0.044    29.101     8.846
    49   6 C        2.928    -0.036    28.899     8.816
    50   6 C        2.979    -0.011    28.284     8.724
    51   6 C        3.908     0.022    20.152     6.381
    52   6 C        3.761    -0.105    22.550     6.770
    53   6 C        3.761    -0.105    22.550     6.770
    54   6 C        2.979    -0.011    28.284     8.724
    55   6 C        2.928    -0.036    28.899     8.816
    56   6 C        2.917    -0.044    29.101     8.846
    57   6 C        2.919    -0.034    28.844     8.807
    58   6 C        2.924    -0.057    29.425     8.896
    59   6 C        2.928     0.061    26.632     8.463
    60   6 C        2.913     0.068    26.474     8.437
    61  35 Br       1.074    -0.151   189.224    22.180
    62   6 C        2.994    -0.051    29.248     8.871
    63   6 C        2.968     0.080    26.207     8.397
    64   7 N        1.849    -0.251    27.383     7.756
    65   6 C        2.961     0.088    26.039     8.370
    66   6 C        2.925     0.057    26.715     8.476
    67   6 C        2.924    -0.060    29.496     8.906
    68   6 C        2.919    -0.034    28.855     8.809
    69   6 C        2.917    -0.045    29.117     8.849
    70   6 C        2.928    -0.037    28.919     8.819
    71   6 C        2.979    -0.012    28.320     8.729
    72   1 H        0.925     0.031     2.576     2.510
    73   1 H        0.925     0.042     2.418     2.432
    74   1 H        0.925     0.043     2.415     2.430
    75   1 H        0.925     0.042     2.420     2.433
    76   1 H        0.925     0.030     2.580     2.512
    77   1 H        0.925     0.043     2.416     2.430
    78   1 H        0.926     0.034     2.524     2.484
    79   1 H        0.926     0.027     2.623     2.533
    80   1 H        0.926     0.028     2.617     2.530
    81   1 H        0.926     0.025     2.663     2.552
    82   1 H        0.926     0.054     2.266     2.354
    83   1 H        0.926     0.066     2.126     2.280
    84   1 H        0.926     0.057     2.237     2.339
    85   1 H        0.926     0.057     2.239     2.340
    86   1 H        0.926     0.025     2.665     2.553
    87   1 H        0.926     0.027     2.624     2.533
    88   1 H        0.926     0.027     2.628     2.535
    89   1 H        0.926     0.034     2.526     2.485
    90   1 H        0.925     0.042     2.418     2.432
    91   1 H        0.925     0.031     2.577     2.510
    92   1 H        0.925     0.042     2.417     2.431
    93   1 H        0.925     0.030     2.580     2.512
    94   1 H        0.925     0.042     2.417     2.431
    95   1 H        0.925     0.042     2.420     2.433
    96   1 H        0.926     0.034     2.526     2.486
    97   1 H        0.926     0.027     2.626     2.534
    98   1 H        0.926     0.028     2.620     2.531
    99   1 H        0.926     0.024     2.667     2.554
   100   1 H        0.926     0.054     2.264     2.353
   101   1 H        0.926     0.066     2.126     2.280
   102   1 H        0.926     0.071     2.072     2.251
   103   1 H        0.926     0.012     2.854     2.642
   104   1 H        0.926     0.028     2.618     2.530
   105   1 H        0.926     0.030     2.588     2.515
   106   1 H        0.926     0.037     2.483     2.464
   107   1 H        0.925     0.044     2.399     2.422
   108   1 H        0.925     0.033     2.549     2.497
   109   1 H        0.925     0.044     2.400     2.423
   110   1 H        0.925     0.044     2.397     2.421
   111   1 H        0.925     0.044     2.397     2.421
   112   1 H        0.925     0.031     2.577     2.510
   113   1 H        0.926     0.037     2.483     2.464
   114   1 H        0.926     0.030     2.587     2.515
   115   1 H        0.926     0.028     2.619     2.531
   116   1 H        0.926     0.012     2.856     2.643
   117   1 H        0.926     0.076     2.016     2.220
   118   1 H        0.926     0.025     2.657     2.549
   119   1 H        0.926     0.028     2.622     2.532
   120   1 H        0.926     0.027     2.626     2.534
   121   1 H        0.926     0.035     2.523     2.484

molecular dipole:
                 x           y           z       tot (Debye)
 q only:       -1.630       0.866       0.068
   full:       -1.855       1.053       0.080       5.425

 projected vibrational frequencies (cm⁻¹)
eigval :       -0.00    -0.00    -0.00     0.00     0.00     0.00
eigval :        6.63     8.51     9.82    11.25    13.47    16.33
eigval :       18.48    25.35    28.72    35.76    37.67    41.64
eigval :       48.28    68.07    70.67    82.09    87.82    91.72
eigval :       95.49    96.92   100.62   101.50   103.93   108.41
eigval :      114.02   115.98   122.07   126.42   130.45   131.04
eigval :      148.82   149.50   164.78   182.09   191.41   192.79
eigval :      195.29   211.98   218.43   219.07   220.69   224.83
eigval :      231.32   236.76   237.68   240.78   250.02   255.96
eigval :      269.83   299.13   300.90   304.47   306.99   319.74
eigval :      329.25   329.95   330.51   332.10   332.99   344.78
eigval :      346.55   349.45   357.28   363.68   377.16   377.77
eigval :      379.94   386.61   388.65   393.11   394.57   410.69
eigval :      410.86   417.27   432.20   439.96   444.80   449.31
eigval :      449.98   452.52   453.85   464.92   468.31   477.82
eigval :      492.78   497.76   507.14   513.13   515.43   515.98
eigval :      537.05   542.47   545.97   547.50   548.18   548.42
eigval :      551.19   556.12   557.29   578.15   585.52   586.92
eigval :      587.23   600.29   601.64   608.36   609.49   633.40
eigval :      650.55   653.24   654.72   661.38   664.19   679.65
eigval :      682.25   683.07   683.91   693.40   694.04   695.05
eigval :      695.88   700.87   706.73   714.55   728.46   732.97
eigval :      753.96   769.96   774.40   775.16   775.49   777.43
eigval :      779.50   780.79   803.43   822.08   823.29   823.76
eigval :      832.09   834.60   841.03   844.46   862.72   864.07
eigval :      865.24   865.36   866.83   869.82   870.25   870.70
eigval :      873.98   883.65   909.26   911.47   913.01   913.97
eigval :      914.65   914.88   915.08   915.43   915.63   917.53
eigval :      919.13   920.07   921.43   921.55   923.67   924.52
eigval :      926.86   926.95   937.39   937.83   939.14   956.98
eigval :      957.30   959.16   975.05   994.34  1000.82  1014.25
eigval :     1014.53  1014.55  1045.10  1061.32  1076.11  1076.12
eigval :     1076.36  1081.60  1084.20  1089.94  1112.94  1113.51
eigval :     1113.56  1118.81  1119.11  1119.51  1139.34  1139.76
eigval :     1140.19  1140.52  1143.15  1157.69  1158.03  1158.94
eigval :     1161.46  1169.45  1169.97  1181.95  1184.94  1185.96
eigval :     1186.59  1187.11  1187.42  1188.17  1190.72  1190.86
eigval :     1194.08  1221.73  1222.87  1235.17  1241.48  1242.37
eigval :     1246.65  1249.00  1249.10  1251.42  1264.83  1266.17
eigval :     1268.72  1273.18  1274.22  1276.86  1290.23  1293.04
eigval :     1293.35  1293.62  1306.25  1312.85  1317.05  1320.08
eigval :     1323.17  1324.28  1328.95  1331.00  1332.39  1332.44
eigval :     1333.02  1335.57  1335.99  1348.04  1373.66  1398.01
eigval :     1400.25  1400.52  1401.19  1402.61  1418.98  1419.07
eigval :     1419.58  1429.07  1430.88  1434.90  1435.46  1436.09
eigval :     1437.98  1438.16  1439.25  1445.12  1465.83  1474.70
eigval :     1475.02  1476.81  1478.71  1485.44  1485.81  1486.43
eigval :     1486.52  1486.89  1488.22  1489.36  1492.78  1492.99
eigval :     1494.82  1495.44  1496.41  1497.64  1501.71  1502.08
eigval :     1502.58  1517.31  1538.96  1548.06  1572.62  1573.54
eigval :     1574.13  1576.00  1576.52  1584.04  1588.95  1589.67
eigval :     1590.10  1590.39  1591.53  1591.90  1599.67  1600.01
eigval :     1600.75  3019.96  3020.46  3022.58  3022.99  3023.66
eigval :     3030.17  3039.11  3039.81  3041.22  3042.04  3042.11
eigval :     3043.16  3047.93  3048.50  3049.66  3053.08  3053.21
eigval :     3053.90  3071.00  3071.95  3071.97  3072.02  3073.78
eigval :     3074.27  3079.09  3080.15  3080.25  3080.73  3080.77
eigval :     3080.79  3085.56  3086.12  3091.23  3091.51  3091.67
eigval :     3092.47  3093.92  3095.40  3095.64  3096.84  3098.80
eigval :     3099.18  3100.09  3100.91  3103.17  3106.69  3106.90
eigval :     3111.16  3113.00  3116.68

   temp. (K)  partition function   enthalpy   heat capacity  entropy
                                   cal/mol     cal/K/mol   cal/K/mol   J/K/mol
 298.15  VIB  0.594E+29            35883.785    223.313    224.470
         ROT  0.370E+09              888.752      2.981     42.190
         INT  0.220E+38            36772.537    226.294    266.660
         TR   0.297E+29             1481.254      4.968     46.503
         TOT                       38253.7913   231.2619   313.1638  1310.2774

       T/K    H(0)-H(T)+PV         H(T)/Eh          T*S/Eh         G(T)/Eh
   ------------------------------------------------------------------------
    298.15    0.609613E-01    0.100907E+01    0.148794E+00    0.860272E+00
   ------------------------------------------------------------------------

         :::::::::::::::::::::::::::::::::::::::::::::::::::::
         ::                  THERMODYNAMIC                  ::
         :::::::::::::::::::::::::::::::::::::::::::::::::::::
         :: total free energy        -182.758523813777 Eh   ::
         ::.................................................::
         :: total energy             -183.618795784789 Eh   ::
         :: zero point energy           0.948104902240 Eh   ::
         :: G(RRHO) w/o ZPVE           -0.087832931228 Eh   ::
         :: G(RRHO) contrib.            0.860271971012 Eh   ::
         :::::::::::::::::::::::::::::::::::::::::::::::::::::

           -------------------------------------------------
          | TOTAL ENERGY             -183.618795784789 Eh   |
          | TOTAL ENTHALPY           -182.609729585784 Eh   |
          | TOTAL FREE ENERGY        -182.758523813777 Eh   |
          | GRADIENT NORM               0.000040700909 Eh/α |
          | HOMO-LUMO GAP               0.737546199544 eV   |
           -------------------------------------------------

 * finished run on 2025/07/17 at 19:59:18.161
