   * xtb version 6.7.1 (edcfbbe) compiled by 'albert@albert-system' on 2024-07-22

   ID    Z sym.   atoms
    1    6 C      1-9, 11-19, 21-39, 41-43, 45-60, 62, 63, 65-71
    2    7 N      10, 20, 40, 44, 64
    3   35 Br     61
    4    1 H      72-121

          program call               : xtb data2507/toluene/3DMAC-BP-Br/3DMAC-BP-Br_toluene_S0_finalOpt.xtbopt.xyz --gfn 2 --uhf 2 --gbsa toluene --ohess vtight --parallel 40 --molden --ceasefiles --namespace data2507/toluene/3DMAC-BP-Br/3DMAC-BP-Br_toluene_T1_preOpt
      * Solvation model:               GBSA
        Solvent                        toluene
        Solvent mass                       9.2140E+01 g/mol
          :  Hamiltonian                  GFN2-xTB          :
 * total energy  :  -183.5723277 Eh     change       -0.1826663E-07 Eh
 * total energy  :  -183.5744979 Eh     change       -0.2170240E-02 Eh
 * total energy  :  -183.5751583 Eh     change       -0.6603159E-03 Eh
 * total energy  :  -183.5752247 Eh     change       -0.6645585E-04 Eh
 * total energy  :  -183.5752600 Eh     change       -0.3527856E-04 Eh
 * total energy  :  -183.5752676 Eh     change       -0.7616120E-05 Eh
 * total energy  :  -183.5752743 Eh     change       -0.6724677E-05 Eh
 * total energy  :  -183.5752805 Eh     change       -0.6206613E-05 Eh
 * total energy  :  -183.5752867 Eh     change       -0.6120360E-05 Eh
 * total energy  :  -183.5752931 Eh     change       -0.6419117E-05 Eh
 * total energy  :  -183.5753706 Eh     change       -0.3702871E-06 Eh
 * total energy  :  -183.5753708 Eh     change       -0.2496929E-06 Eh
 * total energy  :  -183.5753710 Eh     change       -0.1964879E-06 Eh
 * total energy  :  -183.5753712 Eh     change       -0.2175834E-06 Eh
 * total energy  :  -183.5753715 Eh     change       -0.2863302E-06 Eh
 * total energy  :  -183.5753719 Eh     change       -0.4075335E-06 Eh
 * total energy  :  -183.5753724 Eh     change       -0.5265353E-06 Eh
 * total energy  :  -183.5753731 Eh     change       -0.6719071E-06 Eh
 * total energy  :  -183.5753731 Eh     change       -0.7765323E-08 Eh
   *** GEOMETRY OPTIMIZATION CONVERGED AFTER 68 ITERATIONS ***

 final structure:
================
121
 xtb: 6.7.1 (edcfbbe)
C           -7.78407428742343       -4.64478157277032       -2.50623487765484
C           -6.51521814756673       -4.15524104571717       -1.80783087411969
C           -5.56878795653541       -3.58089839896544       -2.88250449193365
C           -6.79966707652383       -3.07978386376190       -0.77278183672854
C           -7.99992472237238       -2.39455960502633       -0.66047634201859
C           -8.18173308520418       -1.43157958732665        0.31872949069245
C           -7.17388249239225       -1.16373316074534        1.22878995846107
C           -5.97470257776218       -1.84644516354218        1.14429696697917
C           -5.77324061768162       -2.77332214175197        0.12718272671248
N           -4.57275016424287       -3.50770173501707        0.03623832094933
C           -3.32518757531468       -2.91986058820250       -0.02950094040328
C           -2.16292558026006       -3.69275152231212       -0.23855353896968
C           -0.93355831087514       -3.09724769488767       -0.26821731801991
C           -0.77990956883097       -1.70979233527064       -0.10889551882049
C           -1.93889552433303       -0.90748161149065        0.00359034031632
C           -3.18418276258228       -1.53696654774877        0.02535752747839
C           -1.79585648135638        0.52582047100991        0.11841547904426
C           -2.89184596967293        1.39431966550663        0.18011980018185
C           -2.72792641867676        2.75414305704880        0.34042340140028
N           -3.87342667434470        3.59423445265520        0.41434612061046
C           -4.17484381314345        4.41532473169581       -0.65837369842929
C           -3.36527930987091        4.38792880378436       -1.80123929491559
C           -3.62634899074702        5.21055704738397       -2.87532310803034
C           -4.71003407623021        6.07236027505936       -2.83630480436776
C           -5.52994971634674        6.07957409690585       -1.72290831738057
C           -5.29221020909718        5.26104061773080       -0.62672063535613
C           -6.24924856346177        5.28992653166963        0.54783967935957
C           -7.64872821650015        4.88145134697249        0.04811114894471
C           -6.28647034954028        6.71753270819976        1.12634626522159
C           -5.82519215268528        4.33533422001861        1.64566045851554
C           -6.59333171920740        4.23572771554606        2.79831420137851
C           -6.24310824358513        3.40266986938412        3.84478691129650
C           -5.08021528202879        2.65534496630934        3.75632463684668
C           -4.29890841972886        2.73349655441091        2.62410418506137
C           -4.66662108292597        3.55221072220563        1.54836182676845
C           -1.44237858376931        3.30536083191787        0.43742315028021
C           -0.35255959830819        2.48158241279483        0.35052774752295
C           -0.49920186448486        1.09229941200830        0.18845269935920
C            0.66526465781797        0.27068481730848        0.09358833134789
N            1.88175156869569        0.82024949623293        0.15483851579055
C            2.97072015310556        0.05783121758940        0.04610638768794
C            4.25435245599854        0.60564041482704        0.10326695750238
C            5.38273163767799       -0.19693449205117       -0.00941606122768
N            6.67988793496548        0.37995200556457        0.04987994937726
C            7.27806013748219        0.80437819754004       -1.12301489128589
C            6.56861018765086        0.72674839141501       -2.32694967938771
C            7.14004084902585        1.13512899447367       -3.51249357179351
C            8.43273507861241        1.63182512986442       -3.51755775943076
C            9.13503465925005        1.71101142030478       -2.32878353014530
C            8.58581844503615        1.30648906285021       -1.11970158226894
C            9.40754554966901        1.40869168566288        0.14967423368952
C           10.66731098671750        0.53597657359609       -0.00889798730924
C            9.80414418224770        2.88211497175695        0.36550989073670
C            8.63643028860361        0.93210816029438        1.36417477199381
C            9.23457019302579        0.96726975822590        2.61639777066243
C            8.57537471024179        0.54669093283798        3.75712339171223
C            7.27618700527000        0.07741633897929        3.65868837016346
C            6.65728771049085        0.03035521575150        2.42847983971323
C            7.32487506850008        0.44887541081817        1.27177423142884
C            5.22554741826634       -1.56929481291916       -0.18014701497631
Br           6.78020239799022       -2.66818895933077       -0.33514060981818
C            3.97283823323645       -2.15554978577676       -0.24072687550112
C            2.82713666112473       -1.36584157375242       -0.13188101189014
N            1.60598278261333       -1.90485939024437       -0.18528422825981
C            0.52462823962642       -1.13281969039819       -0.07583778266152
C           -4.80272305984946       -4.88559158168344       -0.15140363356279
C           -4.14592954489758       -5.83673181265482        0.62088728269531
C           -4.42593390110515       -7.17932719929868        0.44673303925959
C           -5.38035418966629       -7.56861918634178       -0.47650595552871
C           -6.07059606260859       -6.61679558541935       -1.20918337806273
C           -5.79813926775851       -5.26598715420462       -1.05865112798713
H           -8.48809334849819       -5.06212347146318       -1.78976349254942
H           -8.25978324762990       -3.82333766269530       -3.03582185765911
H           -7.53572658391417       -5.40336395152857       -3.24406687364275
H           -5.32654682944738       -4.35239733482186       -3.61047808663705
H           -4.64049106837954       -3.21640948442357       -2.45100951064103
H           -6.05398204942954       -2.75431441949950       -3.39752993098042
H           -8.81023580800295       -2.60213167412815       -1.33995488567904
H           -9.12050346999594       -0.90156883972650        0.37966351060582
H           -7.32189721411789       -0.43472242317661        2.01183584450965
H           -5.19759648398539       -1.67715731677871        1.87503945685113
H           -2.23969479022210       -4.75597062416463       -0.39770745359959
H           -0.04138488733540       -3.68715809387787       -0.41439781903759
H           -4.07291919487112       -0.93363687561856        0.07769569139522
H           -3.89871306681872        1.01485545998531        0.10592053627470
H           -2.52689923091651        3.71063229387332       -1.84391550407340
H           -2.98476185744128        5.17484086643402       -3.74323756152635
H           -4.92123465159357        6.72568017636877       -3.66916317559869
H           -6.38049893460765        6.74355783948994       -1.71476896419737
H           -7.98733385162723        5.54792494417046       -0.73981215073103
H           -8.37272081971956        4.91465956030443        0.85706941608456
H           -7.61985541027234        3.86765592654439       -0.34757827581333
H           -5.29681327100411        7.00104314816459        1.48040548356328
H           -6.97976942968111        6.77881007942006        1.96012743206712
H           -6.59883399675011        7.43270842871505        0.37102251486991
H           -7.49221971252935        4.82571160772317        2.88878881105036
H           -6.86544149203312        3.34638312734011        4.72502926930697
H           -4.77744480223946        2.01329852353462        4.57019141883371
H           -3.38748814399862        2.15920086920135        2.56911144953189
H           -1.32728456374890        4.37015703870792        0.57356356173945
H            0.65097000520525        2.87404499956883        0.41094557800433
H            4.36453991758938        1.67066375356965        0.23540239896086
H            5.56004317396267        0.34085263226483       -2.32663999920010
H            6.57482254972136        1.06397175277364       -4.42989494537751
H            8.89116411242643        1.95269434327934       -4.44054157378919
H           10.14209673165986        2.09772899511082       -2.35037918299054
H           11.25773192065629        0.86236749730702       -0.86011995975994
H           10.38176194464127       -0.50264919709064       -0.16574217592890
H           11.28860355577602        0.59076351505598        0.88025568549387
H           10.41688470769778        2.98999190204009        1.25562751381751
H           10.36694176622350        3.25870442486362       -0.48352113881967
H            8.91112209936599        3.49311542009327        0.48556661243702
H           10.24603904624285        1.33081135063070        2.71091498681372
H            9.07154529361943        0.58510716402603        4.71487319420319
H            6.74267817428122       -0.25246636466581        4.53777478169464
H            5.64312597370169       -0.33347919842822        2.35563487732358
H            3.86270719677126       -3.22022808500546       -0.37226556238738
H           -3.43368354742880       -5.52006417208576        1.36827205971622
H           -3.90881545650555       -7.91685799867693        1.04238198901537
H           -5.60205992674680       -8.61608218424697       -0.61676654788864
H           -6.82653437437977       -6.94564313833188       -1.90330041494558

          :  Hamiltonian                  GFN2-xTB          :
         :: gradient norm              0.000064877571 Eh/a0 ::
         :: HOMO-LUMO gap              1.007280173614 eV    ::
         :: SCC energy              -186.802487458350 Eh    ::
         :: -> dispersion             -0.184378616153 Eh    ::
         :: -> Gsolv                  -0.076661486521 Eh    ::
         :: repulsion energy           3.227114342420 Eh    ::

    * Orbital Energies and Occupations

         #    Occupation            Energy/Eh            Energy/eV
      -------------------------------------------------------------
         1        2.0000           -0.8380005             -22.8032
       ...           ...                  ...                  ...
       160        2.0000           -0.4043988             -11.0043
       161        2.0000           -0.4022641             -10.9462
       162        2.0000           -0.4009511             -10.9104
       163        2.0000           -0.3999716             -10.8838
       164        2.0000           -0.3989721             -10.8566
       165        2.0000           -0.3987545             -10.8507
       166        2.0000           -0.3952548             -10.7554
       167        2.0000           -0.3864736             -10.5165
       168        1.9698           -0.3569621              -9.7134
       169        1.8360           -0.3552124              -9.6658
       170        1.8061           -0.3550188              -9.6606
       171        1.3880           -0.3532320              -9.6119
       172        1.0000           -0.3034823              -8.2582 (HOMO)
       173                         -0.2664656              -7.2509 (LUMO)
       174                         -0.2545118              -6.9256
       175                         -0.2332854              -6.3480
       176                         -0.2325205              -6.3272
       177                         -0.2315300              -6.3003
       178                         -0.2309779              -6.2852
       179                         -0.2280618              -6.2059
       180                         -0.2262817              -6.1574
       181                         -0.2259231              -6.1477
       182                         -0.2256151              -6.1393
       183                         -0.2254034              -6.1335
       ...                                ...                  ...
       339                          0.7084879              19.2789
      -------------------------------------------------------------
                  HL-Gap            0.0370168 Eh            1.0073 eV

     #   Z          covCN         q      C6AA      α(0)
     1   6 C        3.759    -0.109    22.636     6.783
     2   6 C        3.911     0.023    20.128     6.377
     3   6 C        3.761    -0.099    22.441     6.753
     4   6 C        2.987    -0.006    28.158     8.705
     5   6 C        2.922    -0.038    28.951     8.824
     6   6 C        2.919    -0.037    28.918     8.818
     7   6 C        2.919    -0.034    28.845     8.807
     8   6 C        2.920    -0.047    29.155     8.855
     9   6 C        2.951     0.055    26.768     8.486
    10   7 N        2.754    -0.064    22.470     7.040
    11   6 C        2.908     0.068    26.480     8.438
    12   6 C        2.919    -0.056    29.398     8.891
    13   6 C        2.921    -0.030    28.745     8.792
    14   6 C        2.986    -0.020    28.502     8.757
    15   6 C        2.976    -0.001    28.053     8.688
    16   6 C        2.927    -0.067    29.671     8.933
    17   6 C        2.978    -0.003    28.083     8.693
    18   6 C        2.923    -0.045    29.109     8.848
    19   6 C        2.925     0.059    26.683     8.471
    20   7 N        2.754    -0.047    22.143     6.989
    21   6 C        2.928     0.060    26.659     8.467
    22   6 C        2.923    -0.054    29.337     8.882
    23   6 C        2.919    -0.031    28.785     8.798
    24   6 C        2.917    -0.039    28.973     8.827
    25   6 C        2.927    -0.035    28.880     8.813
    26   6 C        2.979    -0.008    28.209     8.712
    27   6 C        3.909     0.022    20.139     6.379
    28   6 C        3.761    -0.106    22.565     6.772
    29   6 C        3.761    -0.105    22.563     6.771
    30   6 C        2.979    -0.008    28.205     8.712
    31   6 C        2.927    -0.035    28.877     8.813
    32   6 C        2.917    -0.039    28.976     8.827
    33   6 C        2.919    -0.031    28.784     8.798
    34   6 C        2.923    -0.054    29.336     8.882
    35   6 C        2.927     0.060    26.664     8.468
    36   6 C        2.916    -0.043    29.061     8.840
    37   6 C        2.923    -0.030    28.760     8.794
    38   6 C        2.986    -0.012    28.303     8.727
    39   6 C        2.945     0.077    26.290     8.409
    40   7 N        1.848    -0.269    27.846     7.821
    41   6 C        2.942     0.084    26.121     8.382
    42   6 C        2.923    -0.077    29.933     8.972
    43   6 C        2.992     0.051    26.846     8.499
    44   7 N        2.759    -0.051    22.231     7.003
    45   6 C        2.929     0.065    26.554     8.451
    46   6 C        2.923    -0.051    29.277     8.873
    47   6 C        2.919    -0.032    28.791     8.799
    48   6 C        2.917    -0.039    28.979     8.828
    49   6 C        2.927    -0.035    28.878     8.813
    50   6 C        2.979    -0.007    28.191     8.709
    51   6 C        3.909     0.023    20.134     6.378
    52   6 C        3.761    -0.106    22.573     6.773
    53   6 C        3.761    -0.106    22.575     6.773
    54   6 C        2.979    -0.007    28.189     8.709
    55   6 C        2.927    -0.035    28.877     8.813
    56   6 C        2.917    -0.039    28.977     8.827
    57   6 C        2.919    -0.032    28.789     8.799
    58   6 C        2.923    -0.051    29.270     8.872
    59   6 C        2.929     0.065    26.550     8.450
    60   6 C        2.913     0.051    26.856     8.498
    61  35 Br       1.066    -0.192   190.381    22.247
    62   6 C        2.988    -0.076    29.881     8.967
    63   6 C        2.946     0.084    26.117     8.382
    64   7 N        1.849    -0.271    27.885     7.826
    65   6 C        2.944     0.084    26.135     8.385
    66   6 C        2.950     0.055    26.756     8.484
    67   6 C        2.920    -0.046    29.149     8.854
    68   6 C        2.919    -0.034    28.841     8.807
    69   6 C        2.919    -0.037    28.919     8.818
    70   6 C        2.923    -0.038    28.953     8.824
    71   6 C        2.987    -0.006    28.164     8.705
    72   1 H        0.925     0.041     2.433     2.439
    73   1 H        0.925     0.045     2.377     2.411
    74   1 H        0.925     0.045     2.383     2.414
    75   1 H        0.925     0.042     2.428     2.437
    76   1 H        0.925     0.033     2.538     2.491
    77   1 H        0.925     0.042     2.422     2.434
    78   1 H        0.926     0.047     2.358     2.401
    79   1 H        0.926     0.037     2.487     2.466
    80   1 H        0.926     0.036     2.496     2.471
    81   1 H        0.926     0.039     2.467     2.456
    82   1 H        0.926     0.042     2.421     2.433
    83   1 H        0.926     0.043     2.407     2.426
    84   1 H        0.926     0.044     2.400     2.423
    85   1 H        0.926     0.046     2.369     2.407
    86   1 H        0.926     0.032     2.562     2.503
    87   1 H        0.926     0.033     2.543     2.494
    88   1 H        0.926     0.034     2.524     2.484
    89   1 H        0.926     0.041     2.429     2.437
    90   1 H        0.925     0.046     2.366     2.406
    91   1 H        0.925     0.047     2.358     2.401
    92   1 H        0.925     0.034     2.533     2.489
    93   1 H        0.925     0.033     2.546     2.495
    94   1 H        0.925     0.046     2.365     2.405
    95   1 H        0.925     0.046     2.364     2.404
    96   1 H        0.926     0.041     2.429     2.437
    97   1 H        0.926     0.034     2.524     2.484
    98   1 H        0.926     0.033     2.543     2.494
    99   1 H        0.926     0.031     2.568     2.506
   100   1 H        0.926     0.045     2.389     2.417
   101   1 H        0.926     0.051     2.312     2.378
   102   1 H        0.926     0.047     2.354     2.399
   103   1 H        0.926     0.020     2.727     2.582
   104   1 H        0.926     0.032     2.554     2.499
   105   1 H        0.926     0.036     2.501     2.473
   106   1 H        0.926     0.043     2.407     2.426
   107   1 H        0.925     0.047     2.352     2.398
   108   1 H        0.925     0.035     2.516     2.480
   109   1 H        0.925     0.047     2.352     2.398
   110   1 H        0.925     0.048     2.348     2.396
   111   1 H        0.925     0.048     2.349     2.397
   112   1 H        0.925     0.033     2.551     2.498
   113   1 H        0.926     0.043     2.407     2.426
   114   1 H        0.926     0.036     2.501     2.473
   115   1 H        0.926     0.032     2.555     2.500
   116   1 H        0.926     0.020     2.731     2.584
   117   1 H        0.926     0.049     2.328     2.386
   118   1 H        0.926     0.038     2.470     2.458
   119   1 H        0.926     0.036     2.507     2.476
   120   1 H        0.926     0.036     2.499     2.472
   121   1 H        0.926     0.047     2.361     2.403

molecular dipole:
                 x           y           z       tot (Debye)
 q only:       -3.898       1.713      -0.084
   full:       -4.156       1.819      -0.016      11.532

 projected vibrational frequencies (cm⁻¹)
eigval :       -0.00    -0.00    -0.00     0.00     0.00     0.00
eigval :        4.83     9.60    11.82    14.43    15.15    18.45
eigval :       19.69    26.91    32.99    37.10    40.20    46.82
eigval :       56.66    61.03    69.81    82.55    86.62    93.67
eigval :       94.17    97.17    98.68   102.01   109.36   112.40
eigval :      124.74   131.08   134.28   136.00   136.99   150.53
eigval :      151.12   169.37   181.73   190.25   194.91   195.75
eigval :      198.23   204.66   213.42   218.76   219.00   221.40
eigval :      229.06   236.96   242.60   257.60   262.71   279.89
eigval :      285.24   294.65   302.42   304.77   306.66   315.53
eigval :      326.21   327.55   328.50   331.36   344.36   344.42
eigval :      347.09   348.86   355.41   367.23   376.58   378.04
eigval :      382.60   386.42   397.39   403.22   405.41   408.77
eigval :      411.99   416.45   424.21   425.65   434.79   442.83
eigval :      449.31   451.94   457.21   463.59   468.53   480.94
eigval :      497.67   503.80   508.37   510.41   511.15   515.57
eigval :      533.34   540.48   544.39   544.81   545.30   547.07
eigval :      551.52   560.49   570.12   574.03   579.12   582.93
eigval :      585.02   586.11   596.23   596.64   602.64   624.92
eigval :      633.69   635.75   646.60   646.99   652.76   664.48
eigval :      679.65   685.58   686.42   686.66   692.29   693.30
eigval :      698.06   698.79   699.45   709.36   722.59   724.02
eigval :      725.14   744.49   766.67   772.01   777.22   778.55
eigval :      778.69   782.65   793.54   801.12   803.54   809.53
eigval :      813.67   820.19   824.53   828.00   836.46   843.57
eigval :      857.25   860.45   863.30   868.96   871.95   873.72
eigval :      885.13   891.74   900.04   904.65   907.11   911.51
eigval :      911.90   913.84   914.69   915.01   915.14   916.61
eigval :      916.82   918.17   921.73   922.21   924.53   924.59
eigval :      936.78   937.57   938.31   940.52   943.13   957.52
eigval :      957.73   958.88   967.15   999.90  1000.18  1009.17
eigval :     1013.01  1013.79  1042.20  1062.33  1072.67  1075.37
eigval :     1075.49  1081.55  1084.90  1088.55  1098.82  1106.43
eigval :     1107.28  1109.44  1114.06  1115.63  1136.67  1138.36
eigval :     1138.56  1142.66  1150.63  1152.93  1153.46  1154.75
eigval :     1163.41  1168.59  1173.22  1182.09  1182.49  1182.89
eigval :     1183.29  1184.95  1186.10  1188.54  1191.39  1191.76
eigval :     1194.42  1221.09  1227.37  1230.50  1234.77  1241.02
eigval :     1243.83  1245.26  1250.06  1255.20  1259.67  1260.14
eigval :     1267.19  1272.10  1273.46  1276.75  1282.27  1283.68
eigval :     1289.20  1292.49  1293.13  1297.52  1302.54  1309.38
eigval :     1318.14  1319.43  1322.09  1324.73  1326.87  1327.81
eigval :     1329.56  1332.14  1333.50  1341.97  1351.43  1364.11
eigval :     1393.75  1395.70  1397.53  1398.31  1406.16  1412.92
eigval :     1415.25  1416.36  1417.53  1427.36  1428.51  1430.37
eigval :     1431.78  1432.13  1436.69  1437.41  1450.89  1457.63
eigval :     1461.24  1463.29  1468.62  1475.15  1477.84  1480.16
eigval :     1483.40  1483.47  1483.81  1484.11  1485.20  1489.17
eigval :     1490.24  1492.52  1493.39  1493.53  1498.85  1499.70
eigval :     1504.54  1507.33  1516.89  1518.98  1530.43  1561.59
eigval :     1563.51  1567.47  1572.58  1574.91  1577.18  1579.77
eigval :     1582.08  1582.29  1583.19  1585.68  1592.33  1593.46
eigval :     1596.20  3023.95  3024.43  3026.05  3026.94  3028.31
eigval :     3029.02  3032.28  3033.07  3043.75  3043.82  3045.48
eigval :     3046.22  3046.80  3050.93  3051.68  3053.10  3055.09
eigval :     3055.28  3075.70  3076.53  3076.69  3076.84  3077.19
eigval :     3078.40  3082.34  3083.26  3084.21  3084.48  3085.24
eigval :     3085.78  3086.76  3090.36  3091.01  3091.39  3091.68
eigval :     3092.67  3096.18  3096.30  3097.84  3098.03  3098.42
eigval :     3100.27  3102.00  3102.20  3104.06  3104.95  3110.02
eigval :     3113.52  3114.17  3138.15

   temp. (K)  partition function   enthalpy   heat capacity  entropy
                                   cal/mol     cal/K/mol   cal/K/mol   J/K/mol
 298.15  VIB  0.116E+29            35766.908    224.521    222.330
         ROT  0.362E+09              888.752      2.981     42.142
         INT  0.420E+37            36655.660    227.502    264.472
         TR   0.297E+29             1481.254      4.968     46.503
         TOT                       38136.9141   232.4705   310.9758  1301.1227

       T/K    H(0)-H(T)+PV         H(T)/Eh          T*S/Eh         G(T)/Eh
   ------------------------------------------------------------------------
    298.15    0.607750E-01    0.100697E+01    0.147755E+00    0.859215E+00
   ------------------------------------------------------------------------

         :::::::::::::::::::::::::::::::::::::::::::::::::::::
         ::                  THERMODYNAMIC                  ::
         :::::::::::::::::::::::::::::::::::::::::::::::::::::
         :: total free energy        -182.716157711639 Eh   ::
         ::.................................................::
         :: total energy             -183.575373115421 Eh   ::
         :: zero point energy           0.946194994058 Eh   ::
         :: G(RRHO) w/o ZPVE           -0.086979590276 Eh   ::
         :: G(RRHO) contrib.            0.859215403783 Eh   ::
         :::::::::::::::::::::::::::::::::::::::::::::::::::::

           -------------------------------------------------
          | TOTAL ENERGY             -183.575373115421 Eh   |
          | TOTAL ENTHALPY           -182.568403080261 Eh   |
          | TOTAL FREE ENERGY        -182.716157711639 Eh   |
          | GRADIENT NORM               0.000062112934 Eh/α |
          | HOMO-LUMO GAP               1.007277283121 eV   |
           -------------------------------------------------

 * finished run on 2025/07/17 at 20:13:17.899
