   * xtb version 6.7.1 (edcfbbe) compiled by 'albert@albert-system' on 2024-07-22

   ID    Z sym.   atoms
    1    6 C      1-9, 11-19, 21-39, 41-43, 45-60, 62, 63, 65-71
    2    7 N      10, 20, 40, 44, 64
    3   35 Br     61
    4    1 H      72-121

          program call               : xtb data2507/toluene/3DMAC-BP-Br/3DMAC-BP-Br_toluene_S0_crest.xyz --gfn 2 --gbsa toluene --ohess vtight --parallel 40 --molden --ceasefiles --namespace data2507/toluene/3DMAC-BP-Br/3DMAC-BP-Br_toluene_S0_finalOpt
      * Solvation model:               GBSA
        Solvent                        toluene
        Solvent mass                       9.2140E+01 g/mol
          :  Hamiltonian                  GFN2-xTB          :
 * total energy  :  -183.6191403 Eh     change       -0.3926743E-08 Eh
 * total energy  :  -183.6192737 Eh     change       -0.1334304E-03 Eh
 * total energy  :  -183.6193648 Eh     change       -0.9114455E-04 Eh
 * total energy  :  -183.6194280 Eh     change       -0.6314138E-04 Eh
 * total energy  :  -183.6194811 Eh     change       -0.5310406E-04 Eh
 * total energy  :  -183.6195488 Eh     change       -0.6775202E-04 Eh
 * total energy  :  -183.6195897 Eh     change       -0.4087094E-04 Eh
 * total energy  :  -183.6196594 Eh     change       -0.6972789E-04 Eh
 * total energy  :  -183.6197190 Eh     change       -0.5955138E-04 Eh
 * total energy  :  -183.6198002 Eh     change       -0.8125815E-04 Eh
 * total energy  :  -183.6204667 Eh     change       -0.9651129E-06 Eh
 * total energy  :  -183.6204673 Eh     change       -0.6102100E-06 Eh
 * total energy  :  -183.6204680 Eh     change       -0.6310720E-06 Eh
 * total energy  :  -183.6204687 Eh     change       -0.7188445E-06 Eh
 * total energy  :  -183.6204695 Eh     change       -0.7968566E-06 Eh
 * total energy  :  -183.6204703 Eh     change       -0.8153312E-06 Eh
 * total energy  :  -183.6204712 Eh     change       -0.9132483E-06 Eh
 * total energy  :  -183.6204725 Eh     change       -0.1276149E-05 Eh
 * total energy  :  -183.6204725 Eh     change       -0.6786166E-08 Eh
   *** GEOMETRY OPTIMIZATION CONVERGED AFTER 94 ITERATIONS ***

 final structure:
================
121
 xtb: 6.7.1 (edcfbbe)
C           -7.73759354053496       -4.67778110626054       -2.45830863030504
C           -6.47702850931648       -4.17581414541476       -1.75372430065283
C           -5.51098418661135       -3.63667242892866       -2.82907835914885
C           -6.77261363520556       -3.07142229285409       -0.75230360009211
C           -7.97124145019016       -2.37773370491584       -0.67890262004963
C           -8.16627516873731       -1.39167715542079        0.27433834358129
C           -7.17522386470089       -1.10778080910239        1.19756269928014
C           -5.97764072936810       -1.79759999701905        1.15129862143078
C           -5.76285209135234       -2.74747489964552        0.15945475794003
N           -4.56157694229885       -3.48913696732373        0.10423759642861
C           -3.31677565635982       -2.91565031191885        0.02453198522446
C           -2.16019292074466       -3.69762192258097       -0.16478270077320
C           -0.92676568217721       -3.10686605281716       -0.21032946876645
C           -0.76997466264540       -1.71936938752025       -0.08831022306004
C           -1.92119136367267       -0.90893666247369        0.01108862626831
C           -3.16535764965546       -1.52599332197796        0.05126115453866
C           -1.77754293299423        0.53984033679752        0.09164193165642
C           -2.87747966870098        1.39851158154795        0.14538871374637
C           -2.72431082529703        2.76924071690994        0.26695553171018
N           -3.87234775801301        3.59601671213864        0.34141639252860
C           -4.16123538109681        4.45343846844469       -0.71349530129261
C           -3.34506219067039        4.45781769319088       -1.84914873174492
C           -3.59557144416494        5.31076475220301       -2.90369399027150
C           -4.67854275705195        6.16987710259019       -2.85238991609721
C           -5.50969415142621        6.14015755628158       -1.74807415275450
C           -5.28112896786745        5.29101513536375       -0.67305506129563
C           -6.26051196398903        5.28004300917118        0.48525997005945
C           -7.64691454300527        4.87543649889753       -0.05087040704158
C           -6.31811964153265        6.68990553155671        1.10285971017423
C           -5.84770013005125        4.29670216330252        1.56383775337174
C           -6.63242336359876        4.16975528863349        2.70284685108800
C           -6.29357787123303        3.32064795764441        3.73985529600597
C           -5.12307950409768        2.58836313917988        3.65486045215981
C           -4.32727652044320        2.69282683457035        2.53324050146999
C           -4.68639157060905        3.52246056814387        1.46574304982626
C           -1.44530768328287        3.32774976409908        0.32715373163432
C           -0.34790175754510        2.50462387493528        0.25250361078819
C           -0.49235140149441        1.11760937903636        0.13417161159756
C            0.68531121900614        0.28416804449033        0.05505314893851
N            1.87422574597895        0.85224868193244        0.10277887972902
C            2.95534631830765        0.05893795870334        0.01701384662145
C            4.24396808315227        0.62271659626690        0.08102677979693
C            5.35836521334532       -0.17085200692741       -0.01332264438495
N            6.65778963085137        0.38540444741271        0.05345920470912
C            7.23752574984524        0.89632047694360       -1.10125175691902
C            6.50989380471855        0.90681408888484       -2.29366396753941
C            7.06112894353215        1.40312369026562       -3.45690877813741
C            8.35288550742535        1.89669756792183       -3.44834166563738
C            9.07590283783999        1.88012668921260       -2.26964582420953
C            8.54667617299978        1.38656902175615       -1.08455474549439
C            9.39841704157053        1.38405884439610        0.17140953023398
C           10.64762900387088        0.52007087984966       -0.08311791008227
C            9.80922160910339        2.83346657649848        0.49301478770262
C            8.64989878551194        0.81758106649542        1.36343702566783
C            9.27752542033345        0.75171628342093        2.60014701303719
C            8.64136582777326        0.25423231167613        3.72282773091271
C            7.33434321125849       -0.18573563197955        3.62157935443137
C            6.68625274947434       -0.13109364453503        2.40498116341643
C            7.33385785788396        0.35678389006330        1.26720561239486
C            5.19845585093097       -1.56831935075394       -0.18140881129711
Br           6.76533121277379       -2.64071758030294       -0.33695781060466
C            3.96702268814504       -2.15474841025884       -0.24002036210210
C            2.81255093858657       -1.35104216376620       -0.13562921084428
N            1.60115521814576       -1.92392150957162       -0.17713191736135
C            0.54053312776220       -1.13724365251227       -0.07715473823799
C           -4.79851926318909       -4.87300187395627       -0.04878048383022
C           -4.15995560298158       -5.80474784695624        0.76018234104024
C           -4.44527758869144       -7.15021733924573        0.61780432578085
C           -5.38561816113207       -7.55849924403094       -0.31159822110741
C           -6.05642451147985       -6.62366504652640       -1.08297679380478
C           -5.77877649221949       -5.27045464318579       -0.96372501017817
H           -8.45545140732594       -5.07114858129300       -1.74200746909039
H           -8.20022071044677       -3.86921859087540       -3.01839026059301
H           -7.48202541496326       -5.45799172888917       -3.17061914405947
H           -5.26256181535367       -4.42985429709088       -3.53112094017106
H           -4.58704438326638       -3.26478814686123       -2.39475535189992
H           -5.98380333588159       -2.82265832095335       -3.37464876064210
H           -8.77005545397966       -2.59742564381004       -1.36798315718122
H           -9.10309884053495       -0.85571550782740        0.30524699141492
H           -7.33501216824506       -0.36036220644478        1.96033097008600
H           -5.21376412881418       -1.61352957769322        1.89232130710113
H           -2.24210410437367       -4.76442022086609       -0.29343250952927
H           -0.03741879502248       -3.70325822495403       -0.34098667077397
H           -4.05290418037410       -0.92037607769204        0.09213108097501
H           -3.88338004987573        1.01350045728352        0.09696547095671
H           -2.50703291431631        3.78084449163791       -1.90905636487581
H           -2.94501363167252        5.29761244322120       -3.76601513516667
H           -4.88261779702416        6.84724868198874       -3.66796097203495
H           -6.36398347629573        6.79969688510348       -1.73009785147196
H           -7.98050454896739        5.56432164384190       -0.82184362090014
H           -8.38491331254193        4.87351881793917        0.74642945032103
H           -7.60073287884688        3.87579086198559       -0.47997380731316
H           -5.33547970442977        6.97121452503576        1.47811680700659
H           -7.02272819946958        6.72360538895344        1.92900197577264
H           -6.62601583331633        7.42447435473392        0.36411408319039
H           -7.53660421928295        4.75271518470076        2.79039617031976
H           -6.92884162530132        3.24396346817256        4.60955703323173
H           -4.82288760190530        1.93658817067265        4.46242940277429
H           -3.40784459947981        2.12989353662351        2.48843838256397
H           -1.33242325469872        4.39653535064112        0.42904980226755
H            0.65256104796760        2.90569062563426        0.29200996478001
H            4.34170511790568        1.69047882820891        0.20462249491054
H            5.50142191947833        0.51987773983558       -2.30973769976801
H            6.47844580882824        1.40036642185634       -4.36641453596334
H            8.79617917379628        2.28767595271258       -4.35167623167310
H           10.08494129571925        2.26278293889487       -2.27976023793707
H           11.21943538167335        0.90454614643960       -0.92299890180963
H           10.35211705827508       -0.50325620192781       -0.30802826605936
H           11.29221818368213        0.50615948415621        0.79119771670970
H           10.43570677614886        2.87032667502840        1.37961559621635
H           10.36272518343513        3.27133621594281       -0.33268506535518
H            8.92263560239764        3.43934748444644        0.67301975817857
H           10.29576570307531        1.09617685401645        2.69643282813639
H            9.16161440306827        0.21391310671467        4.66780904225064
H            6.81442001449168       -0.57187734768114        4.48606588265257
H            5.66281600814805       -0.47098535754022        2.33559909027110
H            3.84874451737831       -3.21958435396914       -0.36526457930163
H           -3.45683506606886       -5.47150676312217        1.50897305631364
H           -3.94286704858526       -7.87441235002358        1.24151958170640
H           -5.61151908142659       -8.60802040333427       -0.42727336039738
H           -6.80160952780433       -6.96713605103561       -1.78150610552928

          :  Hamiltonian                  GFN2-xTB          :
         :: gradient norm              0.000062522664 Eh/a0 ::
         :: HOMO-LUMO gap              0.940411829499 eV    ::
         :: SCC energy              -186.848801525981 Eh    ::
         :: -> dispersion             -0.184828746724 Eh    ::
         :: -> Gsolv                  -0.073376912264 Eh    ::
         :: repulsion energy           3.228329019978 Eh    ::

    * Orbital Energies and Occupations

         #    Occupation            Energy/Eh            Energy/eV
      -------------------------------------------------------------
         1        2.0000           -0.8460291             -23.0216
       ...           ...                  ...                  ...
       159        2.0000           -0.4052343             -11.0270
       160        2.0000           -0.4036606             -10.9842
       161        2.0000           -0.4026913             -10.9578
       162        2.0000           -0.4020443             -10.9402
       163        2.0000           -0.4000186             -10.8851
       164        2.0000           -0.3991070             -10.8603
       165        2.0000           -0.3975429             -10.8177
       166        2.0000           -0.3945823             -10.7371
       167        2.0000           -0.3935215             -10.7083
       168        2.0000           -0.3630332              -9.8786
       169        2.0000           -0.3617066              -9.8425
       170        2.0000           -0.3512962              -9.5593
       171        2.0000           -0.3486145              -9.4863 (HOMO)
       172                         -0.3140549              -8.5459 (LUMO)
       173                         -0.2768000              -7.5321
       174                         -0.2617821              -7.1235
       175                         -0.2421281              -6.5886
       176                         -0.2379334              -6.4745
       177                         -0.2326689              -6.3312
       178                         -0.2274246              -6.1885
       179                         -0.2271317              -6.1806
       180                         -0.2262369              -6.1562
       181                         -0.2258480              -6.1456
       182                         -0.2244190              -6.1068
       ...                                ...                  ...
       339                          0.7032608              19.1367
      -------------------------------------------------------------
                  HL-Gap            0.0345596 Eh            0.9404 eV

     #   Z          covCN         q      C6AA      α(0)
     1   6 C        3.759    -0.109    22.643     6.784
     2   6 C        3.910     0.023    20.127     6.377
     3   6 C        3.761    -0.100    22.451     6.755
     4   6 C        2.986    -0.005    28.135     8.701
     5   6 C        2.923    -0.038    28.935     8.821
     6   6 C        2.919    -0.036    28.890     8.814
     7   6 C        2.919    -0.033    28.824     8.804
     8   6 C        2.920    -0.046    29.144     8.853
     9   6 C        2.950     0.053    26.806     8.492
    10   7 N        2.754    -0.058    22.365     7.024
    11   6 C        2.909     0.074    26.349     8.417
    12   6 C        2.919    -0.055    29.365     8.886
    13   6 C        2.921    -0.027    28.682     8.782
    14   6 C        2.986    -0.021    28.534     8.762
    15   6 C        2.975     0.006    27.885     8.662
    16   6 C        2.928    -0.065    29.619     8.925
    17   6 C        2.976     0.008    27.843     8.655
    18   6 C        2.926    -0.045    29.117     8.849
    19   6 C        2.925     0.073    26.366     8.421
    20   7 N        2.753    -0.070    22.593     7.060
    21   6 C        2.926     0.058    26.701     8.474
    22   6 C        2.924    -0.059    29.477     8.904
    23   6 C        2.919    -0.035    28.860     8.810
    24   6 C        2.917    -0.045    29.127     8.850
    25   6 C        2.928    -0.037    28.929     8.821
    26   6 C        2.979    -0.013    28.331     8.731
    27   6 C        3.909     0.021    20.162     6.382
    28   6 C        3.761    -0.104    22.531     6.767
    29   6 C        3.761    -0.104    22.529     6.766
    30   6 C        2.979    -0.013    28.324     8.730
    31   6 C        2.928    -0.037    28.925     8.820
    32   6 C        2.917    -0.045    29.129     8.850
    33   6 C        2.919    -0.034    28.859     8.809
    34   6 C        2.924    -0.059    29.477     8.903
    35   6 C        2.926     0.058    26.703     8.474
    36   6 C        2.918    -0.039    28.963     8.825
    37   6 C        2.923    -0.027    28.684     8.783
    38   6 C        2.987    -0.009    28.245     8.718
    39   6 C        2.960     0.089    26.023     8.367
    40   7 N        1.848    -0.261    27.644     7.792
    41   6 C        2.964     0.078    26.259     8.405
    42   6 C        2.923    -0.055    29.366     8.887
    43   6 C        2.990     0.069    26.444     8.435
    44   7 N        2.760    -0.074    22.676     7.072
    45   6 C        2.927     0.061    26.628     8.462
    46   6 C        2.924    -0.058    29.433     8.897
    47   6 C        2.920    -0.034    28.851     8.808
    48   6 C        2.917    -0.045    29.112     8.848
    49   6 C        2.928    -0.037    28.910     8.818
    50   6 C        2.979    -0.011    28.296     8.726
    51   6 C        3.908     0.022    20.154     6.381
    52   6 C        3.761    -0.105    22.547     6.769
    53   6 C        3.761    -0.105    22.550     6.769
    54   6 C        2.979    -0.011    28.290     8.725
    55   6 C        2.928    -0.036    28.906     8.817
    56   6 C        2.917    -0.045    29.107     8.847
    57   6 C        2.919    -0.034    28.848     8.808
    58   6 C        2.924    -0.056    29.401     8.892
    59   6 C        2.929     0.062    26.609     8.460
    60   6 C        2.914     0.065    26.543     8.448
    61  35 Br       1.074    -0.159   189.444    22.192
    62   6 C        2.995    -0.054    29.327     8.883
    63   6 C        2.967     0.081    26.186     8.394
    64   7 N        1.848    -0.268    27.807     7.815
    65   6 C        2.959     0.089    26.024     8.367
    66   6 C        2.951     0.054    26.795     8.490
    67   6 C        2.920    -0.046    29.136     8.852
    68   6 C        2.920    -0.033    28.825     8.804
    69   6 C        2.919    -0.036    28.894     8.815
    70   6 C        2.923    -0.038    28.936     8.821
    71   6 C        2.987    -0.005    28.138     8.701
    72   1 H        0.925     0.041     2.429     2.437
    73   1 H        0.925     0.046     2.375     2.410
    74   1 H        0.925     0.046     2.375     2.410
    75   1 H        0.925     0.043     2.413     2.429
    76   1 H        0.925     0.034     2.537     2.491
    77   1 H        0.925     0.042     2.416     2.431
    78   1 H        0.926     0.048     2.345     2.394
    79   1 H        0.926     0.038     2.480     2.462
    80   1 H        0.926     0.037     2.487     2.466
    81   1 H        0.926     0.040     2.453     2.449
    82   1 H        0.926     0.048     2.350     2.397
    83   1 H        0.926     0.054     2.268     2.355
    84   1 H        0.926     0.049     2.331     2.387
    85   1 H        0.926     0.053     2.285     2.364
    86   1 H        0.926     0.024     2.667     2.554
    87   1 H        0.926     0.027     2.633     2.537
    88   1 H        0.926     0.027     2.633     2.537
    89   1 H        0.926     0.034     2.529     2.487
    90   1 H        0.925     0.042     2.423     2.434
    91   1 H        0.925     0.043     2.413     2.429
    92   1 H        0.925     0.031     2.572     2.508
    93   1 H        0.925     0.030     2.588     2.516
    94   1 H        0.925     0.042     2.420     2.433
    95   1 H        0.925     0.042     2.420     2.433
    96   1 H        0.926     0.034     2.528     2.486
    97   1 H        0.926     0.027     2.631     2.537
    98   1 H        0.926     0.027     2.632     2.537
    99   1 H        0.926     0.024     2.675     2.558
   100   1 H        0.926     0.051     2.307     2.375
   101   1 H        0.926     0.061     2.181     2.310
   102   1 H        0.926     0.065     2.136     2.285
   103   1 H        0.926     0.012     2.853     2.641
   104   1 H        0.926     0.027     2.626     2.534
   105   1 H        0.926     0.030     2.591     2.517
   106   1 H        0.926     0.037     2.487     2.466
   107   1 H        0.925     0.044     2.400     2.423
   108   1 H        0.925     0.033     2.550     2.497
   109   1 H        0.925     0.044     2.400     2.422
   110   1 H        0.925     0.044     2.398     2.422
   111   1 H        0.925     0.044     2.397     2.421
   112   1 H        0.925     0.030     2.583     2.513
   113   1 H        0.926     0.037     2.486     2.466
   114   1 H        0.926     0.030     2.590     2.517
   115   1 H        0.926     0.027     2.629     2.536
   116   1 H        0.926     0.011     2.874     2.651
   117   1 H        0.926     0.071     2.077     2.254
   118   1 H        0.926     0.040     2.448     2.447
   119   1 H        0.926     0.037     2.484     2.465
   120   1 H        0.926     0.037     2.483     2.464
   121   1 H        0.926     0.048     2.348     2.396

molecular dipole:
                 x           y           z       tot (Debye)
 q only:       -3.663      -0.257      -0.240
   full:       -3.886      -0.041      -0.149       9.886

 projected vibrational frequencies (cm⁻¹)
eigval :       -0.00    -0.00     0.00     0.00     0.00     0.00
eigval :       -4.91     5.89    10.57    12.01    13.73    17.64
eigval :       20.47    29.01    33.54    35.55    40.56    46.56
eigval :       57.54    61.14    69.71    82.77    86.65    87.69
eigval :       95.22    96.91   102.33   102.50   108.52   113.74
eigval :      125.60   131.22   134.25   134.74   136.13   149.76
eigval :      150.28   170.91   180.95   194.34   196.08   199.31
eigval :      201.28   209.92   216.23   217.98   223.89   225.72
eigval :      229.70   238.10   242.89   255.75   269.22   284.50
eigval :      288.73   296.00   304.75   306.05   307.25   316.25
eigval :      327.44   329.54   330.15   333.08   343.66   346.24
eigval :      347.64   355.83   360.14   368.59   377.30   381.31
eigval :      385.85   387.84   394.70   403.37   405.64   410.74
eigval :      412.49   418.48   427.12   440.08   444.46   445.92
eigval :      446.54   453.41   456.84   460.85   469.66   478.69
eigval :      491.96   500.93   505.78   509.62   515.23   515.73
eigval :      537.29   546.40   547.31   547.61   548.30   551.36
eigval :      554.95   562.36   573.51   575.44   579.35   586.66
eigval :      587.93   596.65   598.23   599.98   606.77   637.40
eigval :      643.12   648.82   650.86   654.72   667.14   676.92
eigval :      682.41   684.25   691.26   693.23   693.39   695.11
eigval :      697.53   706.69   713.57   725.18   725.84   728.56
eigval :      751.96   766.77   773.33   775.31   776.58   777.63
eigval :      779.67   784.28   803.70   809.56   819.97   822.28
eigval :      823.01   834.43   841.02   843.39   851.26   859.83
eigval :      862.80   863.90   864.76   868.59   869.20   877.85
eigval :      886.43   891.46   907.07   909.67   911.25   912.22
eigval :      913.68   914.17   914.66   914.98   915.76   918.75
eigval :      919.64   921.47   923.25   923.80   923.98   929.29
eigval :      937.54   938.01   939.48   941.75   943.95   956.62
eigval :      956.65   967.69   974.69   993.78  1003.24  1009.51
eigval :     1012.00  1013.16  1048.51  1062.13  1072.53  1075.45
eigval :     1075.96  1080.64  1082.43  1089.43  1098.35  1105.65
eigval :     1111.82  1113.97  1117.54  1119.49  1136.90  1139.50
eigval :     1140.53  1141.32  1151.16  1155.27  1158.09  1158.71
eigval :     1163.79  1171.80  1174.21  1181.55  1182.43  1185.06
eigval :     1185.74  1187.73  1188.55  1188.84  1190.19  1193.41
eigval :     1195.41  1226.45  1227.43  1230.47  1235.51  1243.51
eigval :     1248.03  1249.41  1251.84  1254.93  1265.90  1266.24
eigval :     1267.04  1271.93  1272.60  1278.10  1284.28  1286.69
eigval :     1292.52  1294.11  1295.59  1310.55  1316.52  1321.76
eigval :     1323.85  1324.09  1324.86  1330.86  1332.19  1332.69
eigval :     1335.11  1340.35  1346.63  1350.22  1380.08  1396.85
eigval :     1398.76  1399.57  1401.73  1411.63  1414.26  1417.37
eigval :     1418.04  1429.46  1434.04  1435.22  1436.11  1437.42
eigval :     1439.01  1439.11  1443.03  1448.44  1452.30  1469.28
eigval :     1472.24  1474.95  1477.71  1480.95  1485.58  1486.45
eigval :     1487.03  1487.47  1490.82  1491.38  1492.98  1493.67
eigval :     1494.22  1495.55  1497.85  1502.45  1502.65  1504.74
eigval :     1515.54  1519.39  1533.76  1545.77  1573.30  1574.29
eigval :     1574.83  1575.48  1576.18  1582.51  1586.23  1587.15
eigval :     1589.39  1590.27  1591.07  1591.42  1597.51  1600.05
eigval :     1600.41  3020.54  3021.81  3023.59  3027.05  3027.12
eigval :     3029.39  3032.63  3033.50  3039.61  3040.60  3041.67
eigval :     3042.61  3047.69  3048.47  3048.92  3052.88  3053.26
eigval :     3054.47  3069.86  3071.25  3071.45  3072.58  3077.63
eigval :     3078.10  3078.48  3079.75  3079.82  3080.45  3082.47
eigval :     3084.67  3084.78  3085.39  3091.13  3091.51  3092.12
eigval :     3093.70  3094.34  3094.87  3096.10  3098.68  3099.29
eigval :     3099.64  3103.01  3104.37  3108.66  3111.21  3114.49
eigval :     3115.03  3115.21  3141.87

   temp. (K)  partition function   enthalpy   heat capacity  entropy
                                   cal/mol     cal/K/mol   cal/K/mol   J/K/mol
 298.15  VIB  0.205E+29            35585.959    223.295    222.053
         ROT  0.360E+09              888.752      2.981     42.133
         INT  0.738E+37            36474.712    226.276    264.186
         TR   0.297E+29             1481.254      4.968     46.503
         TOT                       37955.9654   231.2442   310.6890  1299.9227

       T/K    H(0)-H(T)+PV         H(T)/Eh          T*S/Eh         G(T)/Eh
   ------------------------------------------------------------------------
    298.15    0.604867E-01    0.100944E+01    0.147618E+00    0.861820E+00
   ------------------------------------------------------------------------

         :::::::::::::::::::::::::::::::::::::::::::::::::::::
         ::                  THERMODYNAMIC                  ::
         :::::::::::::::::::::::::::::::::::::::::::::::::::::
         :: total free energy        -182.758652760021 Eh   ::
         ::.................................................::
         :: total energy             -183.620472507448 Eh   ::
         :: zero point energy           0.948951427297 Eh   ::
         :: G(RRHO) w/o ZPVE           -0.087131679870 Eh   ::
         :: G(RRHO) contrib.            0.861819747427 Eh   ::
         :::::::::::::::::::::::::::::::::::::::::::::::::::::

           -------------------------------------------------
          | TOTAL ENERGY             -183.620472507448 Eh   |
          | TOTAL ENTHALPY           -182.611034399074 Eh   |
          | TOTAL FREE ENERGY        -182.758652760021 Eh   |
          | GRADIENT NORM               0.000062517518 Eh/α |
          | HOMO-LUMO GAP               0.940414945113 eV   |
           -------------------------------------------------

 * finished run on 2025/07/17 at 20:12:50.521
