   * xtb version 6.7.1 (edcfbbe) compiled by 'albert@albert-system' on 2024-07-22

   ID    Z sym.   atoms
    1    6 C      1-4, 6-21
    2    7 N      5
    3    1 H      22-34

          program call               : xtb data2507/gas/indenoacridine/indenoacridine_gas_S0_finalOpt.xtbopt.xyz --gfn 2 --spinpol --tblite --uhf 2 --ohess vtight --parallel 40 --molden --ceasefiles --namespace data2507/gas/indenoacridine/indenoacridine_gas_T1_preOpt
 * total energy  :   -52.3385757 Eh     change        0.4713776E-08 Eh
 * total energy  :   -52.3421079 Eh     change       -0.3532167E-02 Eh
 * total energy  :   -52.3431387 Eh     change       -0.1030834E-02 Eh
 * total energy  :   -52.3431688 Eh     change       -0.3011330E-04 Eh
 * total energy  :   -52.3431772 Eh     change       -0.8439188E-05 Eh
 * total energy  :   -52.3431779 Eh     change       -0.6260853E-06 Eh
 * total energy  :   -52.3431771 Eh     change        0.7575566E-06 Eh
 * total energy  :   -52.3431779 Eh     change       -0.8302106E-06 Eh
 * total energy  :   -52.3431776 Eh     change        0.3500538E-06 Eh
 * total energy  :   -52.3431780 Eh     change       -0.3540955E-06 Eh
 * total energy  :   -52.3431776 Eh     change        0.3473163E-06 Eh
 * total energy  :   -52.3431780 Eh     change       -0.3454529E-06 Eh
 * total energy  :   -52.3431776 Eh     change        0.3446225E-06 Eh
 * total energy  :   -52.3431780 Eh     change       -0.3471600E-06 Eh
 * total energy  :   -52.3431776 Eh     change        0.3420248E-06 Eh
 * total energy  :   -52.3431780 Eh     change       -0.3398559E-06 Eh
 * total energy  :   -52.3431776 Eh     change        0.3365884E-06 Eh
 * total energy  :   -52.3431779 Eh     change       -0.3257057E-06 Eh
 * total energy  :   -52.3431780 Eh     change       -0.1221792E-07 Eh
   *** GEOMETRY OPTIMIZATION CONVERGED AFTER 23 ITERATIONS ***

 final structure:
================
34
 xtb: 6.7.1 (edcfbbe)
C           -5.15944014282432       -1.53152395793562       -0.00225644976081
C           -5.57440771308500       -0.20500748093663       -0.00224832582142
C           -4.63541490984795        0.81598247190897       -0.00196318088284
C           -3.28134331605244        0.51691729983212       -0.00170883139001
N           -2.33939918870757        1.51512361989810       -0.00142428910903
C           -0.98089506421495        1.28933697273738       -0.00136827840485
C           -0.09840541553055        2.37420076103740       -0.00124696480451
C            1.27382688240703        2.18248130328165       -0.00126888202033
C            1.76094301017010        0.88183520634513       -0.00142845365863
C            3.11837235579376        0.36603229107826       -0.00167783850219
C            4.34595062354080        0.98637788896820       -0.00182184707691
C            5.49636320754264        0.19677232056072       -0.00202474399800
C            5.41336753158667       -1.18879456989931       -0.00208084237558
C            4.18524949273140       -1.83084768043442       -0.00192854541996
C            3.02547582206211       -1.05878638662889       -0.00172175311929
C            1.65713360525232       -1.42057827407083       -0.00167604601088
C            0.88304392650222       -0.23063902460268       -0.00148915792755
C           -0.51937232137768       -0.04644970627713       -0.00145312537971
C           -1.45881967636024       -1.10006028988087       -0.00157030727375
C           -2.83751978439503       -0.83415040936757       -0.00174291642254
C           -3.81817509533555       -1.84457259226334       -0.00200227176366
H           -5.89581900375886       -2.32155581698768       -0.00247170826674
H           -6.62649162470894        0.03531066138990       -0.00246539562909
H           -4.95247896902452        1.84976848781182       -0.00194726652410
H           -2.66246164526893        2.47238523680687       -0.00139539345017
H           -0.50526220587038        3.37624126250026       -0.00116652825585
H            1.94385285400321        3.02804818100917       -0.00124138174801
H            4.42697921765941        2.06382945884764       -0.00161829661160
H            6.46657888510653        0.67170721896419       -0.00209033202298
H            6.32169224501939       -1.77387210324412       -0.00235052185082
H            4.12633498937993       -2.90968185341584       -0.00213379450198
H            1.27887364905509       -2.42581791650297       -0.00173318800741
H           -1.11722765630099       -2.12170576275570       -0.00159066100052
H           -3.49574884228614       -2.87507461578278       -0.00201634044263

 projected vibrational frequencies (cm⁻¹)
eigval :       -0.00    -0.00    -0.00     0.00     0.00     0.00
eigval :       40.91    66.96    99.20   112.04   129.37   208.87
eigval :      228.55   244.59   273.16   276.07   305.34   349.77
eigval :      399.30   401.74   420.20   444.65   475.19   500.92
eigval :      508.36   517.00   522.86   533.98   536.02   572.73
eigval :      599.13   600.71   645.61   670.85   685.58   704.88
eigval :      717.69   735.15   739.38   765.49   766.11   768.60
eigval :      797.04   830.24   844.98   860.79   861.25   863.75
eigval :      871.89   878.79   898.10   910.06   911.44   912.99
eigval :     1015.20  1066.79  1085.39  1093.71  1121.96  1133.60
eigval :     1147.85  1177.91  1180.31  1186.40  1194.49  1200.29
eigval :     1218.27  1254.64  1259.60  1272.40  1282.03  1289.02
eigval :     1326.77  1343.55  1355.71  1385.25  1388.78  1403.61
eigval :     1422.13  1442.77  1453.06  1456.51  1480.50  1520.51
eigval :     1540.12  1549.03  1553.34  1563.51  1584.13  3062.74
eigval :     3063.99  3070.20  3073.15  3077.35  3080.64  3087.77
eigval :     3089.81  3095.14  3097.56  3112.29  3139.73  3415.67

   temp. (K)  partition function   enthalpy   heat capacity  entropy
                                   cal/mol     cal/K/mol   cal/K/mol   J/K/mol
 298.15  VIB  0.196E+05             7805.311     58.310     44.506
         ROT  0.567E+07              888.752      2.981     33.885
         INT  0.111E+12             8694.063     61.290     78.391
         TR   0.423E+28             1481.254      4.968     42.630
         TOT                       10175.3169    66.2586   121.0211   506.3523

       T/K    H(0)-H(T)+PV         H(T)/Eh          T*S/Eh         G(T)/Eh
   ------------------------------------------------------------------------
    298.15    0.162154E-01    0.274613E+00    0.575010E-01    0.217112E+00
   ------------------------------------------------------------------------

         :::::::::::::::::::::::::::::::::::::::::::::::::::::
         ::                  THERMODYNAMIC                  ::
         :::::::::::::::::::::::::::::::::::::::::::::::::::::
         :: total free energy         -52.126065846858 Eh   ::
         ::.................................................::
         :: total energy              -52.343177955695 Eh   ::
         :: zero point energy           0.258397741298 Eh   ::
         :: G(RRHO) w/o ZPVE           -0.041285632461 Eh   ::
         :: G(RRHO) contrib.            0.217112108837 Eh   ::
         :::::::::::::::::::::::::::::::::::::::::::::::::::::

           -------------------------------------------------
          | TOTAL ENERGY              -52.343177955695 Eh   |
          | TOTAL ENTHALPY            -52.068564814780 Eh   |
          | TOTAL FREE ENERGY         -52.126065846858 Eh   |
          | GRADIENT NORM               0.000048785536 Eh/α |
           -------------------------------------------------

 * finished run on 2025/09/09 at 23:49:15.452
