   * xtb version 6.7.1 (edcfbbe) compiled by 'albert@albert-system' on 2024-07-22

   ID    Z sym.   atoms
    1    6 C      1-4, 6-21
    2    7 N      5
    3    1 H      22-34

          program call               : xtb data2507/gas/indenoacridine/indenoacridine.xyz --gfn 2 --ohess vtight --parallel 40 --molden --ceasefiles --namespace data2507/gas/indenoacridine/indenoacridine_gas_S0_preOpt
          :  Hamiltonian                  GFN2-xTB          :
 * total energy  :   -52.3703235 Eh     change       -0.5169333E-08 Eh
 * total energy  :   -52.3787703 Eh     change       -0.8446884E-02 Eh
 * total energy  :   -52.3814369 Eh     change       -0.2666596E-02 Eh
 * total energy  :   -52.3816481 Eh     change       -0.2112012E-03 Eh
 * total energy  :   -52.3817160 Eh     change       -0.6782331E-04 Eh
 * total energy  :   -52.3817293 Eh     change       -0.1334398E-04 Eh
 * total energy  :   -52.3817348 Eh     change       -0.5455819E-05 Eh
 * total energy  :   -52.3817364 Eh     change       -0.1651400E-05 Eh
 * total energy  :   -52.3817370 Eh     change       -0.5506324E-06 Eh
 * total energy  :   -52.3817371 Eh     change       -0.1399100E-06 Eh
 * total energy  :   -52.3817371 Eh     change       -0.4824097E-07 Eh
   *** GEOMETRY OPTIMIZATION CONVERGED AFTER 11 ITERATIONS ***

 final structure:
================
34
 xtb: 6.7.1 (edcfbbe)
C           -5.15856140227063       -1.46480418837315       -0.00000052366626
C           -5.56473048000663       -0.13169051167911        0.00000108596901
C           -4.63131650586781        0.88225945121219        0.00000069841588
C           -3.26985088840428        0.57620372996271        0.00000004701818
N           -2.32549446268603        1.55994659609318       -0.00000122847589
C           -0.97199320269329        1.34149484781948       -0.00000220520898
C           -0.08891369555021        2.39597364307360       -0.00000091494380
C            1.29853872164665        2.17647292727142        0.00000582094416
C            1.78620797629761        0.90083039262962        0.00000303013141
C            3.12881371067081        0.37990529610017       -0.00000174410090
C            4.36967657176110        0.99372308805963       -0.00000268483049
C            5.50425711954458        0.19986326019251       -0.00000135654774
C            5.40855529473486       -1.18937650552045        0.00000179777489
C            4.17876045395482       -1.81955850942778        0.00000376364185
C            3.02754559241028       -1.03895139995881        0.00000137939329
C            1.64546779299642       -1.39579378564403       -0.00000211895923
C            0.89474863120346       -0.23984011776712       -0.00000190716576
C           -0.52081230012460       -0.03235792285825        0.00000090237780
C           -1.45173940359044       -1.04107183195999        0.00000136443839
C           -2.84493991893036       -0.77256955517838       -0.00000038255904
C           -3.81962244764346       -1.78028600773206       -0.00000080695952
H           -5.90001397540438       -2.24913282933570       -0.00000085525617
H           -6.61698220118362        0.10921766352217        0.00000220012566
H           -4.94271212345449        1.91740741018622        0.00000115983964
H           -2.64161195822716        2.52111128045947       -0.00000091596815
H           -0.47010164187290        3.40760636418357       -0.00000030194972
H            1.96506876067055        3.02668233570880       -0.00000215114960
H            4.45452693530704        2.07124888111587       -0.00000018980020
H            6.48109786636446        0.66236134722882        0.00000004564039
H            6.31356072118273       -1.78048430395805        0.00000027500546
H            4.11115123660920       -2.89843133583868       -0.00000029785737
H            1.27803817607719       -2.40612825255136        0.00000014949007
H           -1.12793168179787       -2.07048364843239       -0.00000058479976
H           -3.49868827172360       -2.81134780860407       -0.00000055000750

          :  Hamiltonian                  GFN2-xTB          :
         :: gradient norm              0.000107657141 Eh/a0 ::
         :: HOMO-LUMO gap              1.156126559956 eV    ::
         :: SCC energy               -53.388228562226 Eh    ::
         :: -> dispersion             -0.041517588861 Eh    ::
         :: repulsion energy           1.006491401738 Eh    ::

    * Orbital Energies and Occupations

         #    Occupation            Energy/Eh            Energy/eV
      -------------------------------------------------------------
         1        2.0000           -0.6846765             -18.6310
       ...           ...                  ...                  ...
        37        2.0000           -0.4455383             -12.1237
        38        2.0000           -0.4399440             -11.9715
        39        2.0000           -0.4382448             -11.9252
        40        2.0000           -0.4235802             -11.5262
        41        2.0000           -0.4221914             -11.4884
        42        2.0000           -0.4158612             -11.3162
        43        2.0000           -0.4131886             -11.2434
        44        2.0000           -0.4054616             -11.0332
        45        2.0000           -0.4012364             -10.9182
        46        2.0000           -0.3979370             -10.8284
        47        2.0000           -0.3879858             -10.5576
        48        2.0000           -0.3582322              -9.7480
        49        2.0000           -0.3338508              -9.0845 (HOMO)
        50                         -0.2913641              -7.9284 (LUMO)
        51                         -0.2419464              -6.5837
        52                         -0.2246490              -6.1130
        53                         -0.2085115              -5.6739
        54                         -0.1914000              -5.2083
        55                         -0.1604195              -4.3652
        56                         -0.1580992              -4.3021
        57                         -0.0926374              -2.5208
        58                         -0.0534443              -1.4543
        59                         -0.0405341              -1.1030
        60                          0.0090066               0.2451
       ...                                ...                  ...
        97                          0.7666631              20.8620
      -------------------------------------------------------------
                  HL-Gap            0.0424867 Eh            1.1561 eV

     #   Z          covCN         q      C6AA      α(0)
     1   6 C        2.915    -0.037    28.913     8.817
     2   6 C        2.919    -0.027    28.686     8.783
     3   6 C        2.918    -0.058    29.445     8.898
     4   6 C        2.922     0.068    26.475     8.438
     5   7 N        2.706    -0.102    23.238     7.159
     6   6 C        2.914     0.065    26.551     8.450
     7   6 C        2.917    -0.079    29.985     8.979
     8   6 C        2.909    -0.022    28.556     8.762
     9   6 C        3.069    -0.018    28.386     8.736
    10   6 C        3.064    -0.008    28.165     8.703
    11   6 C        2.910    -0.035    28.860     8.809
    12   6 C        2.921    -0.037    28.909     8.817
    13   6 C        2.919    -0.036    28.901     8.816
    14   6 C        2.911    -0.036    28.904     8.816
    15   6 C        3.092    -0.002    27.965     8.668
    16   6 C        2.990    -0.053    29.310     8.881
    17   6 C        3.076    -0.017    28.355     8.731
    18   6 C        2.967     0.010    27.795     8.648
    19   6 C        2.918    -0.039    28.958     8.824
    20   6 C        2.981     0.004    27.939     8.670
    21   6 C        2.921    -0.036    28.899     8.816
    22   1 H        0.926     0.035     2.514     2.479
    23   1 H        0.926     0.036     2.499     2.472
    24   1 H        0.926     0.028     2.614     2.528
    25   1 H        0.860     0.170     1.273     1.767
    26   1 H        0.926     0.015     2.803     2.618
    27   1 H        0.926     0.030     2.580     2.512
    28   1 H        0.926     0.020     2.732     2.585
    29   1 H        0.926     0.020     2.730     2.584
    30   1 H        0.926     0.020     2.731     2.584
    31   1 H        0.926     0.021     2.718     2.578
    32   1 H        0.926     0.017     2.786     2.610
    33   1 H        0.926     0.044     2.394     2.419
    34   1 H        0.926     0.039     2.466     2.456

molecular dipole:
                 x           y           z       tot (Debye)
 q only:       -1.626       0.444       0.000
   full:       -1.745       0.620       0.000       4.706

 projected vibrational frequencies (cm⁻¹)
eigval :       -0.00     0.00     0.00     0.00     0.00     0.00
eigval :       44.10    72.17   105.26   115.07   131.65   220.28
eigval :      230.38   243.93   275.30   278.62   316.03   356.11
eigval :      401.15   421.09   424.73   447.95   468.27   507.98
eigval :      511.33   526.55   528.25   540.29   577.70   604.02
eigval :      615.58   627.98   651.55   686.96   697.76   715.72
eigval :      739.41   763.42   766.15   768.66   787.53   803.41
eigval :      833.17   847.56   861.94   862.56   869.38   869.62
eigval :      887.30   901.09   902.20   910.65   918.79   919.46
eigval :     1015.99  1070.31  1085.50  1101.42  1135.94  1145.02
eigval :     1160.21  1178.75  1183.17  1199.57  1210.21  1218.22
eigval :     1224.86  1263.15  1268.28  1289.31  1297.63  1308.40
eigval :     1340.51  1358.11  1363.82  1382.77  1402.49  1417.75
eigval :     1451.07  1468.43  1470.98  1504.43  1518.88  1539.39
eigval :     1563.26  1573.55  1588.52  1594.92  1629.78  3061.77
eigval :     3064.27  3065.34  3069.38  3072.55  3081.01  3082.98
eigval :     3083.09  3089.91  3097.63  3100.55  3127.10  3397.11

   temp. (K)  partition function   enthalpy   heat capacity  entropy
                                   cal/mol     cal/K/mol   cal/K/mol   J/K/mol
 298.15  VIB  0.134E+05             7609.409     57.246     43.316
         ROT  0.565E+07              888.752      2.981     33.878
         INT  0.757E+11             8498.161     60.227     77.194
         TR   0.423E+28             1481.254      4.968     42.630
         TOT                        9979.4152    65.1949   119.8241   501.3439

       T/K    H(0)-H(T)+PV         H(T)/Eh          T*S/Eh         G(T)/Eh
   ------------------------------------------------------------------------
    298.15    0.159032E-01    0.276693E+00    0.569323E-01    0.219760E+00
   ------------------------------------------------------------------------

         :::::::::::::::::::::::::::::::::::::::::::::::::::::
         ::                  THERMODYNAMIC                  ::
         :::::::::::::::::::::::::::::::::::::::::::::::::::::
         :: total free energy         -52.161976680267 Eh   ::
         ::.................................................::
         :: total energy              -52.381737160521 Eh   ::
         :: zero point energy           0.260789548195 Eh   ::
         :: G(RRHO) w/o ZPVE           -0.041029067941 Eh   ::
         :: G(RRHO) contrib.            0.219760480254 Eh   ::
         :::::::::::::::::::::::::::::::::::::::::::::::::::::

           -------------------------------------------------
          | TOTAL ENERGY              -52.381737160521 Eh   |
          | TOTAL ENTHALPY            -52.105044401933 Eh   |
          | TOTAL FREE ENERGY         -52.161976680267 Eh   |
          | GRADIENT NORM               0.000107326361 Eh/α |
          | HOMO-LUMO GAP               1.156122480784 eV   |
           -------------------------------------------------

 * finished run on 2025/09/09 at 23:48:27.692
