   * xtb version 6.7.1 (edcfbbe) compiled by 'albert@albert-system' on 2024-07-22

   ID    Z sym.   atoms
    1    6 C      1-4, 6-21
    2    7 N      5
    3    1 H      22-34

          program call               : xtb data2507/gas/indenoacridine/indenoacridine_gas_S0_crest.xyz --gfn 2 --ohess vtight --parallel 40 --molden --ceasefiles --namespace data2507/gas/indenoacridine/indenoacridine_gas_S0_finalOpt
          :  Hamiltonian                  GFN2-xTB          :
 * total energy  :   -52.3817300 Eh     change       -0.6264571E-09 Eh
 * total energy  :   -52.3817310 Eh     change       -0.1056410E-05 Eh
 * total energy  :   -52.3817324 Eh     change       -0.1346928E-05 Eh
 * total energy  :   -52.3817340 Eh     change       -0.1656761E-05 Eh
 * total energy  :   -52.3817357 Eh     change       -0.1693504E-05 Eh
 * total energy  :   -52.3817368 Eh     change       -0.1032609E-05 Eh
 * total energy  :   -52.3817371 Eh     change       -0.3478291E-06 Eh
 * total energy  :   -52.3817372 Eh     change       -0.6192703E-07 Eh
   *** GEOMETRY OPTIMIZATION CONVERGED AFTER 8 ITERATIONS ***

 final structure:
================
34
 xtb: 6.7.1 (edcfbbe)
C           -5.15564066566932       -1.53134891176375       -0.00242273361063
C           -5.57066097915150       -0.20094826125538       -0.00256200001567
C           -4.64397203730651        0.81911776736702       -0.00209396423030
C           -3.28049762462090        0.52203610496789       -0.00159031230377
N           -2.34272294632210        1.51208202386801       -0.00125786284700
C           -0.98781111259108        1.30263478865570       -0.00123892989903
C           -0.11175744302620        2.36297391713593       -0.00121726251113
C            1.27708657743504        2.15276663331534       -0.00128669454412
C            1.77321346516235        0.88038160575119       -0.00137477989790
C            3.11928459451145        0.36846919410704       -0.00159883205056
C            4.35600875681597        0.99062421760669       -0.00175548309744
C            5.49589020025726        0.20443446618932       -0.00203263545621
C            5.40953029352316       -1.18542568466614       -0.00223153868470
C            4.18402042440031       -1.82386573922123       -0.00211509651306
C            3.02756328076175       -1.05102242664403       -0.00178347977967
C            1.64791940381694       -1.41711545012497       -0.00152662907121
C            0.88942691334538       -0.26623416345302       -0.00135800251251
C           -0.52749796970288       -0.06820144907525       -0.00126700340384
C           -1.45169816952991       -1.08307641102805       -0.00124687148527
C           -2.84664854713394       -0.82383429467286       -0.00150320639175
C           -3.81467541162984       -1.83796439138204       -0.00187254849211
H           -5.89191317488812       -2.32053544459773       -0.00276778182628
H           -6.62449838336783        0.03299620535105       -0.00300564356304
H           -4.96209725970827        1.85222186721697       -0.00216965613509
H           -2.66522000232911        2.47112238849337       -0.00125813714401
H           -0.49976988653693        3.37201523246662       -0.00120012966314
H            1.93800087956741        3.00733710688368       -0.00136715758866
H            4.43354934493022        2.06869919926074       -0.00173150029344
H            6.46960604561098        0.67346599664937       -0.00226061987217
H            6.31849656585372       -1.77040391884496       -0.00247082518223
H            4.12364269291664       -2.90316251523149       -0.00217873987424
H            1.28715257830497       -2.42985128636219       -0.00160872312931
H           -1.12099715792619       -2.11028425776502       -0.00116497598993
H           -3.48695156967296       -2.86687303049784       -0.00180683564058

          :  Hamiltonian                  GFN2-xTB          :
         :: gradient norm              0.000041900705 Eh/a0 ::
         :: HOMO-LUMO gap              1.156080663681 eV    ::
         :: SCC energy               -53.388248670802 Eh    ::
         :: -> dispersion             -0.041517700150 Eh    ::
         :: repulsion energy           1.006511506411 Eh    ::

    * Orbital Energies and Occupations

         #    Occupation            Energy/Eh            Energy/eV
      -------------------------------------------------------------
         1        2.0000           -0.6846788             -18.6311
       ...           ...                  ...                  ...
        37        2.0000           -0.4455393             -12.1237
        38        2.0000           -0.4399478             -11.9716
        39        2.0000           -0.4382451             -11.9253
        40        2.0000           -0.4235795             -11.5262
        41        2.0000           -0.4221913             -11.4884
        42        2.0000           -0.4158614             -11.3162
        43        2.0000           -0.4131901             -11.2435
        44        2.0000           -0.4054603             -11.0331
        45        2.0000           -0.4012394             -10.9183
        46        2.0000           -0.3979339             -10.8283
        47        2.0000           -0.3879860             -10.5576
        48        2.0000           -0.3582297              -9.7479
        49        2.0000           -0.3338492              -9.0845 (HOMO)
        50                         -0.2913642              -7.9284 (LUMO)
        51                         -0.2419465              -6.5837
        52                         -0.2246516              -6.1131
        53                         -0.2085097              -5.6738
        54                         -0.1913978              -5.2082
        55                         -0.1604206              -4.3653
        56                         -0.1580950              -4.3020
        57                         -0.0926345              -2.5207
        58                         -0.0534420              -1.4542
        59                         -0.0405327              -1.1030
        60                          0.0090062               0.2451
       ...                                ...                  ...
        97                          0.7666392              20.8613
      -------------------------------------------------------------
                  HL-Gap            0.0424850 Eh            1.1561 eV

     #   Z          covCN         q      C6AA      α(0)
     1   6 C        2.915    -0.037    28.913     8.817
     2   6 C        2.919    -0.027    28.686     8.783
     3   6 C        2.918    -0.058    29.445     8.898
     4   6 C        2.922     0.068    26.475     8.438
     5   7 N        2.706    -0.102    23.238     7.159
     6   6 C        2.914     0.065    26.551     8.450
     7   6 C        2.917    -0.079    29.985     8.979
     8   6 C        2.909    -0.022    28.556     8.762
     9   6 C        3.069    -0.018    28.386     8.736
    10   6 C        3.064    -0.008    28.165     8.703
    11   6 C        2.910    -0.035    28.860     8.809
    12   6 C        2.921    -0.037    28.909     8.817
    13   6 C        2.919    -0.036    28.901     8.816
    14   6 C        2.911    -0.036    28.904     8.816
    15   6 C        3.092    -0.002    27.965     8.668
    16   6 C        2.990    -0.053    29.310     8.881
    17   6 C        3.076    -0.017    28.356     8.731
    18   6 C        2.967     0.010    27.795     8.648
    19   6 C        2.918    -0.039    28.958     8.824
    20   6 C        2.981     0.004    27.939     8.670
    21   6 C        2.921    -0.036    28.899     8.816
    22   1 H        0.926     0.035     2.514     2.479
    23   1 H        0.926     0.036     2.499     2.472
    24   1 H        0.926     0.028     2.614     2.528
    25   1 H        0.860     0.170     1.273     1.767
    26   1 H        0.926     0.015     2.803     2.618
    27   1 H        0.926     0.030     2.580     2.512
    28   1 H        0.926     0.020     2.732     2.585
    29   1 H        0.926     0.020     2.730     2.584
    30   1 H        0.926     0.020     2.731     2.584
    31   1 H        0.926     0.021     2.718     2.578
    32   1 H        0.926     0.017     2.786     2.610
    33   1 H        0.926     0.044     2.394     2.419
    34   1 H        0.926     0.039     2.466     2.455

molecular dipole:
                 x           y           z       tot (Debye)
 q only:       -1.629       0.433       0.000
   full:       -1.749       0.608      -0.000       4.707

 projected vibrational frequencies (cm⁻¹)
eigval :       -0.00    -0.00     0.00     0.00     0.00     0.00
eigval :       44.04    61.63   105.51   115.07   127.59   219.19
eigval :      230.67   243.92   275.30   278.91   315.69   356.43
eigval :      401.15   421.13   424.72   447.95   468.33   507.97
eigval :      511.77   526.55   528.05   540.29   577.71   604.02
eigval :      615.67   628.14   651.55   687.23   698.00   716.06
eigval :      739.40   763.32   766.11   768.66   787.54   802.92
eigval :      833.19   847.62   861.94   863.09   869.07   869.62
eigval :      887.31   901.09   902.45   910.65   918.77   919.53
eigval :     1015.99  1070.31  1085.50  1101.44  1135.95  1145.03
eigval :     1160.21  1178.75  1183.16  1199.56  1210.20  1218.22
eigval :     1224.85  1263.14  1268.28  1289.31  1297.63  1308.44
eigval :     1340.52  1358.15  1363.82  1382.80  1402.51  1417.78
eigval :     1451.07  1468.45  1470.99  1504.46  1518.86  1539.37
eigval :     1563.29  1573.53  1588.54  1594.92  1629.75  3061.83
eigval :     3064.25  3065.36  3069.33  3072.60  3081.08  3083.07
eigval :     3083.16  3089.88  3097.71  3100.56  3127.07  3397.13

   temp. (K)  partition function   enthalpy   heat capacity  entropy
                                   cal/mol     cal/K/mol   cal/K/mol   J/K/mol
 298.15  VIB  0.157E+05             7627.402     57.136     43.533
         ROT  0.565E+07              888.752      2.981     33.878
         INT  0.885E+11             8516.154     60.117     77.411
         TR   0.423E+28             1481.254      4.968     42.630
         TOT                        9997.4078    65.0847   120.0411   502.2518

       T/K    H(0)-H(T)+PV         H(T)/Eh          T*S/Eh         G(T)/Eh
   ------------------------------------------------------------------------
    298.15    0.159319E-01    0.276692E+00    0.570354E-01    0.219657E+00
   ------------------------------------------------------------------------

         :::::::::::::::::::::::::::::::::::::::::::::::::::::
         ::                  THERMODYNAMIC                  ::
         :::::::::::::::::::::::::::::::::::::::::::::::::::::
         :: total free energy         -52.162080655572 Eh   ::
         ::.................................................::
         :: total energy              -52.381737164386 Eh   ::
         :: zero point energy           0.260760004292 Eh   ::
         :: G(RRHO) w/o ZPVE           -0.041103495477 Eh   ::
         :: G(RRHO) contrib.            0.219656508815 Eh   ::
         :::::::::::::::::::::::::::::::::::::::::::::::::::::

           -------------------------------------------------
          | TOTAL ENERGY              -52.381737164386 Eh   |
          | TOTAL ENTHALPY            -52.105045276580 Eh   |
          | TOTAL FREE ENERGY         -52.162080655572 Eh   |
          | GRADIENT NORM               0.000041841499 Eh/α |
          | HOMO-LUMO GAP               1.156076569749 eV   |
           -------------------------------------------------

 * finished run on 2025/09/09 at 23:49:13.927
