   * xtb version 6.7.1 (edcfbbe) compiled by 'albert@albert-system' on 2024-07-22

   ID    Z sym.   atoms
    1    6 C      1-4, 6-21
    2    7 N      5
    3    1 H      22-34

          program call               : xtb data2507/gas/indenoacridine/indenoacridine_gas_T1_crest.xyz --gfn 2 --spinpol --tblite --uhf 2 --ohess vtight --parallel 40 --molden --ceasefiles --namespace data2507/gas/indenoacridine/indenoacridine_gas_T1_finalOpt
 * total energy  :   -52.3431327 Eh     change        0.1069152E-07 Eh
 * total energy  :   -52.3431692 Eh     change       -0.3652324E-04 Eh
 * total energy  :   -52.3431772 Eh     change       -0.7979750E-05 Eh
 * total energy  :   -52.3431775 Eh     change       -0.2697712E-06 Eh
 * total energy  :   -52.3431774 Eh     change        0.7754209E-07 Eh
 * total energy  :   -52.3431776 Eh     change       -0.1573656E-06 Eh
 * total energy  :   -52.3431776 Eh     change       -0.5529578E-07 Eh
   *** GEOMETRY OPTIMIZATION CONVERGED AFTER 7 ITERATIONS ***

 final structure:
================
34
 xtb: 6.7.1 (edcfbbe)
C           -5.16051530524116       -1.52973667907585       -0.00357325794556
C           -5.57496078905067       -0.20306044538908       -0.00648623661918
C           -4.63555982718707        0.81755269785740       -0.00487080672015
C           -3.28162123818516        0.51795169262561       -0.00069380148590
N           -2.33924909095676        1.51577938947483        0.00106949229320
C           -0.98083969581492        1.28947110167236        0.00234386607432
C           -0.09791282843190        2.37397120528946        0.00174102167921
C            1.27423618318928        2.18172048467254        0.00147979132883
C            1.76083607627300        0.88088423504915        0.00190706928185
C            3.11805327081149        0.36449418514274        0.00010661329657
C            4.34588953752356        0.98431660613705       -0.00308986208963
C            5.49597523173713        0.19424233320882       -0.00536128955796
C            5.41240117297677       -1.19128567987063       -0.00427774886376
C            4.18403403264564       -1.83283077566631       -0.00094312457556
C            3.02457820155483       -1.06029510361809        0.00113857299636
C            1.65608933005094       -1.42147736754301        0.00359765207892
C            0.88247321885787       -0.23125030958682        0.00365327463117
C           -0.51986367823565       -0.04649346645511        0.00389976853148
C           -1.45974086838682       -1.09972355262658        0.00461399995106
C           -2.83833036823344       -0.83328573247959        0.00178587030735
C           -3.81939549390401       -1.84331785108942        0.00056586584719
H           -5.89720847888513       -2.31947277566741       -0.00469979411784
H           -6.62693968475223        0.03766775651193       -0.01003708692864
H           -4.95221907747106        1.85145980064577       -0.00700392289756
H           -2.66195857768484        2.47316334963431       -0.00062669118910
H           -0.50436422629526        3.37617786216331        0.00106286127757
H            1.94458297826420        3.02702958466480        0.00064943485786
H            4.42735893699724        2.06173549204016       -0.00405672758947
H            6.46638566444620        0.66876257523465       -0.00813163034537
H            6.32049018894958       -1.77672353890713       -0.00618936718688
H            4.12466448585419       -2.91163465146854       -0.00021419323235
H            1.27741860162944       -2.42658682478534        0.00485264254661
H           -1.11855139460248       -2.12152365250681        0.00649268736178
H           -3.49736402914280       -2.87393970178915        0.00270691780359

 projected vibrational frequencies (cm⁻¹)
eigval :       -0.00    -0.00    -0.00     0.00     0.00     0.00
eigval :       40.91    66.95    99.20   111.96   129.37   208.87
eigval :      228.55   244.61   273.16   276.09   305.34   349.77
eigval :      399.31   401.74   420.21   444.65   475.19   500.93
eigval :      508.35   517.01   522.88   534.02   536.01   572.74
eigval :      599.14   600.71   645.61   670.87   685.57   704.88
eigval :      717.78   735.22   739.40   765.50   766.12   768.61
eigval :      797.05   830.28   844.99   860.78   861.25   863.74
eigval :      871.90   878.79   898.10   910.06   911.44   912.99
eigval :     1015.26  1066.81  1085.41  1093.63  1121.97  1133.60
eigval :     1147.94  1177.91  1180.32  1186.41  1194.52  1200.31
eigval :     1218.27  1254.63  1259.60  1272.42  1282.04  1288.99
eigval :     1326.75  1343.55  1355.73  1385.22  1388.80  1403.58
eigval :     1422.16  1442.79  1453.07  1456.52  1480.51  1520.53
eigval :     1540.12  1549.03  1553.35  1563.53  1584.12  3062.73
eigval :     3064.00  3070.22  3073.16  3077.37  3080.66  3087.78
eigval :     3089.83  3095.16  3097.59  3112.05  3139.50  3415.62

   temp. (K)  partition function   enthalpy   heat capacity  entropy
                                   cal/mol     cal/K/mol   cal/K/mol   J/K/mol
 298.15  VIB  0.196E+05             7805.299     58.308     44.507
         ROT  0.567E+07              888.752      2.981     33.885
         INT  0.111E+12             8694.051     61.289     78.392
         TR   0.423E+28             1481.254      4.968     42.630
         TOT                       10175.3048    66.2574   121.0220   506.3559

       T/K    H(0)-H(T)+PV         H(T)/Eh          T*S/Eh         G(T)/Eh
   ------------------------------------------------------------------------
    298.15    0.162154E-01    0.274614E+00    0.575014E-01    0.217112E+00
   ------------------------------------------------------------------------

         :::::::::::::::::::::::::::::::::::::::::::::::::::::
         ::                  THERMODYNAMIC                  ::
         :::::::::::::::::::::::::::::::::::::::::::::::::::::
         :: total free energy         -52.126065482712 Eh   ::
         ::.................................................::
         :: total energy              -52.343177609383 Eh   ::
         :: zero point energy           0.258398181165 Eh   ::
         :: G(RRHO) w/o ZPVE           -0.041286054493 Eh   ::
         :: G(RRHO) contrib.            0.217112126672 Eh   ::
         :::::::::::::::::::::::::::::::::::::::::::::::::::::

           -------------------------------------------------
          | TOTAL ENERGY              -52.343177609383 Eh   |
          | TOTAL ENTHALPY            -52.068564047799 Eh   |
          | TOTAL FREE ENERGY         -52.126065482712 Eh   |
          | GRADIENT NORM               0.000065039891 Eh/α |
           -------------------------------------------------

 * finished run on 2025/09/09 at 23:50:03.806
