   * xtb version 6.7.1 (edcfbbe) compiled by 'albert@albert-system' on 2024-07-22

   ID    Z sym.   atoms
    1    6 C      1-20, 22-26, 28-31, 33-42
    2    7 N      21
    3    8 O      27
    4   16 S      32
    5    1 H      43-77

          program call               : xtb data2507/toluene/tCTM/tCTM_toluene_S0_finalOpt.xtbopt.xyz --gfn 2 --uhf 2 --gbsa toluene --ohess vtight --parallel 40 --molden --ceasefiles --namespace data2507/toluene/tCTM/tCTM_toluene_T1_preOpt
      * Solvation model:               GBSA
        Solvent                        toluene
        Solvent mass                       9.2140E+01 g/mol
          :  Hamiltonian                  GFN2-xTB          :
 * total energy  :  -111.6309442 Eh     change       -0.5155840E-08 Eh
 * total energy  :  -111.6343455 Eh     change       -0.3401310E-02 Eh
 * total energy  :  -111.6352503 Eh     change       -0.9048645E-03 Eh
 * total energy  :  -111.6353862 Eh     change       -0.1359039E-03 Eh
 * total energy  :  -111.6354827 Eh     change       -0.9642275E-04 Eh
 * total energy  :  -111.6355630 Eh     change       -0.8033044E-04 Eh
 * total energy  :  -111.6356284 Eh     change       -0.6540064E-04 Eh
 * total energy  :  -111.6356707 Eh     change       -0.4229728E-04 Eh
 * total energy  :  -111.6357155 Eh     change       -0.4485999E-04 Eh
 * total energy  :  -111.6357500 Eh     change       -0.3447359E-04 Eh
 * total energy  :  -111.6364260 Eh     change       -0.9279375E-06 Eh
 * total energy  :  -111.6364269 Eh     change       -0.9070366E-06 Eh
 * total energy  :  -111.6364278 Eh     change       -0.8550682E-06 Eh
 * total energy  :  -111.6364286 Eh     change       -0.8910873E-06 Eh
 * total energy  :  -111.6364295 Eh     change       -0.8427038E-06 Eh
 * total energy  :  -111.6364303 Eh     change       -0.8233994E-06 Eh
 * total energy  :  -111.6364311 Eh     change       -0.8137363E-06 Eh
 * total energy  :  -111.6364319 Eh     change       -0.8084285E-06 Eh
 * total energy  :  -111.6364319 Eh     change       -0.6776986E-08 Eh
   *** GEOMETRY OPTIMIZATION CONVERGED AFTER 94 ITERATIONS ***

 final structure:
================
77
 xtb: 6.7.1 (edcfbbe)
C           -3.10687423070762       -5.69808327359336        1.22442228066934
C           -3.54544621007899       -4.99982891708436       -0.07248757553928
C           -2.84608813839452       -5.65238084207465       -1.27563696724527
C           -5.05563301950748       -5.19714298589972       -0.23489140241545
C           -3.14911391819084       -3.53483349323693       -0.00700357968901
C           -1.79364482722315       -3.20228814250627        0.12913395066034
C           -1.34336777320335       -1.89870324615980        0.17994503916793
C           -2.28262213618935       -0.87880269925354        0.07923374548308
C           -3.65950611497293       -1.18836964705841       -0.01936574772959
C           -4.08494467219350       -2.50363461879649       -0.06728535607316
C           -4.35688859499919        0.07462931541805       -0.03505552475882
C           -5.69537528730165        0.41321811124093       -0.11217090719983
C           -6.06878519421540        1.75634560779280       -0.12101682044561
C           -7.52126206978851        2.19680849353895       -0.18076664596008
C           -8.49629994987560        1.01611610114434       -0.22150372703238
C           -7.83696025033076        3.03584565739777        1.06776624241234
C           -7.74161159658000        3.04291253320691       -1.44454977460763
C           -5.06200376357897        2.73181013463406       -0.07939085546402
C           -3.71926135921763        2.42105292317173       -0.00495345737064
C           -3.36192031369262        1.07814198228837        0.04697845314260
N           -2.11838479138658        0.48975434215208        0.11805333719298
C           -0.89917359530789        1.15615767189212        0.21932060579986
C            0.18352599190213        0.77392839908246       -0.59069358857631
C            1.39604726514774        1.40088554205539       -0.47650109690482
C            1.59900869209102        2.42860496218901        0.47264789359715
C            2.85381852402782        3.12820911560761        0.63726890275529
O            2.85431337576941        4.31735308632633        1.09234828271186
C            4.10886780861640        2.48192594859577        0.28050152557652
C            5.22682536811414        3.28767303604030       -0.02900116942607
C            6.45079958626146        2.73859425059920       -0.32553619867018
C            6.58601033253510        1.35515922784012       -0.29608300456468
S            8.04945205290364        0.45178006984658       -0.62290073823632
C            7.22354990461944       -1.05937491803710       -0.28912123174850
C            7.79097988263345       -2.32194485482841       -0.34438160051018
C            6.99562540293064       -3.41474438176411       -0.05026997115089
C            5.65802012158133       -3.24703649084715        0.29129545870665
C            5.09482368850335       -1.98581685185423        0.34550972390773
C            5.87460706548949       -0.87143852168305        0.05624680581479
C            5.50201672819578        0.52385662068392        0.04960038092039
C            4.27543904437050        1.09116447201634        0.34346649153179
C            0.47539275940521        2.85961958547173        1.21897802265850
C           -0.73298026616023        2.22747272404410        1.11412022831644
H           -3.57677772041232       -5.22601760122269        2.08501275651898
H           -2.02961884815842       -5.65398481645988        1.35720189282266
H           -3.40339628982641       -6.74437610191197        1.20044718297160
H           -3.13087598547457       -5.14745455343762       -2.19665178124880
H           -3.13705573758470       -6.69776673156763       -1.35154780840384
H           -1.76475983828586       -5.60752658385241       -1.18239437666574
H           -5.59932088173130       -4.78550440190335        0.61226892985531
H           -5.41488369412262       -4.73625605225923       -1.15218652639461
H           -5.27610491302769       -6.26132274469958       -0.28707061611589
H           -1.06102188901492       -3.99027411908048        0.20300627630350
H           -0.29388096309389       -1.68329716420267        0.30642295803322
H           -5.13884708861620       -2.70805608609028       -0.14625646729518
H           -6.42955679567422       -0.37217818556039       -0.16626039946527
H           -8.39968150923258        0.39623263078648        0.66685385997200
H           -8.33627750384171        0.40536812370434       -1.10702242382329
H           -9.51637632496180        1.39297967275777       -0.25623281838626
H           -8.88113073770084        3.34039036490727        1.05568288659340
H           -7.22325987476970        3.93109899592603        1.11315820021742
H           -7.65810404485863        2.45283240094463        1.96915176418964
H           -8.78446042167069        3.34516565041646       -1.51051414013369
H           -7.49281522243632        2.46572786488072       -2.33289747353159
H           -7.12887923385988        3.93986887643112       -1.43768694725662
H           -5.33475377897967        3.77478989489391       -0.11205230598385
H           -2.97356870963486        3.20087459060430       -0.00105818178409
H            0.03612504646785        0.01374599707052       -1.34389443833253
H            2.19754398356748        1.13204274225085       -1.14785541444326
H            5.08848831408223        4.35897465116228       -0.03531805202744
H            7.29360350040015        3.36543782691666       -0.57536737445982
H            8.82987791522634       -2.44148464142964       -0.61015699048795
H            7.42006531193758       -4.40675266197314       -0.08648662063885
H            5.05352507632523       -4.11272490371957        0.51762078353903
H            4.05681537495552       -1.85739648729154        0.61254271231635
H            3.45840843149637        0.46231126420764        0.66114988777776
H            0.61945057258343        3.67801921918294        1.90920918399631
H           -1.55399454256987        2.51677729308559        1.75318409277413

          :  Hamiltonian                  GFN2-xTB          :
         :: gradient norm              0.000072130396 Eh/a0 ::
         :: HOMO-LUMO gap              0.675457109230 eV    ::
         :: SCC energy              -113.545205561617 Eh    ::
         :: -> dispersion             -0.098002337144 Eh    ::
         :: -> Gsolv                  -0.058797115562 Eh    ::
         :: repulsion energy           1.908773622657 Eh    ::

    * Orbital Energies and Occupations

         #    Occupation            Energy/Eh            Energy/eV
      -------------------------------------------------------------
         1        2.0000           -0.7282235             -19.8160
       ...           ...                  ...                  ...
        93        2.0000           -0.4242184             -11.5436
        94        2.0000           -0.4206235             -11.4457
        95        2.0000           -0.4184713             -11.3872
        96        2.0000           -0.4131361             -11.2420
        97        2.0000           -0.4121104             -11.2141
        98        2.0000           -0.4108958             -11.1810
        99        2.0000           -0.4064030             -11.0588
       100        2.0000           -0.3907398             -10.6326
       101        2.0000           -0.3891626             -10.5897
       102        1.9623           -0.3757519             -10.2247
       103        1.8098           -0.3740507             -10.1784
       104        1.2279           -0.3715154             -10.1094
       105        1.0000           -0.2820418              -7.6747 (HOMO)
       106        0.0000           -0.2572191              -6.9993 (LUMO)
       107        0.0000           -0.2556816              -6.9574
       108                         -0.2383583              -6.4861
       109                         -0.2368424              -6.4448
       110                         -0.2321376              -6.3168
       111                         -0.2266938              -6.1687
       112                         -0.2098410              -5.7101
       113                         -0.2079543              -5.6587
       114                         -0.2003336              -5.4514
       115                         -0.1978245              -5.3831
       116                         -0.1720333              -4.6813
       ...                                ...                  ...
       208                          0.7242481              19.7078
      -------------------------------------------------------------
                  HL-Gap            0.0248227 Eh            0.6755 eV

     #   Z          covCN         q      C6AA      α(0)
     1   6 C        3.761    -0.107    22.598     6.777
     2   6 C        3.903     0.028    20.049     6.365
     3   6 C        3.761    -0.108    22.601     6.777
     4   6 C        3.761    -0.111    22.672     6.788
     5   6 C        2.973     0.016    27.641     8.624
     6   6 C        2.928    -0.036    28.888     8.814
     7   6 C        2.907    -0.039    28.969     8.825
     8   6 C        3.078     0.042    26.972     8.514
     9   6 C        3.061    -0.010    28.214     8.710
    10   6 C        2.916    -0.036    28.889     8.814
    11   6 C        3.062    -0.010    28.210     8.710
    12   6 C        2.916    -0.036    28.889     8.814
    13   6 C        2.973     0.017    27.630     8.622
    14   6 C        3.903     0.028    20.048     6.365
    15   6 C        3.761    -0.111    22.675     6.788
    16   6 C        3.761    -0.107    22.597     6.776
    17   6 C        3.761    -0.107    22.598     6.777
    18   6 C        2.928    -0.035    28.882     8.813
    19   6 C        2.907    -0.039    28.961     8.824
    20   6 C        3.077     0.043    26.962     8.513
    21   7 N        2.800     0.010    21.081     6.819
    22   6 C        2.912     0.040    27.110     8.538
    23   6 C        2.915    -0.041    29.016     8.833
    24   6 C        2.916    -0.042    29.032     8.836
    25   6 C        2.967    -0.012    28.317     8.729
    26   6 C        2.833     0.164    24.456     8.104
    27   8 O        0.858    -0.507    23.947     6.561
    28   6 C        2.967    -0.017    28.419     8.744
    29   6 C        2.927    -0.031    28.780     8.798
    30   6 C        2.929    -0.040    29.002     8.832
    31   6 C        3.000     0.025    27.423     8.590
    32  16 S        2.203    -0.086   144.634    20.241
    33   6 C        3.001     0.039    27.116     8.542
    34   6 C        2.935    -0.037    28.930     8.821
    35   6 C        2.923    -0.030    28.760     8.794
    36   6 C        2.918    -0.033    28.820     8.803
    37   6 C        2.917    -0.032    28.796     8.800
    38   6 C        3.101    -0.002    27.942     8.662
    39   6 C        3.096    -0.004    28.015     8.674
    40   6 C        2.918    -0.045    29.121     8.849
    41   6 C        2.921    -0.030    28.748     8.793
    42   6 C        2.914    -0.041    29.018     8.833
    43   1 H        0.925     0.036     2.498     2.472
    44   1 H        0.925     0.040     2.454     2.450
    45   1 H        0.925     0.044     2.400     2.423
    46   1 H        0.925     0.036     2.497     2.471
    47   1 H        0.925     0.044     2.402     2.424
    48   1 H        0.925     0.040     2.450     2.448
    49   1 H        0.925     0.040     2.447     2.446
    50   1 H        0.925     0.040     2.446     2.446
    51   1 H        0.925     0.041     2.431     2.438
    52   1 H        0.926     0.047     2.356     2.401
    53   1 H        0.926     0.044     2.395     2.420
    54   1 H        0.926     0.059     2.214     2.327
    55   1 H        0.926     0.059     2.207     2.323
    56   1 H        0.925     0.041     2.442     2.444
    57   1 H        0.925     0.041     2.441     2.443
    58   1 H        0.925     0.042     2.428     2.437
    59   1 H        0.925     0.044     2.399     2.422
    60   1 H        0.925     0.039     2.457     2.451
    61   1 H        0.925     0.036     2.497     2.471
    62   1 H        0.925     0.044     2.398     2.422
    63   1 H        0.925     0.037     2.494     2.470
    64   1 H        0.925     0.039     2.458     2.452
    65   1 H        0.926     0.046     2.366     2.406
    66   1 H        0.926     0.044     2.399     2.422
    67   1 H        0.926     0.045     2.382     2.414
    68   1 H        0.926     0.038     2.469     2.457
    69   1 H        0.926     0.034     2.528     2.487
    70   1 H        0.926     0.036     2.500     2.473
    71   1 H        0.926     0.045     2.388     2.417
    72   1 H        0.926     0.044     2.390     2.417
    73   1 H        0.926     0.043     2.406     2.426
    74   1 H        0.926     0.042     2.426     2.436
    75   1 H        0.926     0.040     2.448     2.447
    76   1 H        0.926     0.037     2.492     2.469
    77   1 H        0.926     0.045     2.388     2.417

molecular dipole:
                 x           y           z       tot (Debye)
 q only:       -4.980      -4.121      -0.790
   full:       -4.930      -3.951      -0.734      16.167

 projected vibrational frequencies (cm⁻¹)
eigval :       -0.00    -0.00    -0.00     0.00     0.00     0.00
eigval :       11.67    16.22    22.63    30.51    31.84    34.31
eigval :       38.73    57.11    68.71    79.81    82.89   103.43
eigval :      110.69   116.82   123.67   133.09   161.65   168.30
eigval :      175.52   186.99   189.23   201.30   217.89   222.17
eigval :      228.34   232.51   236.52   257.07   259.13   263.79
eigval :      268.84   281.60   296.92   307.03   318.10   322.76
eigval :      333.83   338.71   354.53   355.25   369.88   384.19
eigval :      386.28   394.22   395.87   399.91   403.53   415.27
eigval :      421.02   437.68   441.23   442.95   456.65   465.57
eigval :      471.17   479.46   482.94   509.05   514.17   518.09
eigval :      565.59   575.54   584.20   585.93   593.36   599.53
eigval :      607.12   625.15   643.13   648.35   657.01   667.96
eigval :      686.50   695.64   697.13   706.34   711.22   714.26
eigval :      732.29   769.07   801.51   806.16   816.08   824.56
eigval :      828.14   829.82   843.42   861.49   862.96   866.08
eigval :      870.78   872.15   901.07   904.13   905.87   909.76
eigval :      916.10   919.34   920.54   924.02   927.47   930.71
eigval :      939.52   958.06   958.77   962.10   962.81   963.54
eigval :      964.81   982.65   998.34  1027.75  1032.40  1032.94
eigval :     1034.82  1038.32  1038.74  1074.25  1085.70  1105.17
eigval :     1124.04  1132.14  1135.60  1142.97  1149.40  1150.57
eigval :     1159.70  1174.03  1178.37  1201.50  1218.88  1219.44
eigval :     1219.64  1220.24  1225.02  1225.12  1228.58  1233.71
eigval :     1245.40  1250.57  1254.65  1267.52  1278.52  1281.75
eigval :     1294.06  1317.39  1327.73  1332.81  1338.89  1348.78
eigval :     1358.99  1387.11  1398.08  1401.46  1402.45  1402.89
eigval :     1404.75  1406.61  1409.63  1420.23  1424.89  1426.45
eigval :     1426.79  1432.59  1443.51  1448.24  1453.79  1460.21
eigval :     1469.26  1487.48  1487.51  1488.77  1489.85  1490.18
eigval :     1495.34  1496.21  1500.63  1501.03  1510.38  1510.58
eigval :     1514.42  1515.04  1523.48  1546.82  1557.52  1559.22
eigval :     1560.98  1570.57  1575.52  1588.07  3023.76  3023.86
eigval :     3024.24  3024.35  3027.70  3028.01  3028.38  3028.45
eigval :     3031.56  3032.02  3033.89  3034.28  3039.05  3039.21
eigval :     3047.49  3047.86  3050.54  3051.15  3076.82  3079.48
eigval :     3079.60  3079.85  3085.40  3089.46  3089.96  3090.90
eigval :     3091.66  3092.03  3092.54  3093.09  3099.68  3103.32
eigval :     3104.19  3126.16  3128.50

   temp. (K)  partition function   enthalpy   heat capacity  entropy
                                   cal/mol     cal/K/mol   cal/K/mol   J/K/mol
 298.15  VIB  0.173E+17            22151.505    139.764    135.158
         ROT  0.861E+08              888.752      2.981     39.290
         INT  0.149E+25            23040.258    142.745    174.448
         TR   0.130E+29             1481.254      4.968     44.863
         TOT                       24521.5115   147.7128   219.3111   917.5976

       T/K    H(0)-H(T)+PV         H(T)/Eh          T*S/Eh         G(T)/Eh
   ------------------------------------------------------------------------
    298.15    0.390775E-01    0.653136E+00    0.104202E+00    0.548934E+00
   ------------------------------------------------------------------------

         :::::::::::::::::::::::::::::::::::::::::::::::::::::
         ::                  THERMODYNAMIC                  ::
         :::::::::::::::::::::::::::::::::::::::::::::::::::::
         :: total free energy        -111.087497756205 Eh   ::
         ::.................................................::
         :: total energy             -111.636431939693 Eh   ::
         :: zero point energy           0.614058444157 Eh   ::
         :: G(RRHO) w/o ZPVE           -0.065124260668 Eh   ::
         :: G(RRHO) contrib.            0.548934183489 Eh   ::
         :::::::::::::::::::::::::::::::::::::::::::::::::::::

           -------------------------------------------------
          | TOTAL ENERGY             -111.636431939693 Eh   |
          | TOTAL ENTHALPY           -110.983295979507 Eh   |
          | TOTAL FREE ENERGY        -111.087497756205 Eh   |
          | GRADIENT NORM               0.000072255521 Eh/α |
          | HOMO-LUMO GAP               0.675460280265 eV   |
           -------------------------------------------------

 * finished run on 2025/09/07 at 01:47:47.399
