   * xtb version 6.7.1 (edcfbbe) compiled by 'albert@albert-system' on 2024-07-22

   ID    Z sym.   atoms
    1    6 C      1-20, 22-26, 28-31, 33-42
    2    7 N      21
    3    8 O      27
    4   16 S      32
    5    1 H      43-77

          program call               : xtb data2507/toluene/tCTM/tCTM_toluene_T1_crest.xyz --gfn 2 --uhf 2 --gbsa toluene --ohess vtight --parallel 40 --molden --ceasefiles --namespace data2507/toluene/tCTM/tCTM_toluene_T1_finalOpt
      * Solvation model:               GBSA
        Solvent                        toluene
        Solvent mass                       9.2140E+01 g/mol
          :  Hamiltonian                  GFN2-xTB          :
 * total energy  :  -111.6362979 Eh     change       -0.1241587E-07 Eh
 * total energy  :  -111.6364276 Eh     change       -0.1297817E-03 Eh
 * total energy  :  -111.6364601 Eh     change       -0.3241195E-04 Eh
 * total energy  :  -111.6364669 Eh     change       -0.6854489E-05 Eh
 * total energy  :  -111.6364717 Eh     change       -0.4747155E-05 Eh
 * total energy  :  -111.6364778 Eh     change       -0.6140242E-05 Eh
 * total energy  :  -111.6364826 Eh     change       -0.4749800E-05 Eh
 * total energy  :  -111.6364863 Eh     change       -0.3758355E-05 Eh
 * total energy  :  -111.6364897 Eh     change       -0.3375186E-05 Eh
 * total energy  :  -111.6364925 Eh     change       -0.2766738E-05 Eh
 * total energy  :  -111.6365064 Eh     change       -0.1540783E-06 Eh
 * total energy  :  -111.6365066 Eh     change       -0.2106423E-06 Eh
 * total energy  :  -111.6365068 Eh     change       -0.1866142E-06 Eh
 * total energy  :  -111.6365069 Eh     change       -0.1394514E-06 Eh
 * total energy  :  -111.6365071 Eh     change       -0.1181497E-06 Eh
 * total energy  :  -111.6365072 Eh     change       -0.1272173E-06 Eh
 * total energy  :  -111.6365073 Eh     change       -0.1598137E-06 Eh
 * total energy  :  -111.6365075 Eh     change       -0.1437559E-06 Eh
 * total energy  :  -111.6365076 Eh     change       -0.7968855E-07 Eh
   *** GEOMETRY OPTIMIZATION CONVERGED AFTER 42 ITERATIONS ***

 final structure:
================
77
 xtb: 6.7.1 (edcfbbe)
C           -3.46875326613766       -5.57794148109812        1.54258802151702
C           -3.83168787835780       -4.93339240010170        0.19543745884064
C           -3.13223392357966       -5.68734446672892       -0.94668876016762
C           -5.34481422047958       -5.06340983627997       -0.00353215902632
C           -3.36171900830223       -3.48877760635955        0.19318077232941
C           -1.99626993095817       -3.21690649954433        0.36115795869467
C           -1.48182244813024       -1.93618792802932        0.36088091549627
C           -2.36426865837303       -0.87858658566354        0.17414938575484
C           -3.75062595732765       -1.12435544092213        0.03441507416717
C           -4.24067744136009       -2.41768672386259        0.03990434338903
C           -4.38011472910964        0.16923171578077       -0.07994684116897
C           -5.69243203947113        0.57038429724519       -0.25048502504698
C           -5.99178830825176        1.92811606484059       -0.35464498753067
C           -7.41104665158680        2.43715944678129       -0.53863187889161
C           -8.44537736780057        1.30782992724454       -0.57135131360290
C           -7.76193091131672        3.37366395602755        0.62831594995041
C           -7.49864479340319        3.20580768185651       -1.86675702169598
C           -4.93879643559660        2.85291814691501       -0.30303550401530
C           -3.62063966507616        2.47941424590386       -0.13683890301045
C           -3.33867424645566        1.12450874366761       -0.00197961679790
N           -2.13166833052541        0.47954337886551        0.15249430784847
C           -0.88548963316017        1.09451250088565        0.26306244280041
C            0.19453725613154        0.64871759590482       -0.51645510236451
C            1.42391892431904        1.24466454989326       -0.41223819091244
C            1.64876598343414        2.29770212794712        0.50379234037112
C            2.91280021784338        2.98163109619893        0.65092041472874
O            2.93284074759468        4.17146599766386        1.10533462842191
C            4.15993990774574        2.33241242616038        0.26834931801863
C            5.26473563964511        3.14155392246105       -0.07680421674998
C            6.48108140418911        2.59697809068331       -0.41011944512306
C            6.62136722031027        1.21408995232134       -0.38459541539039
S            8.07577249309251        0.31641409240732       -0.76238837385130
C            7.26557669604157       -1.19788276160985       -0.40614119681556
C            7.83389573329448       -2.45861516742066       -0.48768594453745
C            7.05184568257017       -3.55498005326548       -0.17223099691893
C            5.72662861404688       -3.39229469392939        0.21684102478545
C            5.16258606700892       -2.13284333288729        0.29736987712661
C            5.92908244739554       -1.01482444371057       -0.01280497221550
C            5.55242595364748        0.37945364979780       -0.00266033350555
C            4.33391459408152        0.94295874959582        0.33194094586461
C            0.53218477198024        2.77927649818655        1.23113373142026
C           -0.69498281982080        2.18499459320967        1.12886738610877
H           -3.93765843022043       -5.03306228888076        2.35959280934728
H           -2.39504651929814       -5.58215917976462        1.70729965000360
H           -3.82015145385473       -6.60710665861231        1.56790225995417
H           -3.36625797782268       -5.22397334582467       -1.90318594334187
H           -3.47185679162021       -6.72043098659985       -0.97179221298591
H           -2.05303628767290       -5.68819731788340       -0.82293702619862
H           -5.89006336610904       -4.57609187751795        0.80147607986094
H           -5.65336420425266       -4.63941401316837       -0.95636706249199
H           -5.61903527603833       -6.11630647891207       -0.00209895691454
H           -1.30808644233789       -4.03513784823229        0.50272403451340
H           -0.42754981174428       -1.76466259713359        0.51268799689921
H           -5.29996001512735       -2.57428023045589       -0.07003493198861
H           -6.46401791783113       -0.17828580969602       -0.30452027406883
H           -8.43771866708130        0.74185426943869        0.35732669279459
H           -8.26509625735799        0.63432038932462       -1.40597095441718
H           -9.43905179957853        1.73338233939420       -0.69496844899138
H           -8.78197826473266        3.73550974887652        0.51943091368935
H           -7.09937403018701        4.23380411966479        0.66414880211601
H           -7.68356612269871        2.84222011567033        1.57473494090762
H           -8.51612939249587        3.55594768735905       -2.02606286340963
H           -7.22235455502932        2.55768738723842       -2.69613990741144
H           -6.83838623096049        4.06840948777599       -1.87352669724058
H           -5.15347387509325        3.90499129391911       -0.40425961628220
H           -2.83477701854046        3.21878566059455       -0.12865849361861
H            0.03250302521194       -0.13535833757355       -1.24182051402981
H            2.22102729656512        0.93210604389393       -1.06956321559424
H            5.12192010112274        4.21226529862393       -0.08140487774658
H            7.31316420229438        3.22653889983982       -0.68739967607469
H            8.86314780155339       -2.57380508146196       -0.79036599785192
H            7.47692646724282       -4.54574803117465       -0.22909525651367
H            5.13220682419662       -4.26074948252271        0.45868337584954
H            4.13398318488961       -2.00883555917831        0.60044380128426
H            3.53152782780733        0.31186769310074        0.68079737020792
H            0.69575128211422        3.61197225563671        1.89963051967894
H           -1.51500382259954        2.52080848820999        1.74628077486707

          :  Hamiltonian                  GFN2-xTB          :
         :: gradient norm              0.000025878080 Eh/a0 ::
         :: HOMO-LUMO gap              0.684279624340 eV    ::
         :: SCC energy              -113.545320091687 Eh    ::
         :: -> dispersion             -0.097903553479 Eh    ::
         :: -> Gsolv                  -0.058688746525 Eh    ::
         :: repulsion energy           1.908812529576 Eh    ::

    * Orbital Energies and Occupations

         #    Occupation            Energy/Eh            Energy/eV
      -------------------------------------------------------------
         1        2.0000           -0.7283372             -19.8191
       ...           ...                  ...                  ...
        93        2.0000           -0.4242752             -11.5451
        94        2.0000           -0.4207435             -11.4490
        95        2.0000           -0.4184110             -11.3855
        96        2.0000           -0.4130134             -11.2387
        97        2.0000           -0.4120967             -11.2137
        98        2.0000           -0.4108029             -11.1785
        99        2.0000           -0.4060670             -11.0496
       100        2.0000           -0.3907625             -10.6332
       101        2.0000           -0.3892296             -10.5915
       102        1.9649           -0.3758516             -10.2274
       103        1.8055           -0.3740536             -10.1785
       104        1.2296           -0.3715531             -10.1105
       105        1.0000           -0.2823290              -7.6826 (HOMO)
       106        0.0000           -0.2571816              -6.9983 (LUMO)
       107        0.0000           -0.2558032              -6.9608
       108                         -0.2381005              -6.4790
       109                         -0.2367966              -6.4436
       110                         -0.2320148              -6.3134
       111                         -0.2262773              -6.1573
       112                         -0.2098868              -5.7113
       113                         -0.2080649              -5.6617
       114                         -0.2003515              -5.4518
       115                         -0.1978916              -5.3849
       116                         -0.1720553              -4.6819
       ...                                ...                  ...
       208                          0.7243213              19.7098
      -------------------------------------------------------------
                  HL-Gap            0.0251474 Eh            0.6843 eV

     #   Z          covCN         q      C6AA      α(0)
     1   6 C        3.761    -0.107    22.599     6.777
     2   6 C        3.903     0.028    20.049     6.365
     3   6 C        3.761    -0.107    22.601     6.777
     4   6 C        3.761    -0.111    22.672     6.788
     5   6 C        2.973     0.016    27.640     8.624
     6   6 C        2.928    -0.036    28.885     8.814
     7   6 C        2.907    -0.039    28.966     8.825
     8   6 C        3.079     0.043    26.963     8.513
     9   6 C        3.061    -0.010    28.214     8.711
    10   6 C        2.916    -0.036    28.888     8.814
    11   6 C        3.062    -0.010    28.210     8.710
    12   6 C        2.916    -0.036    28.888     8.814
    13   6 C        2.973     0.017    27.629     8.622
    14   6 C        3.903     0.028    20.048     6.365
    15   6 C        3.761    -0.111    22.675     6.788
    16   6 C        3.761    -0.107    22.599     6.777
    17   6 C        3.761    -0.107    22.598     6.777
    18   6 C        2.928    -0.035    28.879     8.813
    19   6 C        2.907    -0.039    28.959     8.824
    20   6 C        3.078     0.043    26.954     8.512
    21   7 N        2.800     0.009    21.093     6.821
    22   6 C        2.912     0.039    27.121     8.540
    23   6 C        2.915    -0.041    29.011     8.832
    24   6 C        2.916    -0.042    29.051     8.838
    25   6 C        2.967    -0.013    28.336     8.731
    26   6 C        2.834     0.164    24.463     8.105
    27   8 O        0.858    -0.507    23.945     6.561
    28   6 C        2.967    -0.016    28.401     8.742
    29   6 C        2.927    -0.031    28.773     8.797
    30   6 C        2.929    -0.040    29.003     8.832
    31   6 C        3.001     0.026    27.416     8.589
    32  16 S        2.203    -0.086   144.619    20.240
    33   6 C        3.002     0.039    27.116     8.542
    34   6 C        2.935    -0.037    28.929     8.821
    35   6 C        2.923    -0.030    28.759     8.794
    36   6 C        2.918    -0.033    28.819     8.803
    37   6 C        2.917    -0.032    28.795     8.800
    38   6 C        3.101    -0.002    27.942     8.662
    39   6 C        3.096    -0.004    28.014     8.674
    40   6 C        2.918    -0.045    29.122     8.849
    41   6 C        2.922    -0.030    28.753     8.793
    42   6 C        2.914    -0.041    29.015     8.833
    43   1 H        0.925     0.036     2.499     2.472
    44   1 H        0.925     0.040     2.453     2.449
    45   1 H        0.925     0.044     2.400     2.423
    46   1 H        0.925     0.036     2.496     2.471
    47   1 H        0.925     0.044     2.402     2.424
    48   1 H        0.925     0.040     2.451     2.448
    49   1 H        0.925     0.040     2.447     2.446
    50   1 H        0.925     0.040     2.446     2.446
    51   1 H        0.925     0.041     2.431     2.438
    52   1 H        0.926     0.047     2.356     2.400
    53   1 H        0.926     0.044     2.398     2.422
    54   1 H        0.926     0.059     2.213     2.326
    55   1 H        0.926     0.059     2.206     2.323
    56   1 H        0.925     0.041     2.442     2.444
    57   1 H        0.925     0.041     2.441     2.443
    58   1 H        0.925     0.042     2.428     2.437
    59   1 H        0.925     0.044     2.400     2.422
    60   1 H        0.925     0.039     2.458     2.452
    61   1 H        0.925     0.037     2.495     2.470
    62   1 H        0.925     0.044     2.397     2.421
    63   1 H        0.925     0.037     2.495     2.470
    64   1 H        0.925     0.039     2.458     2.452
    65   1 H        0.926     0.046     2.366     2.405
    66   1 H        0.926     0.043     2.404     2.425
    67   1 H        0.926     0.044     2.393     2.419
    68   1 H        0.926     0.039     2.465     2.455
    69   1 H        0.926     0.035     2.523     2.484
    70   1 H        0.926     0.036     2.497     2.471
    71   1 H        0.926     0.045     2.388     2.416
    72   1 H        0.926     0.045     2.389     2.417
    73   1 H        0.926     0.043     2.406     2.426
    74   1 H        0.926     0.042     2.424     2.435
    75   1 H        0.926     0.041     2.440     2.443
    76   1 H        0.926     0.037     2.490     2.467
    77   1 H        0.926     0.044     2.399     2.422

molecular dipole:
                 x           y           z       tot (Debye)
 q only:       -5.050      -3.967      -0.810
   full:       -4.992      -3.808      -0.750      16.073

 projected vibrational frequencies (cm⁻¹)
eigval :       -0.00    -0.00    -0.00    -0.00     0.00     0.00
eigval :        9.75    15.24    20.33    25.78    32.51    35.74
eigval :       38.27    52.30    68.03    79.46    80.22   100.76
eigval :      108.59   112.63   123.25   130.74   157.94   165.14
eigval :      171.91   186.12   187.30   198.46   216.91   220.35
eigval :      226.02   230.02   235.69   254.50   259.36   263.36
eigval :      268.00   279.83   297.19   307.12   319.27   324.56
eigval :      333.35   338.19   352.38   354.61   369.65   382.96
eigval :      385.70   394.62   395.70   398.11   399.90   416.46
eigval :      422.02   436.86   437.97   442.36   456.21   464.49
eigval :      470.94   478.42   482.09   508.53   512.55   517.56
eigval :      565.09   575.37   582.55   585.27   592.47   599.21
eigval :      606.62   624.48   642.86   648.96   657.35   667.90
eigval :      686.11   691.13   697.19   704.11   708.35   713.67
eigval :      731.77   776.90   800.06   802.92   814.90   822.04
eigval :      825.06   829.18   836.56   861.25   863.83   868.01
eigval :      870.89   879.22   902.61   904.00   906.07   911.60
eigval :      914.01   917.45   922.75   923.17   926.75   928.85
eigval :      939.63   958.77   959.64   961.28   962.22   964.59
eigval :      964.71   982.99   998.30  1027.70  1031.83  1032.19
eigval :     1035.25  1038.30  1038.90  1073.83  1085.58  1104.70
eigval :     1123.46  1130.03  1134.13  1142.32  1148.82  1150.24
eigval :     1159.15  1173.27  1177.78  1200.83  1218.65  1219.36
eigval :     1220.10  1220.37  1224.77  1225.13  1228.35  1233.53
eigval :     1245.18  1249.99  1253.94  1266.93  1278.12  1281.42
eigval :     1293.59  1317.17  1327.48  1332.67  1338.50  1348.34
eigval :     1358.92  1387.21  1398.17  1401.83  1402.34  1402.95
eigval :     1404.94  1405.65  1409.27  1420.10  1424.34  1426.32
eigval :     1427.04  1432.05  1443.49  1447.99  1454.14  1460.35
eigval :     1468.66  1486.65  1486.73  1488.73  1489.17  1491.15
eigval :     1495.21  1495.58  1499.69  1499.77  1510.98  1511.16
eigval :     1513.90  1515.29  1524.07  1546.69  1557.82  1558.81
eigval :     1561.10  1570.75  1575.58  1587.91  3023.85  3024.01
eigval :     3024.20  3024.50  3027.84  3027.97  3028.07  3028.49
eigval :     3031.78  3032.18  3033.80  3034.16  3038.96  3039.34
eigval :     3046.93  3047.87  3050.23  3051.12  3074.31  3076.09
eigval :     3079.32  3079.92  3084.91  3086.52  3089.43  3090.27
eigval :     3091.21  3092.12  3092.51  3093.42  3099.56  3103.22
eigval :     3103.81  3125.74  3128.35

   temp. (K)  partition function   enthalpy   heat capacity  entropy
                                   cal/mol     cal/K/mol   cal/K/mol   J/K/mol
 298.15  VIB  0.365E+17            22231.183    139.732    136.181
         ROT  0.874E+08              888.752      2.981     39.319
         INT  0.319E+25            23119.935    142.713    175.500
         TR   0.130E+29             1481.254      4.968     44.863
         TOT                       24601.1889   147.6814   220.3635   922.0009

       T/K    H(0)-H(T)+PV         H(T)/Eh          T*S/Eh         G(T)/Eh
   ------------------------------------------------------------------------
    298.15    0.392045E-01    0.652978E+00    0.104702E+00    0.548276E+00
   ------------------------------------------------------------------------

         :::::::::::::::::::::::::::::::::::::::::::::::::::::
         ::                  THERMODYNAMIC                  ::
         :::::::::::::::::::::::::::::::::::::::::::::::::::::
         :: total free energy        -111.088231581709 Eh   ::
         ::.................................................::
         :: total energy             -111.636507560629 Eh   ::
         :: zero point energy           0.613773298070 Eh   ::
         :: G(RRHO) w/o ZPVE           -0.065497319150 Eh   ::
         :: G(RRHO) contrib.            0.548275978920 Eh   ::
         :::::::::::::::::::::::::::::::::::::::::::::::::::::

           -------------------------------------------------
          | TOTAL ENERGY             -111.636507560629 Eh   |
          | TOTAL ENTHALPY           -110.983529772591 Eh   |
          | TOTAL FREE ENERGY        -111.088231581709 Eh   |
          | GRADIENT NORM               0.000029876624 Eh/α |
          | HOMO-LUMO GAP               0.684296172727 eV   |
           -------------------------------------------------

 * finished run on 2025/09/07 at 01:56:27.653
