   * xtb version 6.7.1 (edcfbbe) compiled by 'albert@albert-system' on 2024-07-22

   ID    Z sym.   atoms
    1    6 C      1-20, 22-26, 28-31, 33-42
    2    7 N      21
    3    8 O      27
    4   16 S      32
    5    1 H      43-77

          program call               : xtb data2507/toluene/tCTM/tCTM.xyz --gfn 2 --gbsa toluene --ohess vtight --parallel 40 --molden --ceasefiles --namespace data2507/toluene/tCTM/tCTM_toluene_S0_preOpt
      * Solvation model:               GBSA
        Solvent                        toluene
        Solvent mass                       9.2140E+01 g/mol
          :  Hamiltonian                  GFN2-xTB          :
 * total energy  :  -111.7017966 Eh     change       -0.7882619E-09 Eh
 * total energy  :  -111.7150743 Eh     change       -0.1327771E-01 Eh
 * total energy  :  -111.7184851 Eh     change       -0.3410812E-02 Eh
 * total energy  :  -111.7193678 Eh     change       -0.8826975E-03 Eh
 * total energy  :  -111.7199466 Eh     change       -0.5787805E-03 Eh
 * total energy  :  -111.7201419 Eh     change       -0.1953060E-03 Eh
 * total energy  :  -111.7202566 Eh     change       -0.1146963E-03 Eh
 * total energy  :  -111.7203452 Eh     change       -0.8857617E-04 Eh
 * total energy  :  -111.7203972 Eh     change       -0.5199830E-04 Eh
 * total energy  :  -111.7204351 Eh     change       -0.3790802E-04 Eh
 * total energy  :  -111.7206919 Eh     change       -0.1566085E-05 Eh
 * total energy  :  -111.7206930 Eh     change       -0.1163239E-05 Eh
 * total energy  :  -111.7206944 Eh     change       -0.1377819E-05 Eh
 * total energy  :  -111.7206959 Eh     change       -0.1496177E-05 Eh
 * total energy  :  -111.7206972 Eh     change       -0.1340764E-05 Eh
 * total energy  :  -111.7206984 Eh     change       -0.1155004E-05 Eh
 * total energy  :  -111.7206992 Eh     change       -0.7728088E-06 Eh
 * total energy  :  -111.7206996 Eh     change       -0.4265449E-06 Eh
 * total energy  :  -111.7206996 Eh     change       -0.3553251E-07 Eh
   *** GEOMETRY OPTIMIZATION CONVERGED AFTER 39 ITERATIONS ***

 final structure:
================
77
 xtb: 6.7.1 (edcfbbe)
C           -7.15193719534214       -2.60551339280475       -0.42533034266193
C           -5.90371111524961       -3.48546448128324       -0.30501658305806
C           -6.07726072483394       -4.39073162010736        0.92379773884168
C           -5.80206086529267       -4.34505885945220       -1.57408718342274
C           -4.62666353049020       -2.67082120634329       -0.15009224402049
C           -3.40504672920536       -3.34388651862546       -0.01596360271445
C           -2.19855109755511       -2.68949296117717        0.13548079994615
C           -2.20755747663713       -1.30363677914295        0.16454214218286
C           -3.41874709252929       -0.60162565989737       -0.00175362495330
C           -4.61818816136515       -1.28502935177519       -0.15174131591923
C           -3.08559173633153        0.79793668837685        0.00590298648037
C           -3.84601564292765        1.95232354365472       -0.09133620127016
C           -3.23413948562209        3.19798269493405       -0.02624101596767
C           -4.09044493137622        4.45179376427658       -0.14763307599516
C           -4.82101729056584        4.42995673816608       -1.49882203912197
C           -5.11591858041562        4.47194781341958        0.99589845091024
C           -3.27055642816411        5.74360146473747       -0.07330875608676
C           -1.85029023432182        3.24863106134472        0.16121915834244
C           -1.06735725233178        2.11195946682992        0.26295029278299
C           -1.68533301158348        0.87704427562310        0.16413251387687
N           -1.15981627686368       -0.40179814708665        0.26352528480128
C            0.18358317421121       -0.72160129354734        0.44256944421011
C            1.16512188214576       -0.10415165370400       -0.33561936403090
C            2.49760090226343       -0.40278494560865       -0.14588029428380
C            2.88259538915518       -1.33862628870850        0.81591608591404
C            4.29624600586160       -1.71661968401832        1.02369870662606
O            4.60876587348185       -2.84836752429486        1.37115768968497
C            5.32384635875432       -0.67368501007272        0.79554145440265
C            5.07335452508355        0.67763136363347        1.07181577125472
C            6.05453357316494        1.62874924626841        0.88691329837467
C            7.29558646388605        1.22651973590477        0.41401910365462
S            8.65891247649054        2.27030349510491        0.10217022723920
C            9.63164623015868        0.89682201845947       -0.39330586705438
C           10.95014949741663        0.94717710520295       -0.81459620522950
C           11.57158689539735       -0.23559778339284       -1.16864823223805
C           10.88795861775852       -1.44645862932267       -1.10357518667942
C            9.57415847454724       -1.49422419819718       -0.68345787365257
C            8.92656995812919       -0.31595066156608       -0.32164192257856
C            7.57559572197770       -0.12695768285792        0.14375566551606
C            6.58032347776598       -1.07066907513067        0.35198201458785
C            1.89540331300432       -1.97909529968893        1.56728332046438
C            0.56460133438120       -1.66661537538292        1.39765201809517
H           -7.09984838396497       -1.96992450418668       -1.30651426879862
H           -7.27876089512808       -1.98351167747031        0.45801823816557
H           -8.03275846134848       -3.23774393077386       -0.51995896746565
H           -5.25199118700788       -5.09057284731972        1.02253682560907
H           -6.99926703374814       -4.96261461689150        0.84025044222791
H           -6.12470595772228       -3.78960646777229        1.82995916560247
H           -4.97141098460911       -5.04316930975691       -1.51579741741162
H           -6.71754799023580       -4.91649163682135       -1.71391266463725
H           -5.65349667015552       -3.71155913202979       -2.44664371337418
H           -3.39044400520017       -4.42303748963103       -0.03496168900981
H           -1.27945270933131       -3.25073611897502        0.21340955553097
H           -5.52414366686304       -0.71550227502838       -0.27452868709487
H           -4.91452704645828        1.86392664363493       -0.21244653974218
H           -5.42537992429301        5.32768809522912       -1.61282066449739
H           -5.47580014287292        3.56694837315492       -1.58219656068347
H           -4.10180910421732        4.39179843251672       -2.31487425645525
H           -5.72711306786586        5.37027802047879        0.93564122198559
H           -4.60689334341396        4.46445435853298        1.95794402642561
H           -5.77467515078574        3.60891436672693        0.95300315255067
H           -3.93508409767951        6.59928834336493       -0.17731551253901
H           -2.53724424283486        5.78936034265242       -0.87547964190727
H           -2.76090136449867        5.83097167620143        0.88367666256788
H           -1.35230679097531        4.20112149936607        0.23573281217961
H           -0.00420515244529        2.19984174295404        0.42875952101922
H            0.87040631933241        0.59388262357301       -1.10427495782482
H            3.24425049965147        0.06368884503204       -0.77105779765402
H            4.11034868807404        0.97279540434688        1.45913710509110
H            5.86673915037376        2.66820206743606        1.10687488291030
H           11.47374714584218        1.88944000203713       -0.86193963444188
H           12.59955320823721       -0.21837932520662       -1.49810042369280
H           11.39324281066981       -2.35845965600900       -1.38414503199170
H            9.04541997541837       -2.43382626759438       -0.63188147901342
H            6.76197090559521       -2.11832814769667        0.16364934895129
H            2.19965072611973       -2.70915983847316        2.30325457317766
H           -0.18749534169925       -2.13589198833787        2.01312613699363

          :  Hamiltonian                  GFN2-xTB          :
         :: gradient norm              0.000186106571 Eh/a0 ::
         :: HOMO-LUMO gap              1.816435748728 eV    ::
         :: SCC energy              -113.644902760137 Eh    ::
         :: -> dispersion             -0.097931581168 Eh    ::
         :: -> Gsolv                  -0.048418071196 Eh    ::
         :: repulsion energy           1.924203132318 Eh    ::

    * Orbital Energies and Occupations

         #    Occupation            Energy/Eh            Energy/eV
      -------------------------------------------------------------
         1        2.0000           -0.7336910             -19.9647
       ...           ...                  ...                  ...
        92        2.0000           -0.4222025             -11.4887
        93        2.0000           -0.4203010             -11.4370
        94        2.0000           -0.4174164             -11.3585
        95        2.0000           -0.4164201             -11.3314
        96        2.0000           -0.4137204             -11.2579
        97        2.0000           -0.4087261             -11.1220
        98        2.0000           -0.4071980             -11.0804
        99        2.0000           -0.3983097             -10.8386
       100        2.0000           -0.3970525             -10.8043
       101        2.0000           -0.3956635             -10.7666
       102        2.0000           -0.3812734             -10.3750
       103        2.0000           -0.3749004             -10.2016
       104        2.0000           -0.3595711              -9.7844 (HOMO)
       105                         -0.2928184              -7.9680 (LUMO)
       106                         -0.2655221              -7.2252
       107                         -0.2469003              -6.7185
       108                         -0.2401540              -6.5349
       109                         -0.2389842              -6.5031
       110                         -0.2350242              -6.3953
       111                         -0.2189095              -5.9568
       112                         -0.2136459              -5.8136
       113                         -0.2126691              -5.7870
       114                         -0.1972555              -5.3676
       115                         -0.1838370              -5.0025
       ...                                ...                  ...
       208                          0.7425865              20.2068
      -------------------------------------------------------------
                  HL-Gap            0.0667527 Eh            1.8164 eV

     #   Z          covCN         q      C6AA      α(0)
     1   6 C        3.761    -0.107    22.584     6.775
     2   6 C        3.902     0.025    20.099     6.373
     3   6 C        3.761    -0.105    22.548     6.769
     4   6 C        3.761    -0.105    22.546     6.769
     5   6 C        2.972    -0.001    28.050     8.687
     6   6 C        2.931    -0.040    28.988     8.830
     7   6 C        2.909    -0.054    29.340     8.882
     8   6 C        3.073     0.043    26.969     8.515
     9   6 C        3.064    -0.019    28.419     8.742
    10   6 C        2.918    -0.044    29.103     8.847
    11   6 C        3.064    -0.019    28.405     8.740
    12   6 C        2.920    -0.040    29.000     8.831
    13   6 C        2.972    -0.001    28.049     8.687
    14   6 C        3.902     0.025    20.098     6.373
    15   6 C        3.761    -0.105    22.548     6.769
    16   6 C        3.761    -0.105    22.545     6.769
    17   6 C        3.761    -0.107    22.588     6.775
    18   6 C        2.928    -0.044    29.104     8.847
    19   6 C        2.909    -0.055    29.362     8.885
    20   6 C        3.071     0.042    26.978     8.516
    21   7 N        2.800    -0.043    22.067     6.977
    22   6 C        2.912     0.074    26.356     8.418
    23   6 C        2.920    -0.043    29.058     8.840
    24   6 C        2.920    -0.025    28.640     8.776
    25   6 C        2.971    -0.019    28.490     8.755
    26   6 C        2.830     0.225    23.266     7.904
    27   8 O        0.858    -0.429    22.260     6.326
    28   6 C        2.970    -0.019    28.487     8.755
    29   6 C        2.923    -0.029    28.730     8.790
    30   6 C        2.934    -0.037    28.931     8.821
    31   6 C        3.001     0.042    27.044     8.531
    32  16 S        2.210    -0.079   144.356    20.222
    33   6 C        3.003     0.039    27.123     8.543
    34   6 C        2.934    -0.038    28.936     8.822
    35   6 C        2.923    -0.028    28.706     8.786
    36   6 C        2.918    -0.032    28.809     8.802
    37   6 C        2.917    -0.030    28.756     8.794
    38   6 C        3.102    -0.002    27.948     8.663
    39   6 C        3.103    -0.000    27.906     8.656
    40   6 C        2.923    -0.021    28.524     8.758
    41   6 C        2.923    -0.017    28.429     8.744
    42   6 C        2.920    -0.042    29.049     8.838
    43   1 H        0.925     0.036     2.507     2.476
    44   1 H        0.925     0.036     2.506     2.475
    45   1 H        0.925     0.037     2.493     2.469
    46   1 H        0.925     0.036     2.507     2.476
    47   1 H        0.925     0.038     2.478     2.462
    48   1 H        0.925     0.032     2.552     2.498
    49   1 H        0.925     0.035     2.510     2.478
    50   1 H        0.925     0.038     2.475     2.460
    51   1 H        0.925     0.032     2.554     2.499
    52   1 H        0.926     0.031     2.570     2.507
    53   1 H        0.926     0.027     2.629     2.536
    54   1 H        0.926     0.039     2.459     2.452
    55   1 H        0.926     0.033     2.551     2.497
    56   1 H        0.925     0.038     2.481     2.463
    57   1 H        0.925     0.036     2.498     2.472
    58   1 H        0.925     0.032     2.556     2.500
    59   1 H        0.925     0.038     2.479     2.462
    60   1 H        0.925     0.032     2.559     2.502
    61   1 H        0.925     0.036     2.500     2.473
    62   1 H        0.925     0.037     2.492     2.469
    63   1 H        0.925     0.036     2.509     2.477
    64   1 H        0.925     0.035     2.512     2.479
    65   1 H        0.926     0.039     2.460     2.453
    66   1 H        0.926     0.028     2.612     2.527
    67   1 H        0.926     0.054     2.274     2.358
    68   1 H        0.926     0.048     2.340     2.392
    69   1 H        0.926     0.050     2.322     2.383
    70   1 H        0.926     0.053     2.282     2.362
    71   1 H        0.926     0.046     2.374     2.409
    72   1 H        0.926     0.045     2.379     2.412
    73   1 H        0.926     0.043     2.412     2.429
    74   1 H        0.926     0.043     2.413     2.429
    75   1 H        0.926     0.051     2.307     2.375
    76   1 H        0.926     0.049     2.329     2.387
    77   1 H        0.926     0.052     2.298     2.370

molecular dipole:
                 x           y           z       tot (Debye)
 q only:       -0.531       1.237      -0.648
   full:       -0.469       1.034      -0.642       3.315

 projected vibrational frequencies (cm⁻¹)
eigval :       -0.00    -0.00    -0.00     0.00     0.00     0.00
eigval :        1.16    11.66    18.56    22.50    26.03    34.20
eigval :       43.98    54.09    66.58    75.04    77.09    91.57
eigval :      104.42   106.52   121.62   142.92   154.46   160.10
eigval :      165.24   178.43   180.23   192.10   212.42   213.18
eigval :      223.58   234.11   238.52   248.33   254.71   266.48
eigval :      273.02   285.45   300.90   317.00   323.13   323.72
eigval :      332.13   344.18   356.02   358.22   384.70   385.81
eigval :      391.32   396.00   399.58   407.70   411.06   419.49
eigval :      435.80   442.61   445.07   460.43   463.30   465.76
eigval :      478.46   481.00   494.98   518.52   527.53   543.66
eigval :      569.40   581.03   582.68   590.11   596.65   608.83
eigval :      625.68   639.39   648.93   670.69   683.44   687.47
eigval :      693.31   697.46   705.38   716.28   718.32   727.95
eigval :      739.07   770.11   801.05   816.49   821.12   830.82
eigval :      831.87   832.26   868.59   869.24   872.38   876.19
eigval :      877.04   880.97   903.96   906.84   913.39   915.15
eigval :      916.07   920.54   924.49   930.34   930.46   938.44
eigval :      954.66   958.26   959.44   960.43   961.93   963.15
eigval :      963.47  1001.83  1028.43  1032.36  1033.95  1034.30
eigval :     1034.32  1039.39  1044.06  1073.97  1091.48  1114.82
eigval :     1129.05  1135.29  1142.14  1152.28  1162.09  1169.79
eigval :     1177.39  1177.74  1184.52  1211.03  1221.33  1225.01
eigval :     1225.71  1226.82  1230.45  1231.62  1233.90  1246.39
eigval :     1252.53  1260.67  1262.26  1283.66  1289.66  1298.48
eigval :     1304.37  1321.90  1335.11  1340.55  1344.98  1358.09
eigval :     1369.89  1397.74  1398.91  1401.31  1403.05  1403.40
eigval :     1405.22  1410.79  1414.35  1426.33  1427.14  1431.76
eigval :     1435.13  1464.27  1472.42  1480.56  1485.47  1488.58
eigval :     1489.13  1491.25  1492.14  1498.92  1499.49  1501.99
eigval :     1502.24  1511.60  1511.72  1516.32  1518.44  1543.90
eigval :     1549.74  1560.41  1570.44  1572.58  1575.41  1583.51
eigval :     1583.84  1602.69  1615.45  1640.68  3017.97  3018.16
eigval :     3019.06  3019.39  3022.27  3022.83  3024.05  3024.41
eigval :     3026.08  3026.52  3029.72  3030.18  3034.55  3035.08
eigval :     3043.29  3043.95  3046.42  3047.38  3077.48  3081.50
eigval :     3082.32  3083.64  3085.28  3086.67  3089.26  3090.36
eigval :     3090.87  3090.90  3094.21  3098.18  3099.60  3100.66
eigval :     3101.67  3116.99  3118.26

   temp. (K)  partition function   enthalpy   heat capacity  entropy
                                   cal/mol     cal/K/mol   cal/K/mol   J/K/mol
 298.15  VIB  0.603E+18            22101.607    138.199    138.424
         ROT  0.969E+08              888.752      2.981     39.524
         INT  0.584E+26            22990.359    141.180    177.948
         TR   0.130E+29             1481.254      4.968     44.863
         TOT                       24471.6129   146.1480   222.8116   932.2439

       T/K    H(0)-H(T)+PV         H(T)/Eh          T*S/Eh         G(T)/Eh
   ------------------------------------------------------------------------
    298.15    0.389980E-01    0.656082E+00    0.105865E+00    0.550217E+00
   ------------------------------------------------------------------------

         :::::::::::::::::::::::::::::::::::::::::::::::::::::
         ::                  THERMODYNAMIC                  ::
         :::::::::::::::::::::::::::::::::::::::::::::::::::::
         :: total free energy        -111.170482289061 Eh   ::
         ::.................................................::
         :: total energy             -111.720699628151 Eh   ::
         :: zero point energy           0.617084340827 Eh   ::
         :: G(RRHO) w/o ZPVE           -0.066867001737 Eh   ::
         :: G(RRHO) contrib.            0.550217339090 Eh   ::
         :::::::::::::::::::::::::::::::::::::::::::::::::::::

           -------------------------------------------------
          | TOTAL ENERGY             -111.720699628151 Eh   |
          | TOTAL ENTHALPY           -111.064617289899 Eh   |
          | TOTAL FREE ENERGY        -111.170482289061 Eh   |
          | GRADIENT NORM               0.000186028186 Eh/α |
          | HOMO-LUMO GAP               1.816432970781 eV   |
           -------------------------------------------------

 * finished run on 2025/09/07 at 01:41:36.317
