   * xtb version 6.7.1 (edcfbbe) compiled by 'albert@albert-system' on 2024-07-22

   ID    Z sym.   atoms
    1    6 C      1-20, 22-26, 28-31, 33-42
    2    7 N      21
    3    8 O      27
    4   16 S      32
    5    1 H      43-77

          program call               : xtb data2507/toluene/tCTM/tCTM_toluene_S0_crest.xyz --gfn 2 --gbsa toluene --ohess vtight --parallel 40 --molden --ceasefiles --namespace data2507/toluene/tCTM/tCTM_toluene_S0_finalOpt
      * Solvation model:               GBSA
        Solvent                        toluene
        Solvent mass                       9.2140E+01 g/mol
          :  Hamiltonian                  GFN2-xTB          :
 * total energy  :  -111.7210587 Eh     change       -0.7959628E-08 Eh
 * total energy  :  -111.7211222 Eh     change       -0.6356144E-04 Eh
 * total energy  :  -111.7211365 Eh     change       -0.1426089E-04 Eh
 * total energy  :  -111.7211388 Eh     change       -0.2328317E-05 Eh
 * total energy  :  -111.7211405 Eh     change       -0.1634062E-05 Eh
 * total energy  :  -111.7211423 Eh     change       -0.1836385E-05 Eh
 * total energy  :  -111.7211442 Eh     change       -0.1948874E-05 Eh
 * total energy  :  -111.7211463 Eh     change       -0.2025895E-05 Eh
 * total energy  :  -111.7211479 Eh     change       -0.1653974E-05 Eh
 * total energy  :  -111.7211490 Eh     change       -0.1051636E-05 Eh
 * total energy  :  -111.7211517 Eh     change       -0.6709676E-06 Eh
 * total energy  :  -111.7211524 Eh     change       -0.6855873E-06 Eh
 * total energy  :  -111.7211531 Eh     change       -0.6736736E-06 Eh
 * total energy  :  -111.7211538 Eh     change       -0.7459965E-06 Eh
 * total energy  :  -111.7211547 Eh     change       -0.8904541E-06 Eh
 * total energy  :  -111.7211558 Eh     change       -0.1018028E-05 Eh
 * total energy  :  -111.7211567 Eh     change       -0.9663732E-06 Eh
 * total energy  :  -111.7211575 Eh     change       -0.7512241E-06 Eh
 * total energy  :  -111.7211575 Eh     change       -0.7280747E-08 Eh
   *** GEOMETRY OPTIMIZATION CONVERGED AFTER 22 ITERATIONS ***

 final structure:
================
77
 xtb: 6.7.1 (edcfbbe)
C           -2.96598784318852       -5.64821016798383        1.16905282861304
C           -3.47050972174005       -4.95903093332740       -0.10766832272976
C           -2.83279673931938       -5.61706659983362       -1.34063073494470
C           -4.98618255356091       -5.16455622434777       -0.19145199046311
C           -3.08070651138570       -3.48765122028366       -0.06988654324630
C           -1.72277084245203       -3.14854389420229       -0.00392042581539
C           -1.27489449329807       -1.84289986728099        0.02417390162366
C           -2.21824206107349       -0.82839453044779       -0.02574740639038
C           -3.59218841997096       -1.14210541783381       -0.05884583276504
C           -4.01536615640217       -2.46472606448480       -0.08620916040752
C           -4.29867519147170        0.11065069754781       -0.03612684696156
C           -5.64899073577103        0.43316993327670       -0.07303006628434
C           -6.04040188035195        1.76242585187103       -0.06259500450835
C           -7.50171022284599        2.18931527762123       -0.08856474647810
C           -8.46285702072197        0.99667659520642       -0.11418214142441
C           -7.80544999197787        3.01811586151760        1.16861793677392
C           -7.75977347895135        3.03526642979797       -1.34441324781610
C           -5.04599609003231        2.74945825543742       -0.03669288099195
C           -3.69698291585331        2.45713427448229       -0.00128026740208
C           -3.31953655134413        1.12353402444204        0.02183127045381
N           -2.05929507428925        0.54749931204158        0.02453375588503
C           -0.84340036577755        1.22405215801784        0.07702285265804
C            0.19577298432955        0.86763503317536       -0.78536154218223
C            1.41411782065799        1.50864505234846       -0.71398922470812
C            1.62031417693006        2.53464733177125        0.21022495763989
C            2.90598315833437        3.25881523318640        0.30778097754383
O            2.95066112892988        4.44252579168653        0.61644484800431
C            4.13948028612420        2.48775855019383        0.02673569258050
C            5.25172350588771        3.16547964552163       -0.49210112935882
C            6.43182529287158        2.50388007070360       -0.75259478391351
C            6.50644985712577        1.14676831453755       -0.47118363040275
S            7.90086038173324        0.12622521430426       -0.71445260170834
C            7.02785331457242       -1.26135471867597       -0.08768863245887
C            7.52882280165147       -2.54699416227117        0.03491605354108
C            6.70068860705867       -3.52842238138065        0.54640915583831
C            5.39508863943259       -3.23124439579528        0.92694981730476
C            4.89822241585231       -1.94944739042534        0.80477524266588
C            5.71420048304435       -0.94317334648930        0.29423474038934
C            5.41145012724681        0.44878484505270        0.07332238999845
C            4.22800537663243        1.13164434965338        0.31993937846601
C            0.56449131089586        2.91774521850529        1.03918702476126
C           -0.64725441373569        2.26391452240168        0.98824147050309
H           -3.39705046023606       -5.17321745191122        2.04844090347646
H           -1.88375204808514       -5.59387345228527        1.24915534354122
H           -3.25465147410498       -6.69738547521805        1.16707433670602
H           -3.16621634970876       -5.11720982764494       -2.24820611810496
H           -3.12187314389053       -6.66460550273322       -1.39770562869591
H           -1.74812862350788       -5.56596183592417       -1.30284770999826
H           -5.48697076719278       -4.74823995735160        0.67978008530937
H           -5.39383098721289       -4.70812355337993       -1.09075019536912
H           -5.20560632835187       -6.23001422658601       -0.22650339447924
H           -0.98270605705741       -3.93343573916427        0.03110840643510
H           -0.21901915204087       -1.62963272495062        0.09544663125063
H           -5.07292628391336       -2.66702966737522       -0.11321160041159
H           -6.36891656339875       -0.36690137049400       -0.11479414578038
H           -8.33600558548953        0.37265957963842        0.76766092313026
H           -8.31249100028068        0.39193494430328       -1.00570585314232
H           -9.48906438945808        1.35908408530531       -0.12412279795218
H           -8.85255979202051        3.31405219813570        1.17819382907680
H           -7.19810808920085        3.91827624560900        1.20792870248928
H           -7.60413537441482        2.43174178812644        2.06329673186745
H           -8.80719446880093        3.32666240482580       -1.39070430785306
H           -7.52052688591812        2.46303038997510       -2.23886805702310
H           -7.15592124016947        3.93859233050287       -1.34705076355498
H           -5.33271579052368        3.79004265228449       -0.04902774903479
H           -2.96626249388188        3.25203597144547       -0.00527365779724
H            0.03120220731799        0.09780718089083       -1.52381140025902
H            2.20128575619427        1.23758093375301       -1.40160703899671
H            5.15924729179647        4.22272321295296       -0.69209590012325
H            7.28301371748263        3.02500414984712       -1.16229518256621
H            8.54152781562802       -2.76970447132693       -0.26338983450478
H            7.07220362411371       -4.53674466294394        0.65033699943126
H            4.76558258972155       -4.01405492602002        1.32281800022799
H            3.88568263958474       -1.72113466231691        1.10092648524525
H            3.39163666966815        0.61303462912138        0.76220430697501
H            0.72674493550825        3.72151146889693        1.74265126481020
H           -1.44191980674711        2.53792675578151        1.66507569219414

          :  Hamiltonian                  GFN2-xTB          :
         :: gradient norm              0.000104129346 Eh/a0 ::
         :: HOMO-LUMO gap              1.830325454777 eV    ::
         :: SCC energy              -113.645385013188 Eh    ::
         :: -> dispersion             -0.098291670221 Eh    ::
         :: -> Gsolv                  -0.048693398344 Eh    ::
         :: repulsion energy           1.924227530460 Eh    ::

    * Orbital Energies and Occupations

         #    Occupation            Energy/Eh            Energy/eV
      -------------------------------------------------------------
         1        2.0000           -0.7339734             -19.9724
       ...           ...                  ...                  ...
        92        2.0000           -0.4223361             -11.4924
        93        2.0000           -0.4190621             -11.4033
        94        2.0000           -0.4172934             -11.3551
        95        2.0000           -0.4170226             -11.3478
        96        2.0000           -0.4138414             -11.2612
        97        2.0000           -0.4094447             -11.1416
        98        2.0000           -0.4071451             -11.0790
        99        2.0000           -0.3986787             -10.8486
       100        2.0000           -0.3975659             -10.8183
       101        2.0000           -0.3958423             -10.7714
       102        2.0000           -0.3817199             -10.3871
       103        2.0000           -0.3744300             -10.1888
       104        2.0000           -0.3601913              -9.8013 (HOMO)
       105                         -0.2929281              -7.9710 (LUMO)
       106                         -0.2657258              -7.2308
       107                         -0.2478331              -6.7439
       108                         -0.2404335              -6.5425
       109                         -0.2392333              -6.5099
       110                         -0.2356584              -6.4126
       111                         -0.2186197              -5.9489
       112                         -0.2136478              -5.8137
       113                         -0.2129918              -5.7958
       114                         -0.1968696              -5.3571
       115                         -0.1845980              -5.0232
       ...                                ...                  ...
       208                          0.7400066              20.1366
      -------------------------------------------------------------
                  HL-Gap            0.0672632 Eh            1.8303 eV

     #   Z          covCN         q      C6AA      α(0)
     1   6 C        3.761    -0.105    22.548     6.769
     2   6 C        3.902     0.025    20.099     6.373
     3   6 C        3.761    -0.105    22.550     6.769
     4   6 C        3.761    -0.107    22.585     6.775
     5   6 C        2.972    -0.001    28.050     8.687
     6   6 C        2.931    -0.040    28.996     8.831
     7   6 C        2.909    -0.054    29.348     8.883
     8   6 C        3.074     0.042    26.981     8.517
     9   6 C        3.065    -0.019    28.416     8.741
    10   6 C        2.918    -0.045    29.105     8.847
    11   6 C        3.066    -0.019    28.420     8.742
    12   6 C        2.918    -0.045    29.110     8.848
    13   6 C        2.972    -0.001    28.049     8.687
    14   6 C        3.902     0.025    20.099     6.373
    15   6 C        3.761    -0.107    22.587     6.775
    16   6 C        3.761    -0.105    22.546     6.769
    17   6 C        3.761    -0.105    22.545     6.769
    18   6 C        2.931    -0.040    28.990     8.830
    19   6 C        2.908    -0.054    29.341     8.882
    20   6 C        3.073     0.042    26.977     8.516
    21   7 N        2.800    -0.042    22.060     6.976
    22   6 C        2.912     0.073    26.359     8.419
    23   6 C        2.921    -0.043    29.062     8.840
    24   6 C        2.920    -0.026    28.643     8.776
    25   6 C        2.971    -0.019    28.490     8.755
    26   6 C        2.829     0.225    23.265     7.904
    27   8 O        0.858    -0.428    22.248     6.324
    28   6 C        2.970    -0.019    28.479     8.754
    29   6 C        2.927    -0.020    28.514     8.757
    30   6 C        2.933    -0.037    28.920     8.820
    31   6 C        3.002     0.042    27.035     8.529
    32  16 S        2.210    -0.080   144.380    20.223
    33   6 C        3.003     0.039    27.113     8.542
    34   6 C        2.934    -0.037    28.926     8.821
    35   6 C        2.923    -0.028    28.704     8.786
    36   6 C        2.918    -0.033    28.811     8.802
    37   6 C        2.917    -0.031    28.768     8.795
    38   6 C        3.102    -0.002    27.954     8.664
    39   6 C        3.104    -0.000    27.899     8.655
    40   6 C        2.919    -0.030    28.747     8.792
    41   6 C        2.923    -0.017    28.430     8.744
    42   6 C        2.919    -0.042    29.051     8.839
    43   1 H        0.925     0.032     2.556     2.500
    44   1 H        0.925     0.036     2.504     2.474
    45   1 H        0.925     0.038     2.477     2.461
    46   1 H        0.925     0.032     2.554     2.499
    47   1 H        0.925     0.038     2.480     2.463
    48   1 H        0.925     0.036     2.500     2.473
    49   1 H        0.925     0.036     2.508     2.477
    50   1 H        0.925     0.036     2.507     2.476
    51   1 H        0.925     0.037     2.496     2.471
    52   1 H        0.926     0.032     2.556     2.500
    53   1 H        0.926     0.028     2.617     2.530
    54   1 H        0.926     0.040     2.453     2.449
    55   1 H        0.926     0.040     2.448     2.446
    56   1 H        0.925     0.036     2.502     2.474
    57   1 H        0.925     0.036     2.504     2.474
    58   1 H        0.925     0.037     2.494     2.470
    59   1 H        0.925     0.038     2.479     2.462
    60   1 H        0.925     0.036     2.509     2.477
    61   1 H        0.925     0.032     2.552     2.498
    62   1 H        0.925     0.038     2.477     2.461
    63   1 H        0.925     0.032     2.554     2.499
    64   1 H        0.925     0.035     2.512     2.478
    65   1 H        0.926     0.031     2.574     2.509
    66   1 H        0.926     0.027     2.630     2.536
    67   1 H        0.926     0.054     2.274     2.358
    68   1 H        0.926     0.048     2.346     2.395
    69   1 H        0.926     0.051     2.312     2.378
    70   1 H        0.926     0.051     2.311     2.377
    71   1 H        0.926     0.046     2.376     2.411
    72   1 H        0.926     0.045     2.378     2.412
    73   1 H        0.926     0.044     2.401     2.423
    74   1 H        0.926     0.044     2.400     2.423
    75   1 H        0.926     0.051     2.307     2.375
    76   1 H        0.926     0.049     2.332     2.388
    77   1 H        0.926     0.052     2.296     2.370

molecular dipole:
                 x           y           z       tot (Debye)
 q only:       -0.640      -2.186      -0.239
   full:       -0.680      -2.117      -0.188       5.672

 projected vibrational frequencies (cm⁻¹)
eigval :       -0.00    -0.00    -0.00     0.00     0.00     0.00
eigval :        4.61     9.03    19.97    29.51    34.80    35.47
eigval :       37.50    55.33    69.20    78.31    81.87    97.48
eigval :      102.83   114.44   120.62   130.45   163.43   167.12
eigval :      174.15   185.26   187.87   204.02   215.59   223.48
eigval :      228.35   233.36   236.33   258.52   258.87   264.71
eigval :      274.74   276.42   296.89   315.42   318.41   320.85
eigval :      336.56   340.91   358.11   359.16   382.96   387.44
eigval :      393.46   396.82   400.01   409.76   411.92   422.19
eigval :      437.16   440.64   443.50   453.95   460.18   465.77
eigval :      475.75   481.04   485.76   518.61   524.37   544.34
eigval :      573.02   581.86   583.99   588.91   600.81   614.53
eigval :      626.46   640.80   648.48   669.80   683.37   688.69
eigval :      692.73   698.09   707.33   711.92   718.88   731.61
eigval :      740.22   777.61   814.17   818.36   823.67   829.35
eigval :      832.47   833.20   867.62   872.52   874.98   875.12
eigval :      879.28   884.12   912.11   912.58   912.92   913.57
eigval :      915.86   924.48   925.56   928.76   931.42   939.32
eigval :      953.83   958.77   959.49   962.14   962.53   962.89
eigval :      963.78   999.10  1023.68  1030.37  1034.77  1035.49
eigval :     1035.61  1040.38  1044.45  1074.71  1093.16  1114.35
eigval :     1128.26  1134.07  1141.82  1152.46  1159.58  1166.89
eigval :     1176.05  1178.99  1183.46  1209.85  1223.35  1225.40
eigval :     1225.64  1229.42  1230.24  1230.68  1234.90  1242.54
eigval :     1250.58  1259.94  1261.73  1283.37  1293.04  1303.65
eigval :     1304.73  1321.47  1334.97  1340.39  1344.67  1355.37
eigval :     1370.24  1398.63  1400.02  1401.79  1403.28  1403.86
eigval :     1405.16  1410.12  1413.87  1427.18  1427.25  1433.20
eigval :     1435.72  1465.06  1479.71  1482.23  1485.39  1489.36
eigval :     1489.83  1491.99  1492.84  1498.81  1499.36  1502.61
eigval :     1503.47  1511.00  1511.49  1517.22  1518.11  1541.95
eigval :     1549.64  1561.02  1570.02  1573.09  1575.34  1581.83
eigval :     1583.16  1602.44  1613.97  1642.60  3018.55  3018.77
eigval :     3019.72  3019.80  3022.76  3023.18  3024.41  3024.57
eigval :     3026.53  3026.91  3030.15  3030.29  3034.90  3035.04
eigval :     3043.67  3043.82  3046.74  3047.10  3078.05  3078.81
eigval :     3080.96  3083.00  3084.29  3086.41  3088.21  3090.93
eigval :     3091.97  3093.98  3095.99  3098.01  3099.84  3100.56
eigval :     3101.09  3116.07  3118.70

   temp. (K)  partition function   enthalpy   heat capacity  entropy
                                   cal/mol     cal/K/mol   cal/K/mol   J/K/mol
 298.15  VIB  0.824E+17            21997.549    138.247    136.071
         ROT  0.841E+08              888.752      2.981     39.244
         INT  0.694E+25            22886.302    141.228    175.315
         TR   0.130E+29             1481.254      4.968     44.863
         TOT                       24367.5555   146.1962   220.1781   921.2252

       T/K    H(0)-H(T)+PV         H(T)/Eh          T*S/Eh         G(T)/Eh
   ------------------------------------------------------------------------
    298.15    0.388322E-01    0.656263E+00    0.104614E+00    0.551649E+00
   ------------------------------------------------------------------------

         :::::::::::::::::::::::::::::::::::::::::::::::::::::
         ::                  THERMODYNAMIC                  ::
         :::::::::::::::::::::::::::::::::::::::::::::::::::::
         :: total free energy        -111.169508427872 Eh   ::
         ::.................................................::
         :: total energy             -111.721157482744 Eh   ::
         :: zero point energy           0.617430601327 Eh   ::
         :: G(RRHO) w/o ZPVE           -0.065781546455 Eh   ::
         :: G(RRHO) contrib.            0.551649054872 Eh   ::
         :::::::::::::::::::::::::::::::::::::::::::::::::::::

           -------------------------------------------------
          | TOTAL ENERGY             -111.721157482744 Eh   |
          | TOTAL ENTHALPY           -111.064894709942 Eh   |
          | TOTAL FREE ENERGY        -111.169508427872 Eh   |
          | GRADIENT NORM               0.000104025170 Eh/α |
          | HOMO-LUMO GAP               1.830324251885 eV   |
           -------------------------------------------------

 * finished run on 2025/09/07 at 01:47:36.925
