   * xtb version 6.7.1 (edcfbbe) compiled by 'albert@albert-system' on 2024-07-22

   ID    Z sym.   atoms
    1    6 C      1-12, 14-20, 23-29, 31-44, 46, 47
    2    7 N      13, 21, 22, 30
    3    8 O      45
    4    1 H      48-79

          program call               : xtb data2507/gas/2,7-MeCzOXD/2,7-MeCzOXD_gas_T1_crest.xyz --gfn 2 --spinpol --tblite --uhf 2 --ohess vtight --parallel 40 --molden --ceasefiles --namespace data2507/gas/2,7-MeCzOXD/2,7-MeCzOXD_gas_T1_finalOpt
 * total energy  :  -122.0403563 Eh     change       -0.3021086E-07 Eh
 * total energy  :  -122.0403614 Eh     change       -0.5120130E-05 Eh
 * total energy  :  -122.0403644 Eh     change       -0.2952111E-05 Eh
 * total energy  :  -122.0403655 Eh     change       -0.1093962E-05 Eh
 * total energy  :  -122.0403671 Eh     change       -0.1586358E-05 Eh
 * total energy  :  -122.0403683 Eh     change       -0.1195271E-05 Eh
 * total energy  :  -122.0403692 Eh     change       -0.9887643E-06 Eh
 * total energy  :  -122.0403698 Eh     change       -0.5723585E-06 Eh
 * total energy  :  -122.0403703 Eh     change       -0.4714267E-06 Eh
 * total energy  :  -122.0403707 Eh     change       -0.3963024E-06 Eh
 * total energy  :  -122.0403717 Eh     change       -0.3383267E-06 Eh
 * total energy  :  -122.0403719 Eh     change       -0.1721907E-06 Eh
 * total energy  :  -122.0403722 Eh     change       -0.2937039E-06 Eh
 * total energy  :  -122.0403724 Eh     change       -0.2268892E-06 Eh
 * total energy  :  -122.0403727 Eh     change       -0.2682280E-06 Eh
 * total energy  :  -122.0403727 Eh     change        0.1913500E-07 Eh
 * total energy  :  -122.0403728 Eh     change       -0.1637359E-06 Eh
 * total energy  :  -122.0403728 Eh     change        0.2428268E-07 Eh
 * total energy  :  -122.0403729 Eh     change       -0.5267633E-07 Eh
   *** GEOMETRY OPTIMIZATION CONVERGED AFTER 23 ITERATIONS ***

 final structure:
================
79
 xtb: 6.7.1 (edcfbbe)
C            5.52211374079932        0.56846475531309       -3.37580505178207
C            4.61945955974063        1.06635628079300       -2.28733716503336
C            4.08226943491265        2.35294626871822       -2.37277114253989
C            3.23184975872384        2.85428128526273       -1.40417941091645
C            2.91464402107624        2.05500592641560       -0.31686274610870
C            2.07492781529805        2.21982721735068        0.83767865328536
C            1.25990307144534        3.23932312537089        1.30022159131540
C            0.58091895224187        3.05595842730414        2.49009278071030
C            0.71270176004617        1.88507736715802        3.24831791829504
C           -0.05559637512314        1.74686570867188        4.52732382004437
C            1.52673696477627        0.86169099702506        2.80122147289864
C            2.18110936825461        1.01852858310913        1.58233172889978
N            3.02722213206382        0.15623680374176        0.94161840114350
C            3.29055746669579       -1.18315757366000        1.27571553204587
C            4.59568201174601       -1.56524556640334        1.52900135645911
C            4.91925749568720       -2.88985065309200        1.77979616213980
C            3.91602377985925       -3.86000294792749        1.74787920719558
C            2.61820917419377       -3.50883567258820        1.48284991142655
C            2.25655654485041       -2.16325709198412        1.24361396251176
C            0.93021491743260       -1.84406278806586        0.88880360930779
N            0.33774512474226       -0.65815601448118        0.91243544660979
N           -0.88247619439429       -0.78803525880201        0.51106316828570
C           -1.09782381638635       -2.06389671134097        0.19253985687704
C           -2.27219753660238       -2.58672927909914       -0.37149002639685
C           -2.52591169776967       -3.97610817337757       -0.41997903458169
C           -3.71981680735087       -4.45448088449238       -0.89164388545318
C           -4.71361373693925       -3.57735912230644       -1.33685889310562
C           -4.47504515264944       -2.21112755709923       -1.33807378252003
C           -3.26979419929540       -1.70328452875203       -0.89028102387026
N           -3.01314157258569       -0.32773742330286       -0.95362011833109
C           -3.73025895656351        0.65175216919225       -0.31966114120053
C           -4.89374155968146        0.53977776828425        0.43393694991481
C           -5.42874628602356        1.68304168010943        0.99874733042305
C           -6.68438893838625        1.62061517003581        1.81501838620047
C           -4.79379086963906        2.91949851579588        0.81208138579287
C           -3.62822355592235        3.03912845677732        0.08183050341405
C           -3.08251362974271        1.90149378659268       -0.49398376194159
C           -1.91045218566018        1.64517126678629       -1.28150479459810
C           -0.88322205867726        2.44088219532961       -1.76797831854417
C            0.11567075673938        1.84969553179869       -2.51502243234106
C            0.10320288902849        0.48410073371302       -2.81221614675662
C            1.22698579843758       -0.10708291255862       -3.60729333614798
C           -0.92948751275629       -0.31707201024575       -2.34804656241860
C           -1.90578604266944        0.25942682251809       -1.55040155148736
O            0.02279462756349       -2.81495138087690        0.48500359581345
C            3.47756596765626        0.76325456373463       -0.21633194418627
C            4.31584304235100        0.26001095531608       -1.19772528021573
H            6.42329197905276        1.17866540429466       -3.42869835730600
H            5.81321504490392       -0.46378592266669       -3.19952722165201
H            5.02331935869512        0.62997480808605       -4.34221693963297
H            4.33811735106770        2.96424540329420       -3.22634610700332
H            2.82023398988701        3.84845080781715       -1.49268260994409
H            1.15647274052803        4.15716466625213        0.74141481601130
H           -0.06946709979569        3.83711022980382        2.85678322431407
H           -1.10442155192902        1.54979263914234        4.30502127781838
H           -0.00340239878602        2.66300383091810        5.11285084545123
H            0.32699906431729        0.92343667222012        5.12473598500126
H            1.64140148458829       -0.04911575606257        3.36903010603703
H            5.36502131559635       -0.80600507817088        1.53654335961142
H            5.93891437619930       -3.16625126032999        1.99732229393197
H            4.16687418458210       -4.89415655943334        1.93241161225835
H            1.83863294571517       -4.25457816901590        1.45139400403560
H           -1.75894781391850       -4.64607669256955       -0.06257900081953
H           -3.90050409729100       -5.51902736543547       -0.91749536515912
H           -5.65256373719422       -3.96196368912061       -1.70268515214623
H           -5.21830704882184       -1.52937182511161       -1.72642791946587
H           -5.36199426015846       -0.42190328552395        0.58228857890081
H           -7.45967651119134        2.24057928833540        1.36583675238175
H           -6.50203655017641        1.99585289896358        2.82128586929995
H           -7.05295264591528        0.60070977345772        1.88614957295190
H           -5.23312516517746        3.79721437520152        1.26413004104636
H           -3.14722778211472        3.99813850499223       -0.03692946280895
H           -0.86585733481906        3.50021781433436       -1.56183259942089
H            0.93398729020380        2.44846052831608       -2.88621209330404
H            1.45946549497508        0.51585657923460       -4.46912438645515
H            0.97992125599175       -1.10858550989880       -3.95076877219509
H            2.12359108707632       -0.16451028620894       -2.98856272318065
H           -0.95330880034186       -1.37327885546254       -2.57543190528748
H            4.72079705900787       -0.73856606081755       -1.11928743440229

 projected vibrational frequencies (cm⁻¹)
eigval :       -0.00    -0.00    -0.00     0.00     0.00     0.00
eigval :        7.22    15.06    18.60    26.45    28.99    38.19
eigval :       48.26    49.44    50.37    53.28    54.75    60.14
eigval :       63.46    65.54    75.86    98.05   104.01   115.46
eigval :      117.33   121.79   132.87   140.49   151.12   159.45
eigval :      181.90   184.85   212.14   228.90   236.16   242.96
eigval :      249.88   262.75   266.69   301.89   303.64   316.63
eigval :      320.72   324.82   327.56   352.85   356.89   372.99
eigval :      377.94   398.55   401.34   406.81   413.00   420.70
eigval :      426.24   428.95   440.98   449.68   457.23   477.18
eigval :      489.22   500.05   500.29   525.90   552.12   553.67
eigval :      554.55   555.24   571.40   574.34   586.52   594.99
eigval :      601.62   604.13   605.32   630.75   646.03   653.51
eigval :      665.89   667.52   668.84   671.77   681.59   703.20
eigval :      704.00   709.06   746.63   747.65   748.27   751.55
eigval :      776.70   778.24   801.25   804.67   813.83   816.95
eigval :      846.10   851.00   863.91   866.70   868.67   869.62
eigval :      870.23   874.08   891.43   899.38   899.69   900.38
eigval :      902.79   903.73   905.51   910.07   910.13   913.20
eigval :      958.30   962.60   976.82   978.01  1003.87  1004.42
eigval :     1007.46  1015.67  1016.05  1020.54  1029.36  1030.80
eigval :     1030.93  1031.88  1035.09  1035.89  1070.92  1077.92
eigval :     1100.68  1104.03  1140.22  1143.81  1154.67  1157.77
eigval :     1161.62  1164.12  1169.66  1175.49  1175.50  1184.96
eigval :     1197.41  1199.11  1217.44  1229.16  1233.20  1233.73
eigval :     1237.31  1255.94  1258.50  1259.08  1267.17  1275.22
eigval :     1288.90  1292.37  1296.50  1329.52  1331.39  1335.69
eigval :     1339.60  1344.82  1354.63  1357.79  1361.08  1369.65
eigval :     1391.03  1396.36  1400.75  1402.12  1403.32  1405.21
eigval :     1405.70  1410.45  1418.48  1421.74  1424.11  1434.05
eigval :     1464.22  1465.47  1475.42  1476.43  1479.01  1479.68
eigval :     1480.26  1480.31  1488.58  1489.00  1491.51  1493.26
eigval :     1499.41  1499.79  1532.95  1550.19  1552.00  1553.63
eigval :     1571.61  1579.24  1582.38  1583.57  1589.37  1593.71
eigval :     1601.24  2994.40  3002.43  3004.21  3004.52  3017.59
eigval :     3017.76  3022.87  3024.35  3040.38  3045.54  3045.75
eigval :     3047.55  3074.74  3075.22  3075.40  3075.46  3076.30
eigval :     3076.46  3079.36  3079.51  3080.25  3082.72  3084.72
eigval :     3087.65  3087.92  3090.08  3091.23  3094.73  3095.13
eigval :     3096.03  3100.15  3101.67

   temp. (K)  partition function   enthalpy   heat capacity  entropy
                                   cal/mol     cal/K/mol   cal/K/mol   J/K/mol
 298.15  VIB  0.133E+20            23753.286    144.471    150.645
         ROT  0.471E+08              888.752      2.981     38.089
         INT  0.626E+27            24642.038    147.452    188.735
         TR   0.145E+29             1481.254      4.968     45.081
         TOT                       26123.2918   152.4198   233.8160   978.2861

       T/K    H(0)-H(T)+PV         H(T)/Eh          T*S/Eh         G(T)/Eh
   ------------------------------------------------------------------------
    298.15    0.416301E-01    0.650732E+00    0.111094E+00    0.539638E+00
   ------------------------------------------------------------------------

         :::::::::::::::::::::::::::::::::::::::::::::::::::::
         ::                  THERMODYNAMIC                  ::
         :::::::::::::::::::::::::::::::::::::::::::::::::::::
         :: total free energy        -121.500734775683 Eh   ::
         ::.................................................::
         :: total energy             -122.040372869809 Eh   ::
         :: zero point energy           0.609101498590 Eh   ::
         :: G(RRHO) w/o ZPVE           -0.069463404463 Eh   ::
         :: G(RRHO) contrib.            0.539638094126 Eh   ::
         :::::::::::::::::::::::::::::::::::::::::::::::::::::

           -------------------------------------------------
          | TOTAL ENERGY             -122.040372869809 Eh   |
          | TOTAL ENTHALPY           -121.389641255809 Eh   |
          | TOTAL FREE ENERGY        -121.500734775683 Eh   |
          | GRADIENT NORM               0.000133193784 Eh/α |
           -------------------------------------------------

 * finished run on 2025/08/25 at 08:09:37.218
