   * xtb version 6.7.1 (edcfbbe) compiled by 'albert@albert-system' on 2024-07-22

   ID    Z sym.   atoms
    1    6 C      1-12, 14-20, 23-29, 31-44, 46, 47
    2    7 N      13, 21, 22, 30
    3    8 O      45
    4    1 H      48-79

          program call               : xtb data2507/gas/2,7-MeCzOXD/2,7-MeCzOXD_gas_S0_finalOpt.xtbopt.xyz --gfn 2 --spinpol --tblite --uhf 2 --ohess vtight --parallel 40 --molden --ceasefiles --namespace data2507/gas/2,7-MeCzOXD/2,7-MeCzOXD_gas_T1_preOpt
 * total energy  :  -122.0295053 Eh     change        0.1946889E-07 Eh
 * total energy  :  -122.0342645 Eh     change       -0.4759126E-02 Eh
 * total energy  :  -122.0365552 Eh     change       -0.2290785E-02 Eh
 * total energy  :  -122.0368897 Eh     change       -0.3344212E-03 Eh
 * total energy  :  -122.0373943 Eh     change       -0.5046008E-03 Eh
 * total energy  :  -122.0375843 Eh     change       -0.1900687E-03 Eh
 * total energy  :  -122.0377675 Eh     change       -0.1832001E-03 Eh
 * total energy  :  -122.0378503 Eh     change       -0.8273520E-04 Eh
 * total energy  :  -122.0379039 Eh     change       -0.5359373E-04 Eh
 * total energy  :  -122.0379583 Eh     change       -0.5444962E-04 Eh
 * total energy  :  -122.0400722 Eh     change       -0.1020407E-05 Eh
 * total energy  :  -122.0400733 Eh     change       -0.1146807E-05 Eh
 * total energy  :  -122.0400746 Eh     change       -0.1307121E-05 Eh
 * total energy  :  -122.0400761 Eh     change       -0.1484485E-05 Eh
 * total energy  :  -122.0400778 Eh     change       -0.1652710E-05 Eh
 * total energy  :  -122.0400796 Eh     change       -0.1776398E-05 Eh
 * total energy  :  -122.0400814 Eh     change       -0.1823644E-05 Eh
 * total energy  :  -122.0400813 Eh     change        0.4612414E-07 Eh
 * total energy  :  -122.0400814 Eh     change       -0.4107852E-07 Eh
   *** GEOMETRY OPTIMIZATION CONVERGED AFTER 153 ITERATIONS ***

 final structure:
================
79
 xtb: 6.7.1 (edcfbbe)
C            4.80369579347182        1.36519135616670       -3.76302273679974
C            4.11209555587250        1.59767307647921       -2.45301203521938
C            3.58530931277547        2.85926934843607       -2.16750020849377
C            2.92368448258404        3.12358989202403       -0.98152468985422
C            2.79238813912601        2.10570755857087       -0.05079827614148
C            2.17776167900625        2.00415319122122        1.24497025297570
C            1.49046846726367        2.88767113633448        2.06082538007339
C            1.04183619635555        2.44178706469775        3.28957431139027
C            1.27587003618971        1.13440808335473        3.73697215624075
C            0.76299486092422        0.71538128918092        5.08144797488297
C            1.96092246852568        0.24318539965826        2.93306898294512
C            2.38769232448191        0.67313214790224        1.68113832893806
N            3.09493267547785       -0.01366233109572        0.73111482475324
C            3.37327746852830       -1.38988458448399        0.73535217355133
C            4.68891492417343       -1.81380413406425        0.70611004679670
C            5.00498088297342       -3.16372890945294        0.66963176021472
C            3.97869169291019       -4.10981015309567        0.64476784421900
C            2.66679152917875       -3.71364243888245        0.65192456256780
C            2.31569612290294       -2.34431440510487        0.68975629120248
C            0.96651953894494       -1.95841259842781        0.56629293750707
N            0.43136641600328       -0.75893601285047        0.75695513146769
N           -0.83303115234890       -0.81899341356521        0.49761382708184
C           -1.13577269967151       -2.05959484976624        0.11123209197870
C           -2.38512754990013       -2.49422934572059       -0.35707370509044
C           -2.72298027658631       -3.86424738159784       -0.44045847489811
C           -3.98636676939934       -4.25255092060192       -0.79854688641630
C           -4.96843780233245       -3.30084939239679       -1.09540967244508
C           -4.65029308836472       -1.95158751387195       -1.06950930421066
C           -3.37569103297787       -1.53239805808182       -0.73463291313386
N           -3.03463120391731       -0.17701446163671       -0.79081527679944
C           -3.64176355156089        0.83853183873107       -0.10106981585059
C           -4.74938186760272        0.79170022370251        0.73910430126711
C           -5.17086540014834        1.96134833645178        1.34440655657478
C           -6.36406457716245        1.96971487372255        2.25153162932549
C           -4.47895518731121        3.15892865158244        1.11246704589523
C           -3.36523422357054        3.21284024085465        0.29828231441091
C           -2.93381862242912        2.04831607254117       -0.31872036183741
C           -1.84161109562367        1.72907275026194       -1.19380655840758
C           -0.80554759676179        2.46567415018714       -1.74993956141821
C            0.09486034682457        1.82361109662805       -2.57600487174323
C           -0.02977252966805        0.46686152301600       -2.88667906937041
C            0.98621046862839       -0.17990586772099       -3.77765416986407
C           -1.07310104537388       -0.27428823980166       -2.35171302251333
C           -1.94388562855873        0.34967261300703       -1.47204963957130
O           -0.02172736832303       -2.86598088059871        0.20658745488170
C            3.34312181425497        0.83437807118306       -0.32942197290536
C            3.99066146210682        0.57104591746872       -1.52556494824927
H            5.12433568747248        0.33086025486936       -3.85745129407979
H            4.13761355919872        1.60026354900342       -4.59240617652742
H            5.67875105065570        2.00865004370630       -3.84889968019171
H            3.69659856499564        3.64422717457208       -2.90214329732940
H            2.51161431988300        4.10223972064325       -0.78743314961675
H            1.30894105141112        3.90343626721370        1.74338487080621
H            0.49659275065009        3.11687816649067        3.93358484667387
H           -0.32389182852606        0.63878458200482        5.05583944933911
H            1.02822671380959        1.44850432512220        5.84153538358309
H            1.16791560498679       -0.25145544911663        5.36877760223607
H            2.14941130365262       -0.76957718359035        3.25670907302000
H            5.47344603631619       -1.07055482790653        0.72595759628287
H            6.03677059936733       -3.47815101242376        0.66766135963852
H            4.22297417953104       -5.16149641989520        0.61625006703644
H            1.86915527546233       -4.44005201427552        0.62238662021277
H           -1.96346415980812       -4.59147828150650       -0.19726349363888
H           -4.23277514483081       -5.30285259824113       -0.85010746038619
H           -5.96164893094526       -3.61603777114522       -1.37380902644045
H           -5.38673984332664       -1.21391461341883       -1.35477837182085
H           -5.26174934453013       -0.14091325302845        0.92244105560710
H           -7.13810523467636        2.62489342824447        1.85283105929559
H           -6.08909064996229        2.34355020893989        3.23693524332214
H           -6.77763446028285        0.97075446450518        2.36151793022037
H           -4.83007001432423        4.05868908021427        1.59704390756596
H           -2.83725871593316        4.14186647267214        0.14594596301552
H           -0.70324526797908        3.51839596854742       -1.53513616302834
H            0.92169561214658        2.37531387728018       -2.99793172622577
H            1.10612325287953        0.38718198128935       -4.69951903615085
H            0.69847199667093       -1.19834670569975       -4.02627828456231
H            1.95270621651453       -0.20375139428403       -3.27344617387078
H           -1.18234035712027       -1.32274309765326       -2.58975667516900
H            4.39142101626886       -0.41138063272622       -1.73107744863845

 projected vibrational frequencies (cm⁻¹)
eigval :       -0.00    -0.00    -0.00     0.00     0.00     0.00
eigval :        4.91    16.61    17.46    26.23    40.39    42.74
eigval :       47.01    49.79    50.74    54.03    56.99    61.32
eigval :       63.22    66.46    75.04    99.62   104.41   112.99
eigval :      118.39   122.50   132.54   139.92   149.40   160.08
eigval :      180.42   183.83   212.03   228.73   236.90   244.14
eigval :      250.45   260.50   266.72   302.08   303.79   316.55
eigval :      320.57   325.17   327.72   352.83   355.49   372.91
eigval :      379.00   397.54   400.27   406.05   412.53   421.07
eigval :      426.06   429.96   438.92   450.38   456.42   473.88
eigval :      488.79   499.94   500.03   525.88   552.74   554.32
eigval :      554.49   554.90   571.37   574.13   585.91   595.19
eigval :      601.41   604.67   605.08   630.56   646.88   654.37
eigval :      666.60   668.03   669.27   673.65   681.39   703.30
eigval :      704.14   709.02   746.63   747.36   748.40   750.79
eigval :      776.55   778.03   802.49   804.62   814.63   816.09
eigval :      845.53   850.05   863.93   866.67   868.43   869.38
eigval :      870.52   874.05   892.50   897.76   899.55   901.72
eigval :      902.73   903.61   905.87   907.50   909.70   913.20
eigval :      958.06   962.37   977.06   977.46  1004.00  1004.82
eigval :     1007.24  1015.43  1016.17  1020.99  1029.88  1031.07
eigval :     1031.51  1032.08  1034.84  1035.89  1068.91  1076.71
eigval :     1099.22  1103.80  1140.28  1144.44  1153.86  1158.45
eigval :     1161.90  1164.83  1168.95  1175.24  1175.71  1184.76
eigval :     1197.32  1200.07  1215.10  1228.99  1232.82  1233.57
eigval :     1236.34  1253.63  1256.61  1257.77  1261.78  1270.48
eigval :     1284.78  1291.42  1296.47  1328.34  1331.95  1334.27
eigval :     1336.41  1345.55  1355.85  1357.57  1361.36  1369.70
eigval :     1389.29  1394.05  1401.42  1401.59  1403.33  1405.09
eigval :     1405.53  1409.17  1419.18  1421.48  1422.65  1434.20
eigval :     1465.01  1465.54  1476.12  1477.02  1478.52  1479.72
eigval :     1480.85  1481.20  1488.40  1489.33  1491.08  1493.55
eigval :     1499.88  1501.39  1530.48  1548.57  1553.00  1554.19
eigval :     1570.33  1579.48  1583.09  1584.14  1588.71  1594.55
eigval :     1600.93  2999.34  3003.99  3004.22  3004.60  3017.39
eigval :     3018.28  3018.90  3021.71  3042.55  3045.04  3046.53
eigval :     3048.12  3073.80  3074.55  3075.39  3075.77  3075.89
eigval :     3076.21  3077.21  3079.79  3080.05  3083.50  3083.89
eigval :     3085.90  3088.45  3091.01  3091.99  3095.09  3095.38
eigval :     3096.28  3101.13  3101.91

   temp. (K)  partition function   enthalpy   heat capacity  entropy
                                   cal/mol     cal/K/mol   cal/K/mol   J/K/mol
 298.15  VIB  0.121E+20            23737.944    144.849    150.940
         ROT  0.471E+08              888.752      2.981     38.093
         INT  0.572E+27            24626.696    147.830    189.033
         TR   0.145E+29             1481.254      4.968     45.081
         TOT                       26107.9503   152.7983   234.1144   979.5349

       T/K    H(0)-H(T)+PV         H(T)/Eh          T*S/Eh         G(T)/Eh
   ------------------------------------------------------------------------
    298.15    0.416057E-01    0.650651E+00    0.111235E+00    0.539416E+00
   ------------------------------------------------------------------------

         :::::::::::::::::::::::::::::::::::::::::::::::::::::
         ::                  THERMODYNAMIC                  ::
         :::::::::::::::::::::::::::::::::::::::::::::::::::::
         :: total free energy        -121.500665545896 Eh   ::
         ::.................................................::
         :: total energy             -122.040081385848 Eh   ::
         :: zero point energy           0.609045502142 Eh   ::
         :: G(RRHO) w/o ZPVE           -0.069629662190 Eh   ::
         :: G(RRHO) contrib.            0.539415839951 Eh   ::
         :::::::::::::::::::::::::::::::::::::::::::::::::::::

           -------------------------------------------------
          | TOTAL ENERGY             -122.040081385848 Eh   |
          | TOTAL ENTHALPY           -121.389430216535 Eh   |
          | TOTAL FREE ENERGY        -121.500665545896 Eh   |
          | GRADIENT NORM               0.000080294865 Eh/α |
           -------------------------------------------------

 * finished run on 2025/08/25 at 08:03:14.045
