   * xtb version 6.7.1 (edcfbbe) compiled by 'albert@albert-system' on 2024-07-22

   ID    Z sym.   atoms
    1    6 C      1-12, 14-20, 23-29, 31-44, 46, 47
    2    7 N      13, 21, 22, 30
    3    8 O      45
    4    1 H      48-79

          program call               : xtb data2507/gas/2,7-MeCzOXD/2,7-MeCzOXD_gas_S0_crest.xyz --gfn 2 --ohess vtight --parallel 40 --molden --ceasefiles --namespace data2507/gas/2,7-MeCzOXD/2,7-MeCzOXD_gas_S0_finalOpt
          :  Hamiltonian                  GFN2-xTB          :
 * total energy  :  -122.1215426 Eh     change       -0.3175387E-08 Eh
 * total energy  :  -122.1215507 Eh     change       -0.8087182E-05 Eh
 * total energy  :  -122.1215523 Eh     change       -0.1603511E-05 Eh
 * total energy  :  -122.1215539 Eh     change       -0.1632103E-05 Eh
 * total energy  :  -122.1215568 Eh     change       -0.2875387E-05 Eh
 * total energy  :  -122.1215580 Eh     change       -0.1165228E-05 Eh
 * total energy  :  -122.1215595 Eh     change       -0.1569490E-05 Eh
 * total energy  :  -122.1215617 Eh     change       -0.2207749E-05 Eh
 * total energy  :  -122.1215639 Eh     change       -0.2162226E-05 Eh
 * total energy  :  -122.1215659 Eh     change       -0.2038506E-05 Eh
 * total energy  :  -122.1215897 Eh     change       -0.9327276E-06 Eh
 * total energy  :  -122.1215904 Eh     change       -0.7417962E-06 Eh
 * total energy  :  -122.1215909 Eh     change       -0.4886692E-06 Eh
 * total energy  :  -122.1215912 Eh     change       -0.3253656E-06 Eh
 * total energy  :  -122.1215915 Eh     change       -0.2849050E-06 Eh
 * total energy  :  -122.1215919 Eh     change       -0.3647561E-06 Eh
 * total energy  :  -122.1215924 Eh     change       -0.5655893E-06 Eh
 * total energy  :  -122.1215933 Eh     change       -0.8127693E-06 Eh
 * total energy  :  -122.1215933 Eh     change       -0.5095089E-08 Eh
   *** GEOMETRY OPTIMIZATION CONVERGED AFTER 44 ITERATIONS ***

 final structure:
================
79
 xtb: 6.7.1 (edcfbbe)
C            4.22513216493092        2.23719481453354       -3.72027885364313
C            3.76779170980437        2.18737259413187       -2.29184314990726
C            3.44456898168043        3.37680811575961       -1.63138959435118
C            3.02225559499244        3.38696332120365       -0.31803107911755
C            2.92189667279891        2.18107140119299        0.36222588514278
C            2.53943804395757        1.81529614069212        1.69743100884806
C            2.16498256775648        2.53477691066545        2.82436996960739
C            1.90080147548355        1.84849408105282        3.99064151599548
C            2.01268286107629        0.45657024254110        4.06925939392039
C            1.71141499434778       -0.23616079852029        5.36489185823038
C            2.38592721022400       -0.27153551745379        2.95239487045740
C            2.62693327482014        0.40998519045479        1.77097192727896
N            3.04825569864920       -0.08428110186694        0.55217494981422
C            3.21439854594847       -1.42637236279018        0.21178618804916
C            4.47002355995788       -1.87140244559717       -0.19460092569916
C            4.67902632327292       -3.19254598600353       -0.54039726275861
C            3.63011561619218       -4.09886297041378       -0.48483870869165
C            2.37368585282080       -3.67108778454551       -0.10854204919736
C            2.14301339860335       -2.33716711406865        0.23294881994233
C            0.78892588986077       -1.90389849892937        0.48677374892695
N            0.36890618225320       -0.76240707351467        0.94413419714279
N           -0.96552960502559       -0.77708362161990        0.90014691852638
C           -1.32268813641647       -1.92366437271044        0.40664396809727
C           -2.67040918894698       -2.35246121707842        0.07806518466100
C           -3.07452963154049       -3.65999185183004        0.32170900185618
C           -4.37170808895954       -4.05271240118636        0.05021410303757
C           -5.27149476271949       -3.14021691345677       -0.47797938421242
C           -4.87130690832867       -1.84677985074712       -0.75933036939851
C           -3.56875797108786       -1.43536558357342       -0.49478516467048
N           -3.15618594306774       -0.14345518703030       -0.82124103366683
C           -3.70710836117034        1.02626932364631       -0.32355356968413
C           -4.85952538117621        1.20685114320710        0.42380455509218
C           -5.20419574179912        2.49251356626394        0.80987191938813
C           -6.44605677006026        2.74117136322015        1.61324349845181
C           -4.39068307075264        3.57216351504780        0.45296028163709
C           -3.22887333099838        3.39689970914912       -0.26916199884202
C           -2.87509991309848        2.11391993426073       -0.66363084683281
C           -1.76044074276614        1.57115537743939       -1.38901296053160
C           -0.61647264530024        2.11976847265437       -1.95102552336211
C            0.27803288651159        1.28434778297464       -2.58729322008421
C            0.04339933459578       -0.08696644851185       -2.70849096576282
C            1.04358115271017       -0.96802364260657       -3.39744126201911
C           -1.10445774612829       -0.64329741006979       -2.16477644814034
C           -1.97690731856613        0.18026456393299       -1.47108417812720
O           -0.25383889603030       -2.70692039855924        0.14536397082470
C            3.24575949913831        0.98055557677928       -0.30591958386490
C            3.66524274901383        0.97608054008051       -1.62623986408995
H            4.35116539316247        1.23583643935650       -4.12546513643223
H            3.50453398609785        2.77498077504588       -4.33568882995117
H            5.17789126669741        2.76137531092244       -3.79455659990185
H            3.52830962293220        4.30802065261233       -2.17367431263901
H            2.77222903405760        4.31495428805441        0.17372628701032
H            2.08731420721351        3.61105439348170        2.78709744747718
H            1.60433774831085        2.39376995862081        4.87540968809473
H            0.63636384735527       -0.23426401492539        5.54580802203269
H            2.19055165320197        0.27607647312791        6.19757501223373
H            2.05281934313638       -1.26837158528678        5.34441705673751
H            2.48199372699354       -1.34701893435418        3.00014295530909
H            5.28408487332408       -1.16230663323296       -0.22121568341126
H            5.66184545533580       -3.51963442953144       -0.84473524191079
H            3.79191955394731       -5.13387698236881       -0.74432640718216
H            1.54653445846592       -4.36480293581927       -0.08542235106342
H           -2.36843518434926       -4.35821382966710        0.74655124839586
H           -4.68134636174472       -5.06658820759391        0.25210528981098
H           -6.28609639096404       -3.44354902257593       -0.68867986305025
H           -5.55893632348226       -1.14672240263641       -1.20921552649106
H           -5.47337659227645        0.36651470645451        0.71372591049832
H           -7.11586462816002        3.41450071333634        1.07914506322945
H           -6.19423095373432        3.20953241730104        2.56399823673762
H           -6.97452555156020        1.81259919334100        1.81400294929198
H           -4.68276981684023        4.56490086008155        0.76428864511955
H           -2.60178449076749        4.23839131695478       -0.52178855067521
H           -0.42398892809185        3.17937385468035       -1.88226395473761
H            1.18347042687093        1.69558700048375       -3.00624204766699
H            1.66098185613288       -0.39071424333995       -4.08103213183410
H            0.54676242004360       -1.76188804285126       -3.95249056953941
H            1.69956601404115       -1.43493898400441       -2.65986050294301
H           -1.30076031913598       -1.70212589248602       -2.27370845928451
H            3.90292010141171        0.05052465721213       -2.13118111832482

          :  Hamiltonian                  GFN2-xTB          :
         :: gradient norm              0.000044892755 Eh/a0 ::
         :: HOMO-LUMO gap              1.955384679306 eV    ::
         :: SCC energy              -124.269308612226 Eh    ::
         :: -> dispersion             -0.118004734217 Eh    ::
         :: repulsion energy           2.147715353617 Eh    ::

    * Orbital Energies and Occupations

         #    Occupation            Energy/Eh            Energy/eV
      -------------------------------------------------------------
         1        2.0000           -0.7659525             -20.8426
       ...           ...                  ...                  ...
       101        2.0000           -0.4076216             -11.0919
       102        2.0000           -0.4065252             -11.0621
       103        2.0000           -0.4041387             -10.9972
       104        2.0000           -0.4006706             -10.9028
       105        2.0000           -0.3992156             -10.8632
       106        2.0000           -0.3970024             -10.8030
       107        2.0000           -0.3916209             -10.6565
       108        2.0000           -0.3899208             -10.6103
       109        2.0000           -0.3791959             -10.3184
       110        2.0000           -0.3594691              -9.7817
       111        2.0000           -0.3565036              -9.7010
       112        2.0000           -0.3539047              -9.6302
       113        2.0000           -0.3513319              -9.5602 (HOMO)
       114                         -0.2794728              -7.6048 (LUMO)
       115                         -0.2573983              -7.0042
       116                         -0.2429649              -6.6114
       117                         -0.2420375              -6.5862
       118                         -0.2296249              -6.2484
       119                         -0.2268935              -6.1741
       120                         -0.2094652              -5.6998
       121                         -0.2065626              -5.6209
       122                         -0.1999831              -5.4418
       123                         -0.1856478              -5.0517
       124                         -0.1811839              -4.9303
       ...                                ...                  ...
       220                          0.7623598              20.7449
      -------------------------------------------------------------
                  HL-Gap            0.0718591 Eh            1.9554 eV

     #   Z          covCN         q      C6AA      α(0)
     1   6 C        3.758    -0.104    22.546     6.770
     2   6 C        2.970     0.012    27.733     8.638
     3   6 C        2.925    -0.051    29.269     8.872
     4   6 C        2.912    -0.033    28.825     8.804
     5   6 C        3.070    -0.015    28.314     8.725
     6   6 C        3.071    -0.014    28.287     8.721
     7   6 C        2.912    -0.032    28.786     8.798
     8   6 C        2.926    -0.049    29.206     8.863
     9   6 C        2.971     0.017    27.619     8.620
    10   6 C        3.758    -0.107    22.591     6.776
    11   6 C        2.915    -0.052    29.294     8.875
    12   6 C        3.075     0.054    26.720     8.475
    13   7 N        2.806    -0.039    21.996     6.966
    14   6 C        2.913     0.071    26.405     8.426
    15   6 C        2.923    -0.039    28.968     8.826
    16   6 C        2.918    -0.025    28.639     8.776
    17   6 C        2.917    -0.032    28.805     8.801
    18   6 C        2.926    -0.027    28.679     8.782
    19   6 C        2.972    -0.016    28.405     8.742
    20   6 C        3.175     0.217    23.100     7.849
    21   7 N        2.055    -0.192    25.869     7.545
    22   7 N        2.050    -0.199    26.050     7.571
    23   6 C        3.180     0.226    22.903     7.812
    24   6 C        2.976    -0.017    28.426     8.746
    25   6 C        2.923    -0.026    28.641     8.776
    26   6 C        2.918    -0.033    28.822     8.804
    27   6 C        2.919    -0.025    28.636     8.775
    28   6 C        2.922    -0.040    29.006     8.832
    29   6 C        2.916     0.073    26.371     8.421
    30   7 N        2.801    -0.044    22.096     6.981
    31   6 C        3.072     0.050    26.811     8.490
    32   6 C        2.915    -0.060    29.492     8.905
    33   6 C        2.970     0.014    27.693     8.632
    34   6 C        3.758    -0.108    22.612     6.779
    35   6 C        2.925    -0.050    29.249     8.869
    36   6 C        2.912    -0.033    28.814     8.802
    37   6 C        3.071    -0.014    28.293     8.722
    38   6 C        3.066    -0.012    28.253     8.716
    39   6 C        2.912    -0.030    28.755     8.793
    40   6 C        2.925    -0.048    29.200     8.862
    41   6 C        2.970     0.011    27.758     8.642
    42   6 C        3.758    -0.099    22.447     6.755
    43   6 C        2.916    -0.060    29.492     8.905
    44   6 C        3.075     0.049    26.820     8.491
    45   8 O        1.722    -0.230    17.817     5.699
    46   6 C        3.076     0.047    26.874     8.499
    47   6 C        2.915    -0.059    29.473     8.902
    48   1 H        0.925     0.035     2.514     2.480
    49   1 H        0.925     0.042     2.425     2.435
    50   1 H        0.925     0.043     2.415     2.430
    51   1 H        0.926     0.027     2.631     2.537
    52   1 H        0.926     0.031     2.567     2.506
    53   1 H        0.926     0.032     2.561     2.502
    54   1 H        0.926     0.029     2.603     2.523
    55   1 H        0.925     0.047     2.356     2.400
    56   1 H        0.925     0.042     2.417     2.431
    57   1 H        0.925     0.036     2.499     2.472
    58   1 H        0.926     0.017     2.777     2.606
    59   1 H        0.926     0.051     2.309     2.376
    60   1 H        0.926     0.044     2.397     2.421
    61   1 H        0.926     0.042     2.421     2.433
    62   1 H        0.926     0.049     2.337     2.391
    63   1 H        0.926     0.044     2.396     2.421
    64   1 H        0.926     0.042     2.417     2.431
    65   1 H        0.926     0.044     2.398     2.421
    66   1 H        0.926     0.052     2.300     2.371
    67   1 H        0.926     0.025     2.660     2.550
    68   1 H        0.925     0.044     2.395     2.420
    69   1 H        0.925     0.046     2.375     2.410
    70   1 H        0.925     0.038     2.479     2.462
    71   1 H        0.926     0.029     2.600     2.522
    72   1 H        0.926     0.033     2.545     2.495
    73   1 H        0.926     0.034     2.532     2.488
    74   1 H        0.926     0.032     2.557     2.501
    75   1 H        0.925     0.041     2.429     2.437
    76   1 H        0.925     0.038     2.480     2.463
    77   1 H        0.924     0.034     2.530     2.488
    78   1 H        0.925     0.013     2.845     2.638
    79   1 H        0.926     0.021     2.726     2.582

molecular dipole:
                 x           y           z       tot (Debye)
 q only:       -0.055      -0.946      -0.333
   full:       -0.060      -1.822      -0.491       4.799

 projected vibrational frequencies (cm⁻¹)
eigval :       -0.00    -0.00    -0.00     0.00     0.00     0.00
eigval :       -2.73    16.41    22.18    30.02    36.19    39.89
eigval :       45.06    52.00    53.10    56.35    57.70    60.20
eigval :       64.40    71.10    74.83    93.82   103.22   115.97
eigval :      119.98   123.98   135.38   139.36   152.26   173.68
eigval :      187.62   193.40   216.35   236.13   242.65   248.47
eigval :      254.44   266.14   275.98   304.62   311.99   317.41
eigval :      324.55   326.54   338.54   357.77   358.85   368.93
eigval :      380.65   399.37   406.00   413.09   422.74   431.61
eigval :      434.30   438.99   445.73   461.59   471.35   490.33
eigval :      502.52   504.08   510.01   536.70   555.86   556.36
eigval :      562.27   563.58   567.39   570.86   598.44   603.75
eigval :      607.11   609.05   643.15   658.73   668.92   671.47
eigval :      677.98   684.83   689.33   703.54   704.76   711.38
eigval :      718.99   725.35   748.94   750.28   770.63   772.28
eigval :      791.31   792.98   807.11   808.29   817.99   818.89
eigval :      866.57   867.71   869.75   879.69   880.56   887.45
eigval :      888.32   888.53   905.19   906.35   908.70   909.01
eigval :      915.43   918.65   929.53   930.16   955.40   960.76
eigval :      973.92   979.91   980.45   981.25  1004.59  1006.12
eigval :     1016.60  1017.50  1030.40  1031.63  1032.43  1033.25
eigval :     1038.08  1040.73  1042.34  1063.39  1089.20  1093.13
eigval :     1119.71  1125.39  1148.33  1150.27  1163.43  1164.57
eigval :     1168.75  1169.80  1179.23  1179.58  1187.67  1189.20
eigval :     1190.07  1206.46  1207.60  1239.83  1242.38  1245.04
eigval :     1247.46  1261.84  1263.00  1269.22  1294.85  1296.25
eigval :     1298.97  1304.16  1305.60  1314.27  1321.86  1357.44
eigval :     1359.59  1361.37  1362.35  1371.15  1373.03  1402.13
eigval :     1404.10  1404.38  1405.95  1415.86  1419.95  1428.66
eigval :     1431.07  1447.24  1447.84  1470.17  1472.45  1472.73
eigval :     1476.24  1481.88  1482.55  1482.88  1484.23  1484.45
eigval :     1486.98  1493.94  1496.49  1503.83  1506.58  1537.52
eigval :     1544.93  1562.00  1564.54  1571.30  1572.71  1586.35
eigval :     1590.17  1592.61  1593.18  1608.18  1609.04  1617.32
eigval :     1618.82  2977.33  2998.70  2999.64  3003.47  3013.59
eigval :     3016.96  3021.65  3021.87  3036.88  3038.30  3041.00
eigval :     3042.35  3054.57  3067.37  3069.74  3072.43  3073.33
eigval :     3074.82  3076.74  3083.28  3084.34  3086.09  3086.86
eigval :     3088.30  3089.14  3090.12  3091.87  3095.86  3096.88
eigval :     3102.16  3102.44  3102.66

   temp. (K)  partition function   enthalpy   heat capacity  entropy
                                   cal/mol     cal/K/mol   cal/K/mol   J/K/mol
 298.15  VIB  0.101E+20            23374.020    142.633    149.109
         ROT  0.483E+08              888.752      2.981     38.142
         INT  0.490E+27            24262.773    145.614    187.251
         TR   0.145E+29             1481.254      4.968     45.081
         TOT                       25744.0265   150.5823   232.3330   972.0811

       T/K    H(0)-H(T)+PV         H(T)/Eh          T*S/Eh         G(T)/Eh
   ------------------------------------------------------------------------
    298.15    0.410257E-01    0.655187E+00    0.110389E+00    0.544798E+00
   ------------------------------------------------------------------------

         :::::::::::::::::::::::::::::::::::::::::::::::::::::
         ::                  THERMODYNAMIC                  ::
         :::::::::::::::::::::::::::::::::::::::::::::::::::::
         :: total free energy        -121.576795619105 Eh   ::
         ::.................................................::
         :: total energy             -122.121593258608 Eh   ::
         :: zero point energy           0.614160804780 Eh   ::
         :: G(RRHO) w/o ZPVE           -0.069363165276 Eh   ::
         :: G(RRHO) contrib.            0.544797639504 Eh   ::
         :::::::::::::::::::::::::::::::::::::::::::::::::::::

           -------------------------------------------------
          | TOTAL ENERGY             -122.121593258608 Eh   |
          | TOTAL ENTHALPY           -121.466406736179 Eh   |
          | TOTAL FREE ENERGY        -121.576795619105 Eh   |
          | GRADIENT NORM               0.000044888657 Eh/α |
          | HOMO-LUMO GAP               1.955385217597 eV   |
           -------------------------------------------------

 * finished run on 2025/08/25 at 08:02:52.637
