   * xtb version 6.7.1 (edcfbbe) compiled by 'albert@albert-system' on 2024-07-22

   ID    Z sym.   atoms
    1    6 C      1-12, 14-20, 23-29, 31-44, 46, 47
    2    7 N      13, 21, 22, 30
    3    8 O      45
    4    1 H      48-79

          program call               : xtb data2507/gas/2,7-MeCzOXD/2,7-MeCzOXD.xyz --gfn 2 --ohess vtight --parallel 40 --molden --ceasefiles --namespace data2507/gas/2,7-MeCzOXD/2,7-MeCzOXD_gas_S0_preOpt
          :  Hamiltonian                  GFN2-xTB          :
 * total energy  :  -122.0959397 Eh     change       -0.3348831E-08 Eh
 * total energy  :  -122.1114319 Eh     change       -0.1549218E-01 Eh
 * total energy  :  -122.1153306 Eh     change       -0.3898719E-02 Eh
 * total energy  :  -122.1164652 Eh     change       -0.1134646E-02 Eh
 * total energy  :  -122.1173938 Eh     change       -0.9285262E-03 Eh
 * total energy  :  -122.1179424 Eh     change       -0.5486552E-03 Eh
 * total energy  :  -122.1183682 Eh     change       -0.4257390E-03 Eh
 * total energy  :  -122.1186811 Eh     change       -0.3129295E-03 Eh
 * total energy  :  -122.1189095 Eh     change       -0.2284496E-03 Eh
 * total energy  :  -122.1190506 Eh     change       -0.1411003E-03 Eh
 * total energy  :  -122.1199985 Eh     change       -0.4184840E-06 Eh
 * total energy  :  -122.1199988 Eh     change       -0.3058888E-06 Eh
 * total energy  :  -122.1199990 Eh     change       -0.2487212E-06 Eh
 * total energy  :  -122.1199993 Eh     change       -0.2431731E-06 Eh
 * total energy  :  -122.1199995 Eh     change       -0.2456582E-06 Eh
 * total energy  :  -122.1199998 Eh     change       -0.2751675E-06 Eh
 * total energy  :  -122.1200001 Eh     change       -0.2690929E-06 Eh
 * total energy  :  -122.1200002 Eh     change       -0.1772368E-06 Eh
 * total energy  :  -122.1200002 Eh     change       -0.1475367E-07 Eh
   *** GEOMETRY OPTIMIZATION CONVERGED AFTER 121 ITERATIONS ***

 final structure:
================
79
 xtb: 6.7.1 (edcfbbe)
C            0.81044613976896        3.11523342540459        3.04196346026831
C            1.56438847724934        1.85918074785070        2.72931916060593
C            1.68961577814057        0.86410043331103        3.70240498908772
C            2.37824942950488       -0.30603482413953        3.46083130375480
C            2.94577059439153       -0.49830549023579        2.20896251517989
C            3.75400931310597       -1.53643274555936        1.63301857717624
C            4.23848172006963       -2.75229960424141        2.09621502014368
C            5.01123693285621       -3.52406316282815        1.25336218831230
C            5.30637038022913       -3.11972752699129       -0.05247044664470
C            6.14179005808547       -4.00682517709979       -0.92715454762772
C            4.82604263506890       -1.90991076332366       -0.52762244326580
C            4.06388022263449       -1.12144807297002        0.32007008524623
N            3.46352882107551        0.09901534598999        0.07429376069393
C            3.59918765433181        0.83140804037749       -1.10331409890050
C            4.87836981605024        1.17793962514977       -1.53457265060389
C            5.06706994158667        1.91784398378732       -2.68500603293189
C            3.97225667219080        2.33403972660750       -3.42897210612302
C            2.70031418174572        1.98086205623957       -3.03064904303236
C            2.49224280677808        1.21681611963135       -1.87950949726149
C            1.15186277208382        0.76988333436967       -1.58050746363960
N            0.71251013050136        0.10972199358907       -0.54918792740722
N           -0.58508425545618       -0.13612446912215       -0.75012200521351
C           -0.90311866728372        0.37167999266019       -1.90469031307233
C           -2.16017625843127        0.25799592383406       -2.61081438317939
C           -2.16833318238436        0.36731077236546       -4.00123634808091
C           -3.32334912076832        0.13129278503664       -4.71893431298773
C           -4.48758361232373       -0.22393226976751       -4.05376377626065
C           -4.50278815958769       -0.30364775745768       -2.67441545828225
C           -3.35113606693942       -0.05016361291757       -1.93362682852386
N           -3.41006192911756       -0.05776639379565       -0.54213097770601
C           -3.91960744328248       -1.07274555030055        0.24459583729305
C           -4.36481228717259       -2.33150302174603       -0.12741525188548
C           -4.81914791312741       -3.19075013943238        0.85986040406140
C           -5.31430162896977       -4.56244008923815        0.51020679084931
C           -4.81490223053643       -2.78353918331633        2.19806239151211
C           -4.35576200315914       -1.53968687834698        2.57744764794563
C           -3.89996970690496       -0.66905231820304        1.59659056349569
C           -3.36976710124953        0.66539702857430        1.61742985837232
C           -3.17605978422106        1.60589943583169        2.61850602824421
C           -2.69925229484855        2.85505068022153        2.27419841239941
C           -2.40693109944069        3.19058510726751        0.94970116555152
C           -1.87227503572947        4.55102643253118        0.61198039179490
C           -2.59711453946572        2.25733393374456       -0.05819939023399
C           -3.06941624206559        1.00038106800097        0.27894732283541
O            0.16149879768512        0.96908157919492       -2.48949905317440
C            2.78924275458903        0.49080026268601        1.21524424924967
C            2.11962860244994        1.67432381326074        1.47337065213272
H            0.90363651243159        3.37410238204021        4.09443482104319
H            1.17157315104753        3.94735805529750        2.44125941118448
H           -0.24632519232644        2.96653222580743        2.82018198105587
H            1.24055908855184        1.02803522016401        4.67149524268230
H            2.48228113972118       -1.05581987045599        4.23077669972758
H            4.01103179555814       -3.08653624999150        3.09721081503361
H            5.39815249334690       -4.47151506857044        1.60045939083153
H            6.29028485584109       -3.56090428688119       -1.90755137489842
H            5.65940305228887       -4.97519525238420       -1.05584836752815
H            7.11668556964535       -4.18014989282065       -0.47247080038493
H            5.03796442903526       -1.59344731623930       -1.53932531970229
H            5.72370959767388        0.86808977388283       -0.93821612952810
H            6.06631262717878        2.18238845853205       -2.99656540112493
H            4.11370374922887        2.92480219488498       -4.32103757258914
H            1.84468905438622        2.28459997032404       -3.61507010338471
H           -1.25006373964935        0.61738806358203       -4.51152912123787
H           -3.31563722315370        0.21340427530683       -5.79496010206967
H           -5.39031104341226       -0.42121269010735       -4.61211309506828
H           -5.41574972297897       -0.54277380390257       -2.14990985405153
H           -4.34864059042500       -2.64253729829359       -1.16206996893800
H           -4.70039849840319       -5.32049181966708        0.99536739941939
H           -5.28248420958775       -4.72743601331625       -0.56384017060459
H           -6.33955520501878       -4.69642771584412        0.85362736033493
H           -5.17540871654401       -3.47217262722916        2.94872501406340
H           -4.34667963743298       -1.24729864374462        3.61658286378999
H           -3.40702916240114        1.36846239457337        3.64594067079874
H           -2.56595082034753        3.60341525073245        3.04312255642224
H           -0.79173891547281        4.50225226764193        0.47128974264372
H           -2.07781834524116        5.26064944614711        1.40969122511369
H           -2.31298196067350        4.92203606823343       -0.31158834776813
H           -2.39437501149283        2.52196936397042       -1.08689441246962
H            2.03411580888834        2.44062654184279        0.71605752705489

          :  Hamiltonian                  GFN2-xTB          :
         :: gradient norm              0.000078011999 Eh/a0 ::
         :: HOMO-LUMO gap              1.880275802701 eV    ::
         :: SCC energy              -124.267745914741 Eh    ::
         :: -> dispersion             -0.110973774801 Eh    ::
         :: repulsion energy           2.147745670425 Eh    ::

    * Orbital Energies and Occupations

         #    Occupation            Energy/Eh            Energy/eV
      -------------------------------------------------------------
         1        2.0000           -0.7659185             -20.8417
       ...           ...                  ...                  ...
       101        2.0000           -0.4096393             -11.1469
       102        2.0000           -0.4068662             -11.0714
       103        2.0000           -0.4042296             -10.9996
       104        2.0000           -0.4028768             -10.9628
       105        2.0000           -0.3979920             -10.8299
       106        2.0000           -0.3975083             -10.8168
       107        2.0000           -0.3935278             -10.7084
       108        2.0000           -0.3907525             -10.6329
       109        2.0000           -0.3794432             -10.3252
       110        2.0000           -0.3619989              -9.8505
       111        2.0000           -0.3570131              -9.7148
       112        2.0000           -0.3546896              -9.6516
       113        2.0000           -0.3517419              -9.5714 (HOMO)
       114                         -0.2826431              -7.6911 (LUMO)
       115                         -0.2592014              -7.0532
       116                         -0.2428268              -6.6077
       117                         -0.2420589              -6.5868
       118                         -0.2318141              -6.3080
       119                         -0.2270069              -6.1772
       120                         -0.2116710              -5.7599
       121                         -0.2068785              -5.6295
       122                         -0.1936428              -5.2693
       123                         -0.1840483              -5.0082
       124                         -0.1828312              -4.9751
       ...                                ...                  ...
       220                          0.7619293              20.7332
      -------------------------------------------------------------
                  HL-Gap            0.0690989 Eh            1.8803 eV

     #   Z          covCN         q      C6AA      α(0)
     1   6 C        3.759    -0.110    22.646     6.784
     2   6 C        2.971     0.017    27.616     8.620
     3   6 C        2.926    -0.048    29.197     8.861
     4   6 C        2.912    -0.032    28.804     8.801
     5   6 C        3.071    -0.015    28.308     8.724
     6   6 C        3.068    -0.016    28.338     8.729
     7   6 C        2.912    -0.034    28.848     8.807
     8   6 C        2.925    -0.051    29.276     8.873
     9   6 C        2.970     0.012    27.734     8.638
    10   6 C        3.758    -0.107    22.598     6.777
    11   6 C        2.915    -0.061    29.518     8.909
    12   6 C        3.075     0.045    26.902     8.504
    13   7 N        2.805    -0.037    21.951     6.958
    14   6 C        2.913     0.071    26.407     8.426
    15   6 C        2.924    -0.039    28.972     8.827
    16   6 C        2.918    -0.025    28.630     8.774
    17   6 C        2.917    -0.033    28.815     8.803
    18   6 C        2.927    -0.027    28.684     8.783
    19   6 C        2.972    -0.017    28.424     8.745
    20   6 C        3.164     0.216    23.154     7.864
    21   7 N        2.050    -0.192    25.876     7.546
    22   7 N        2.047    -0.196    25.977     7.560
    23   6 C        3.167     0.221    23.055     7.846
    24   6 C        2.974    -0.017    28.421     8.745
    25   6 C        2.926    -0.027    28.668     8.781
    26   6 C        2.917    -0.033    28.821     8.804
    27   6 C        2.919    -0.025    28.628     8.774
    28   6 C        2.923    -0.040    29.000     8.831
    29   6 C        2.915     0.071    26.406     8.426
    30   7 N        2.804    -0.034    21.902     6.951
    31   6 C        3.075     0.048    26.836     8.494
    32   6 C        2.915    -0.059    29.470     8.902
    33   6 C        2.970     0.015    27.683     8.630
    34   6 C        3.758    -0.108    22.614     6.780
    35   6 C        2.925    -0.050    29.251     8.869
    36   6 C        2.912    -0.033    28.824     8.804
    37   6 C        3.069    -0.016    28.334     8.728
    38   6 C        3.070    -0.014    28.278     8.719
    39   6 C        2.912    -0.033    28.823     8.803
    40   6 C        2.925    -0.051    29.254     8.870
    41   6 C        2.969     0.013    27.710     8.635
    42   6 C        3.758    -0.105    22.550     6.770
    43   6 C        2.916    -0.057    29.423     8.895
    44   6 C        3.074     0.050    26.797     8.487
    45   8 O        1.722    -0.234    17.874     5.708
    46   6 C        3.073     0.053    26.742     8.479
    47   6 C        2.916    -0.052    29.291     8.875
    48   1 H        0.925     0.040     2.447     2.446
    49   1 H        0.925     0.035     2.520     2.482
    50   1 H        0.925     0.057     2.239     2.340
    51   1 H        0.926     0.029     2.602     2.522
    52   1 H        0.926     0.032     2.564     2.504
    53   1 H        0.926     0.032     2.563     2.504
    54   1 H        0.926     0.028     2.621     2.532
    55   1 H        0.925     0.037     2.493     2.469
    56   1 H        0.925     0.044     2.394     2.419
    57   1 H        0.925     0.044     2.403     2.424
    58   1 H        0.926     0.020     2.726     2.582
    59   1 H        0.926     0.050     2.314     2.379
    60   1 H        0.926     0.043     2.403     2.424
    61   1 H        0.926     0.041     2.429     2.437
    62   1 H        0.926     0.049     2.338     2.391
    63   1 H        0.926     0.047     2.355     2.400
    64   1 H        0.926     0.042     2.422     2.434
    65   1 H        0.926     0.044     2.399     2.422
    66   1 H        0.926     0.050     2.314     2.379
    67   1 H        0.926     0.024     2.666     2.553
    68   1 H        0.925     0.046     2.367     2.406
    69   1 H        0.925     0.038     2.475     2.460
    70   1 H        0.925     0.044     2.396     2.420
    71   1 H        0.926     0.029     2.598     2.521
    72   1 H        0.926     0.032     2.553     2.499
    73   1 H        0.926     0.033     2.544     2.494
    74   1 H        0.925     0.028     2.615     2.529
    75   1 H        0.924     0.044     2.395     2.420
    76   1 H        0.925     0.041     2.439     2.442
    77   1 H        0.925     0.039     2.466     2.456
    78   1 H        0.925     0.014     2.821     2.627
    79   1 H        0.926     0.015     2.806     2.619

molecular dipole:
                 x           y           z       tot (Debye)
 q only:       -0.066       0.396      -1.029
   full:       -0.011       0.718      -1.870       5.092

 projected vibrational frequencies (cm⁻¹)
eigval :       -0.00    -0.00    -0.00     0.00     0.00     0.00
eigval :        1.19    13.19    18.96    30.30    37.45    41.69
eigval :       43.22    45.46    50.57    55.16    60.20    62.03
eigval :       69.54    76.65    86.04    93.58   101.23   114.60
eigval :      117.02   125.54   135.63   142.28   149.72   171.29
eigval :      181.26   182.84   211.40   237.36   243.60   247.83
eigval :      249.94   263.14   282.28   296.45   311.25   316.73
eigval :      322.48   325.00   332.97   358.06   360.11   365.71
eigval :      386.93   400.70   406.07   411.28   424.56   432.81
eigval :      433.73   443.39   448.38   454.10   471.11   499.00
eigval :      502.52   504.28   508.69   533.07   555.87   556.12
eigval :      562.44   564.68   567.56   570.21   598.95   602.50
eigval :      606.93   608.48   640.62   656.36   669.14   670.38
eigval :      678.00   681.74   691.40   704.04   704.92   713.91
eigval :      718.70   724.52   749.23   750.32   771.49   772.38
eigval :      791.58   792.85   806.26   810.03   817.48   821.07
eigval :      867.56   868.49   868.89   872.67   880.35   880.79
eigval :      887.90   888.13   905.47   908.43   908.80   912.42
eigval :      917.28   918.81   929.68   929.81   954.63   959.88
eigval :      973.84   979.16   980.49   981.04  1004.73  1006.13
eigval :     1017.57  1017.94  1031.49  1031.67  1031.85  1034.45
eigval :     1039.50  1041.71  1043.44  1063.17  1092.70  1095.14
eigval :     1120.47  1125.15  1149.64  1150.48  1164.84  1164.96
eigval :     1169.28  1169.62  1179.48  1179.92  1185.30  1189.51
eigval :     1190.13  1206.73  1207.20  1241.12  1242.00  1246.09
eigval :     1249.38  1262.05  1263.90  1266.91  1293.15  1296.46
eigval :     1297.47  1304.13  1304.65  1321.34  1325.71  1358.60
eigval :     1359.59  1362.54  1362.75  1372.89  1373.92  1401.35
eigval :     1404.08  1404.26  1404.57  1414.37  1416.20  1430.19
eigval :     1431.44  1446.68  1447.41  1471.51  1472.34  1475.90
eigval :     1478.69  1479.40  1481.77  1482.55  1483.36  1485.69
eigval :     1488.31  1492.37  1494.26  1503.44  1504.78  1532.89
eigval :     1537.20  1561.62  1564.48  1571.63  1571.68  1585.84
eigval :     1586.45  1592.89  1593.14  1607.93  1608.98  1617.48
eigval :     1618.66  2992.41  3002.80  3003.99  3006.84  3015.93
eigval :     3017.02  3023.83  3028.78  3032.33  3040.49  3041.01
eigval :     3042.79  3063.87  3067.44  3068.12  3068.18  3073.59
eigval :     3073.99  3074.75  3075.83  3084.15  3084.46  3087.19
eigval :     3088.56  3088.64  3089.25  3090.72  3091.78  3095.98
eigval :     3096.58  3102.19  3102.54

   temp. (K)  partition function   enthalpy   heat capacity  entropy
                                   cal/mol     cal/K/mol   cal/K/mol   J/K/mol
 298.15  VIB  0.320E+20            23402.192    142.692    150.248
         ROT  0.580E+08              888.752      2.981     38.506
         INT  0.186E+28            24290.944    145.672    188.754
         TR   0.145E+29             1481.254      4.968     45.081
         TOT                       25772.1978   150.6406   233.8357   978.3685

       T/K    H(0)-H(T)+PV         H(T)/Eh          T*S/Eh         G(T)/Eh
   ------------------------------------------------------------------------
    298.15    0.410706E-01    0.655189E+00    0.111103E+00    0.544086E+00
   ------------------------------------------------------------------------

         :::::::::::::::::::::::::::::::::::::::::::::::::::::
         ::                  THERMODYNAMIC                  ::
         :::::::::::::::::::::::::::::::::::::::::::::::::::::
         :: total free energy        -121.575913884946 Eh   ::
         ::.................................................::
         :: total energy             -122.120000244318 Eh   ::
         :: zero point energy           0.614118630723 Eh   ::
         :: G(RRHO) w/o ZPVE           -0.070032271351 Eh   ::
         :: G(RRHO) contrib.            0.544086359372 Eh   ::
         :::::::::::::::::::::::::::::::::::::::::::::::::::::

           -------------------------------------------------
          | TOTAL ENERGY             -122.120000244318 Eh   |
          | TOTAL ENTHALPY           -121.464811002173 Eh   |
          | TOTAL FREE ENERGY        -121.575913884946 Eh   |
          | GRADIENT NORM               0.000077979656 Eh/α |
          | HOMO-LUMO GAP               1.880276230741 eV   |
           -------------------------------------------------

 * finished run on 2025/08/25 at 07:57:29.634
