   * xtb version 6.7.1 (edcfbbe) compiled by 'albert@albert-system' on 2024-07-22

   ID    Z sym.   atoms
    1    6 C      1-5, 7-9, 11-16, 18-24, 26, 28-33, 36
    2    7 N      6, 10, 25, 27, 34, 35
    3    8 O      17
    4    1 H      37-54

          program call               : xtb data2507/gas/DPP-PXZ/DPP-PXZ.xyz --gfn 2 --ohess vtight --parallel 40 --molden --ceasefiles --namespace data2507/gas/DPP-PXZ/DPP-PXZ_gas_S0_preOpt
          :  Hamiltonian                  GFN2-xTB          :
 * total energy  :   -92.8688637 Eh     change       -0.1679467E-08 Eh
 * total energy  :   -92.8835221 Eh     change       -0.1465838E-01 Eh
 * total energy  :   -92.8883654 Eh     change       -0.4843315E-02 Eh
 * total energy  :   -92.8894441 Eh     change       -0.1078752E-02 Eh
 * total energy  :   -92.8905404 Eh     change       -0.1096300E-02 Eh
 * total energy  :   -92.8909477 Eh     change       -0.4072955E-03 Eh
 * total energy  :   -92.8913585 Eh     change       -0.4107941E-03 Eh
 * total energy  :   -92.8917971 Eh     change       -0.4385751E-03 Eh
 * total energy  :   -92.8922597 Eh     change       -0.4626089E-03 Eh
 * total energy  :   -92.8925862 Eh     change       -0.3265175E-03 Eh
 * total energy  :   -92.8939708 Eh     change       -0.1629355E-05 Eh
 * total energy  :   -92.8939720 Eh     change       -0.1218815E-05 Eh
 * total energy  :   -92.8939727 Eh     change       -0.6940327E-06 Eh
 * total energy  :   -92.8939731 Eh     change       -0.4123946E-06 Eh
 * total energy  :   -92.8939733 Eh     change       -0.1939358E-06 Eh
 * total energy  :   -92.8939735 Eh     change       -0.2243276E-06 Eh
 * total energy  :   -92.8939737 Eh     change       -0.2092537E-06 Eh
 * total energy  :   -92.8939739 Eh     change       -0.1764465E-06 Eh
 * total energy  :   -92.8939740 Eh     change       -0.8638520E-07 Eh
   *** GEOMETRY OPTIMIZATION CONVERGED AFTER 59 ITERATIONS ***

 final structure:
================
54
 xtb: 6.7.1 (edcfbbe)
C           -5.61827336840677        1.41540103569703       -3.03770792767413
C           -4.58228244987159        2.31028228296293       -2.82001749392972
C           -3.54684792942123        1.94072963766323       -1.98048102036664
C           -3.59854433839171        0.68559932057419       -1.37772838919019
C           -2.53023585968851        0.24690952401087       -0.47226198708196
N           -1.29202966485657        0.52137053799040       -0.79783397755339
C           -0.30875463398888       -0.00964788453378       -0.04354000359737
C            1.04020416504263        0.25714324675847       -0.32820002888041
C            2.00510799184161       -0.40810713597307        0.39724824886510
N            3.37408698341730       -0.18983470496513        0.18755679414316
C            4.21026991909387       -1.26014834021887       -0.15230164372494
C            3.71430834596287       -2.52885515074637       -0.42702250460994
C            4.56859851040058       -3.56821563900852       -0.76077406682434
C            5.92977756485160       -3.35357082922933       -0.84358249272538
C            6.43632090770610       -2.08353529766430       -0.61489102006723
C            5.58802201248287       -1.04329330409853       -0.28125858238075
O            6.15777164287164        0.19107792911482       -0.10553904892943
C            5.32180230513010        1.24051655620077        0.17798398375139
C            5.91261137289750        2.48253103965488        0.32571262926105
C            5.14545180281785        3.58904715349821        0.65450405918853
C            3.78762595843350        3.43864869041631        0.85120017385032
C            3.18977388722110        2.19732280580552        0.69819511806774
C            3.93835923952731        1.08396182291620        0.33777220840477
C            1.58409564599497       -1.33421767751702        1.38727190307426
N            0.34381856937551       -1.57747100098828        1.68561571223664
C           -0.61716859142013       -0.92013847003145        1.01059292771648
N           -1.88907727776354       -1.10147078048807        1.39310018677499
C           -2.83300531309330       -0.49597321142723        0.71551639827633
C           -4.20386904006366       -0.56538053704694        1.22994448981611
C           -4.65845926702490       -1.71512357548603        1.87363620975010
C           -5.96146699833343       -1.73712015556924        2.33694088988155
C           -6.75568104754633       -0.61547151198361        2.15317440197460
C           -6.19729766266849        0.48673761105250        1.52091812963906
N           -4.95946473932889        0.51867149050784        1.07053065676528
N           -4.58329555659777       -0.18100381673783       -1.60046070240776
C           -5.56015001640263        0.18021099242403       -2.40738355095997
H           -6.44604402204390        1.66433643970175       -3.68352144043667
H           -4.58192640909601        3.27909359090709       -3.29894129484453
H           -2.71540308643862        2.59606297840699       -1.77755026770377
H            1.29038017001715        0.95323464977161       -1.11480458398809
H            2.65131096174408       -2.70876506642595       -0.38690866660806
H            4.15594694111072       -4.54482783692697       -0.96045955585567
H            6.59895225038373       -4.15989721639656       -1.09856715660687
H            7.49119045861379       -1.87529293260535       -0.69473049021561
H            6.97911972640413        2.55796363932850        0.18662458746246
H            5.61431991794511        4.55379659496128        0.76561102286838
H            3.17841353263071        4.28473033898388        1.12896407114536
H            2.13086159619739        2.09709742538813        0.87609669044102
H            2.32654312020723       -1.86926583209185        1.96650719313216
H           -3.99242404560338       -2.55412328208840        1.99145253251276
H           -6.35287038088723       -2.61266526702974        2.83492531001003
H           -7.77817518526694       -0.59141228800790        2.49702202173106
H           -6.76818464734886        1.39421709035002        1.36932161367319
H           -6.33411696877156       -0.56186667976014       -2.55747326724038

          :  Hamiltonian                  GFN2-xTB          :
         :: gradient norm              0.000074537874 Eh/a0 ::
         :: HOMO-LUMO gap              1.023408966102 eV    ::
         :: SCC energy               -94.446378629809 Eh    ::
         :: -> dispersion             -0.074034555570 Eh    ::
         :: repulsion energy           1.552404649236 Eh    ::

    * Orbital Energies and Occupations

         #    Occupation            Energy/Eh            Energy/eV
      -------------------------------------------------------------
         1        2.0000           -0.7328658             -19.9423
       ...           ...                  ...                  ...
        73        2.0000           -0.4311471             -11.7321
        74        2.0000           -0.4287846             -11.6678
        75        2.0000           -0.4242219             -11.5437
        76        2.0000           -0.4201369             -11.4325
        77        2.0000           -0.4180178             -11.3748
        78        2.0000           -0.4170036             -11.3472
        79        2.0000           -0.4056386             -11.0380
        80        2.0000           -0.3992900             -10.8652
        81        2.0000           -0.3935657             -10.7095
        82        2.0000           -0.3727214             -10.1423
        83        2.0000           -0.3720721             -10.1246
        84        2.0000           -0.3545028              -9.6465
        85        2.0000           -0.3464094              -9.4263 (HOMO)
        86                         -0.3087999              -8.4029 (LUMO)
        87                         -0.2788427              -7.5877
        88                         -0.2492242              -6.7817
        89                         -0.2482159              -6.7543
        90                         -0.2429302              -6.6105
        91                         -0.2399267              -6.5287
        92                         -0.2360031              -6.4220
        93                         -0.2338752              -6.3641
        94                         -0.2231933              -6.0734
        95                         -0.2180580              -5.9337
        96                         -0.2005469              -5.4572
       ...                                ...                  ...
       162                          0.6774342              18.4339
      -------------------------------------------------------------
                  HL-Gap            0.0376094 Eh            1.0234 eV

     #   Z          covCN         q      C6AA      α(0)
     1   6 C        2.915    -0.037    28.932     8.820
     2   6 C        2.928    -0.009    28.232     8.714
     3   6 C        2.919    -0.032    28.788     8.799
     4   6 C        2.973     0.102    25.735     8.321
     5   6 C        2.961     0.097    25.837     8.337
     6   7 N        1.848    -0.229    26.866     7.682
     7   6 C        2.969     0.070    26.437     8.434
     8   6 C        2.923    -0.041    29.014     8.833
     9   6 C        2.915     0.055    26.774     8.485
    10   7 N        2.750    -0.067    22.533     7.050
    11   6 C        2.923     0.041    27.076     8.533
    12   6 C        2.924    -0.057    29.424     8.895
    13   6 C        2.919    -0.037    28.920     8.819
    14   6 C        2.919    -0.038    28.941     8.822
    15   6 C        2.920    -0.055    29.370     8.887
    16   6 C        2.885     0.127    25.224     8.234
    17   8 O        1.709    -0.250    18.147     5.752
    18   6 C        2.885     0.126    25.228     8.234
    19   6 C        2.920    -0.055    29.364     8.886
    20   6 C        2.919    -0.038    28.949     8.823
    21   6 C        2.919    -0.037    28.925     8.819
    22   6 C        2.924    -0.058    29.439     8.898
    23   6 C        2.920     0.042    27.058     8.530
    24   6 C        2.909     0.056    26.744     8.480
    25   7 N        1.841    -0.218    26.588     7.642
    26   6 C        2.960     0.154    24.670     8.147
    27   7 N        1.853    -0.215    26.524     7.633
    28   6 C        2.963     0.095    25.900     8.347
    29   6 C        2.973     0.101    25.758     8.325
    30   6 C        2.919    -0.031    28.779     8.797
    31   6 C        2.928    -0.008    28.224     8.712
    32   6 C        2.914    -0.037    28.921     8.819
    33   6 C        2.910     0.063    26.578     8.454
    34   7 N        1.843    -0.228    26.833     7.677
    35   7 N        1.843    -0.226    26.788     7.670
    36   6 C        2.910     0.064    26.572     8.453
    37   1 H        0.926     0.039     2.461     2.453
    38   1 H        0.926     0.041     2.437     2.441
    39   1 H        0.926     0.052     2.289     2.366
    40   1 H        0.926     0.062     2.177     2.307
    41   1 H        0.926     0.036     2.502     2.474
    42   1 H        0.926     0.041     2.441     2.443
    43   1 H        0.926     0.042     2.426     2.436
    44   1 H        0.926     0.053     2.279     2.360
    45   1 H        0.926     0.053     2.279     2.361
    46   1 H        0.926     0.041     2.432     2.439
    47   1 H        0.926     0.039     2.456     2.451
    48   1 H        0.926     0.036     2.499     2.472
    49   1 H        0.925     0.057     2.236     2.338
    50   1 H        0.926     0.060     2.197     2.318
    51   1 H        0.926     0.042     2.421     2.433
    52   1 H        0.926     0.039     2.457     2.451
    53   1 H        0.925     0.038     2.479     2.462
    54   1 H        0.925     0.039     2.464     2.455

molecular dipole:
                 x           y           z       tot (Debye)
 q only:       -0.395       0.268      -0.292
   full:       -0.593       0.527      -0.533       2.430

 projected vibrational frequencies (cm⁻¹)
eigval :       -0.00    -0.00    -0.00     0.00     0.00     0.00
eigval :       14.95    19.67    24.03    29.90    38.77    46.74
eigval :       60.61    63.27    77.52    81.49   116.46   138.64
eigval :      140.57   157.72   181.48   214.21   225.35   247.21
eigval :      254.37   261.84   271.75   297.52   311.12   335.41
eigval :      354.20   370.72   375.11   392.63   397.03   400.93
eigval :      429.26   431.63   445.35   457.94   459.71   506.37
eigval :      509.21   520.26   525.25   551.74   564.46   566.64
eigval :      577.44   592.63   595.21   603.89   623.00   628.13
eigval :      660.43   662.15   674.30   690.82   708.16   710.18
eigval :      719.90   730.51   763.19   770.65   778.90   779.98
eigval :      784.14   795.44   845.31   849.88   856.36   865.95
eigval :      870.42   873.47   887.27   889.44   897.26   901.32
eigval :      912.89   916.15   916.67   916.86   917.06   922.94
eigval :      933.28   934.01   964.10   995.40  1004.08  1028.46
eigval :     1088.03  1089.60  1090.57  1091.46  1106.01  1109.63
eigval :     1115.70  1120.36  1126.42  1160.67  1161.84  1163.79
eigval :     1175.21  1184.09  1196.64  1203.13  1209.30  1232.14
eigval :     1242.73  1245.05  1248.40  1261.80  1265.70  1277.46
eigval :     1288.85  1294.43  1306.22  1311.31  1315.21  1335.02
eigval :     1347.10  1373.71  1401.24  1406.28  1415.01  1421.34
eigval :     1426.72  1431.79  1443.17  1456.83  1459.80  1484.08
eigval :     1498.79  1513.83  1518.76  1558.50  1560.42  1568.59
eigval :     1574.53  1575.52  1579.50  1583.73  1590.46  1601.05
eigval :     3050.80  3051.93  3052.46  3071.33  3072.67  3088.70
eigval :     3091.85  3091.99  3094.14  3094.47  3099.06  3101.05
eigval :     3106.51  3108.33  3108.38  3113.34  3114.40  3114.91

   temp. (K)  partition function   enthalpy   heat capacity  entropy
                                   cal/mol     cal/K/mol   cal/K/mol   J/K/mol
 298.15  VIB  0.805E+12            15533.004     98.863     95.746
         ROT  0.361E+08              888.752      2.981     37.562
         INT  0.291E+20            16421.756    101.844    133.308
         TR   0.975E+28             1481.254      4.968     44.289
         TOT                       17903.0104   106.8122   177.5968   743.0650

       T/K    H(0)-H(T)+PV         H(T)/Eh          T*S/Eh         G(T)/Eh
   ------------------------------------------------------------------------
    298.15    0.285303E-01    0.423224E+00    0.843820E-01    0.338842E+00
   ------------------------------------------------------------------------

         :::::::::::::::::::::::::::::::::::::::::::::::::::::
         ::                  THERMODYNAMIC                  ::
         :::::::::::::::::::::::::::::::::::::::::::::::::::::
         :: total free energy         -92.555132050483 Eh   ::
         ::.................................................::
         :: total energy              -92.893973980571 Eh   ::
         :: zero point energy           0.394693631209 Eh   ::
         :: G(RRHO) w/o ZPVE           -0.055851701121 Eh   ::
         :: G(RRHO) contrib.            0.338841930088 Eh   ::
         :::::::::::::::::::::::::::::::::::::::::::::::::::::

           -------------------------------------------------
          | TOTAL ENERGY              -92.893973980571 Eh   |
          | TOTAL ENTHALPY            -92.470750086263 Eh   |
          | TOTAL FREE ENERGY         -92.555132050483 Eh   |
          | GRADIENT NORM               0.000074534253 Eh/α |
          | HOMO-LUMO GAP               1.023404510897 eV   |
           -------------------------------------------------

 * finished run on 2025/07/20 at 18:53:40.944
