   * xtb version 6.7.1 (edcfbbe) compiled by 'albert@albert-system' on 2024-07-22

   ID    Z sym.   atoms
    1    6 C      1-5, 7-9, 11-16, 18-24, 26, 28-33, 36
    2    7 N      6, 10, 25, 27, 34, 35
    3    8 O      17
    4    1 H      37-54

          program call               : xtb data2507/gas/DPP-PXZ/DPP-PXZ_gas_S0_finalOpt.xtbopt.xyz --gfn 2 --spinpol --tblite --uhf 2 --ohess vtight --parallel 40 --molden --ceasefiles --namespace data2507/gas/DPP-PXZ/DPP-PXZ_gas_T1_preOpt
 * total energy  :   -92.8543896 Eh     change        0.1256987E-07 Eh
 * total energy  :   -92.8585070 Eh     change       -0.4117399E-02 Eh
 * total energy  :   -92.8601267 Eh     change       -0.1619660E-02 Eh
 * total energy  :   -92.8603824 Eh     change       -0.2556903E-03 Eh
 * total energy  :   -92.8605219 Eh     change       -0.1394580E-03 Eh
 * total energy  :   -92.8605583 Eh     change       -0.3642577E-04 Eh
 * total energy  :   -92.8606039 Eh     change       -0.4559034E-04 Eh
 * total energy  :   -92.8606533 Eh     change       -0.4939821E-04 Eh
 * total energy  :   -92.8606876 Eh     change       -0.3429726E-04 Eh
 * total energy  :   -92.8607044 Eh     change       -0.1686422E-04 Eh
 * total energy  :   -92.8607778 Eh     change       -0.5658646E-06 Eh
 * total energy  :   -92.8607785 Eh     change       -0.6510598E-06 Eh
 * total energy  :   -92.8607790 Eh     change       -0.4674592E-06 Eh
 * total energy  :   -92.8607793 Eh     change       -0.3166073E-06 Eh
 * total energy  :   -92.8607796 Eh     change       -0.2957143E-06 Eh
 * total energy  :   -92.8607799 Eh     change       -0.3470951E-06 Eh
 * total energy  :   -92.8607802 Eh     change       -0.2988028E-06 Eh
 * total energy  :   -92.8607804 Eh     change       -0.2059866E-06 Eh
 * total energy  :   -92.8607805 Eh     change       -0.9510245E-07 Eh
   *** GEOMETRY OPTIMIZATION CONVERGED AFTER 41 ITERATIONS ***

 final structure:
================
54
 xtb: 6.7.1 (edcfbbe)
C           -5.69503595358842        2.33993736354048       -2.50689126145212
C           -4.68528895763462        3.10950957427022       -1.94929533640809
C           -3.67257817868536        2.47987962395289       -1.24961977523257
C           -3.71777374844240        1.09160144346342       -1.12300008895227
C           -2.65815944912084        0.38078994117082       -0.40104194874050
N           -1.40095502087418        0.74507471365342       -0.61274068825936
C           -0.38344659227467        0.07519565888808       -0.08005563884871
C            0.94817427277706        0.40264398157104       -0.28901596423273
C            1.95555124846315       -0.40005280945028        0.26658957242164
N            3.31541154835991       -0.08709974176679        0.08453096999529
C            4.16069057031544       -0.96564748090582       -0.59218406924716
C            3.68973057345658       -2.11774701641017       -1.21229420950952
C            4.55623578435169       -2.96497253155616       -1.88292495121857
C            5.90508580156365       -2.67320956225286       -1.95321489407728
C            6.38731495050116       -1.51577631916039       -1.36256936630993
C            5.52665671181066       -0.66399744595139       -0.69345949686535
O            6.06803883725203        0.47576747886526       -0.15934753566729
C            5.22638658446203        1.32541584364002        0.50921129110500
C            5.78778308241304        2.46572157974216        1.05534306607227
C            5.00148045848487        3.36101216270764        1.76354579860409
C            3.65508704739505        3.10157532449283        1.93278714880189
C            3.08631655374750        1.96209252312517        1.38761016429458
C            3.85566276477559        1.06556574553855        0.65436124503481
C            1.57902683669734       -1.51290779611791        1.00374342978407
N            0.31268236048204       -1.83647061195034        1.20732811428230
C           -0.67612030623497       -1.10813419374615        0.72895369751329
N           -1.93767135329232       -1.40541347229332        0.97678121441104
C           -2.93897094121052       -0.68114712205802        0.47461644293800
C           -4.29693887780708       -0.98861733202473        0.90839058858775
C           -4.63664573336764       -2.29889207596059        1.25714726552609
C           -5.92984670606655       -2.55665804634848        1.66764210147305
C           -6.83859173709301       -1.50928102182246        1.72811969100736
C           -6.39336400849869       -0.24003304810879        1.38718911145513
N           -5.16328442617845        0.01746316431893        0.99479909571459
N           -4.67247152065318        0.35326077463174       -1.67944014500089
C           -5.63016743102161        0.96289554585959       -2.34678544541054
H           -6.50542406007677        2.79288909237347       -3.05659299915257
H           -4.68798536497865        4.18466020239591       -2.05994347423205
H           -2.86309183890940        3.03262808655734       -0.80026215654153
H            1.19779780994002        1.25161242149985       -0.90444414839197
H            2.63707001591729       -2.34929787815081       -1.17300164583597
H            4.16565208534750       -3.85450760681638       -2.35207280653994
H            6.58311222877332       -3.33317300294113       -2.47058072679465
H            7.43132458474912       -1.25109726176690       -1.41211182799786
H            6.84447902775089        2.63030002150354        0.91836175553367
H            5.44685283449672        4.24811757953027        2.18506205734448
H            3.03505342520280        3.78269414866711        2.49465927070502
H            2.03715977408077        1.76382855392862        1.53832952326045
H            2.31301511337037       -2.16573527883825        1.45361010381533
H           -3.88898298098930       -3.07308176559013        1.19539682042563
H           -6.22891040831841       -3.55944855452700        1.93789000258020
H           -7.85888267525097       -1.66979605102081        2.03974515615600
H           -7.05256012169598        0.61757104943736        1.43760096718100
H           -6.38023601616630        0.31268987604483       -2.77901957130851

 projected vibrational frequencies (cm⁻¹)
eigval :       -0.00    -0.00    -0.00     0.00     0.00     0.00
eigval :       14.19    18.39    21.50    24.71    38.82    46.45
eigval :       58.54    61.36    76.88    83.14   112.32   137.32
eigval :      140.97   158.53   179.31   208.64   221.90   247.31
eigval :      256.11   256.90   268.60   297.54   300.86   337.97
eigval :      355.27   371.43   377.65   388.97   399.61   408.09
eigval :      428.69   429.30   450.97   454.42   465.07   506.90
eigval :      510.87   521.12   524.50   539.58   557.46   564.05
eigval :      575.94   585.16   591.27   599.67   617.08   621.44
eigval :      644.96   662.64   664.69   672.95   691.48   698.79
eigval :      705.70   708.37   726.39   767.28   767.83   776.24
eigval :      778.89   787.99   795.75   834.14   840.10   853.14
eigval :      856.36   865.11   867.83   883.30   883.91   898.55
eigval :      900.05   913.24   914.69   914.86   915.79   916.42
eigval :      929.94   930.71   941.60   989.02  1007.04  1016.97
eigval :     1088.20  1088.64  1089.48  1090.12  1105.80  1111.19
eigval :     1116.19  1119.70  1131.33  1159.57  1161.84  1163.68
eigval :     1168.98  1175.03  1183.13  1203.66  1205.05  1228.07
eigval :     1237.82  1241.40  1245.26  1245.73  1258.86  1271.22
eigval :     1286.81  1288.94  1292.94  1303.57  1312.93  1326.05
eigval :     1331.92  1345.40  1366.41  1389.35  1403.77  1413.25
eigval :     1417.90  1422.28  1435.02  1441.62  1444.83  1469.99
eigval :     1472.79  1488.74  1494.93  1515.67  1546.73  1554.23
eigval :     1565.43  1570.64  1572.69  1574.26  1586.25  1595.58
eigval :     3048.70  3051.18  3069.67  3070.60  3075.07  3092.79
eigval :     3093.26  3094.30  3095.18  3101.47  3101.92  3103.12
eigval :     3104.80  3107.73  3108.48  3110.02  3114.22  3114.94

   temp. (K)  partition function   enthalpy   heat capacity  entropy
                                   cal/mol     cal/K/mol   cal/K/mol   J/K/mol
 298.15  VIB  0.144E+13            15669.945     99.666     96.720
         ROT  0.365E+08              888.752      2.981     37.582
         INT  0.526E+20            16558.697    102.647    134.302
         TR   0.975E+28             1481.254      4.968     44.289
         TOT                       18039.9511   107.6149   178.5907   747.2233

       T/K    H(0)-H(T)+PV         H(T)/Eh          T*S/Eh         G(T)/Eh
   ------------------------------------------------------------------------
    298.15    0.287485E-01    0.421308E+00    0.848542E-01    0.336454E+00
   ------------------------------------------------------------------------

         :::::::::::::::::::::::::::::::::::::::::::::::::::::
         ::                  THERMODYNAMIC                  ::
         :::::::::::::::::::::::::::::::::::::::::::::::::::::
         :: total free energy         -92.524326435197 Eh   ::
         ::.................................................::
         :: total energy              -92.860780520035 Eh   ::
         :: zero point energy           0.392559773840 Eh   ::
         :: G(RRHO) w/o ZPVE           -0.056105689002 Eh   ::
         :: G(RRHO) contrib.            0.336454084838 Eh   ::
         :::::::::::::::::::::::::::::::::::::::::::::::::::::

           -------------------------------------------------
          | TOTAL ENERGY              -92.860780520035 Eh   |
          | TOTAL ENTHALPY            -92.439472254164 Eh   |
          | TOTAL FREE ENERGY         -92.524326435197 Eh   |
          | GRADIENT NORM               0.000034708159 Eh/α |
           -------------------------------------------------

 * finished run on 2025/07/20 at 18:55:39.409
