   * xtb version 6.7.1 (edcfbbe) compiled by 'albert@albert-system' on 2024-07-22

   ID    Z sym.   atoms
    1    6 C      1-5, 7-9, 11-16, 18-24, 26, 28-33, 36
    2    7 N      6, 10, 25, 27, 34, 35
    3    8 O      17
    4    1 H      37-54

          program call               : xtb data2507/gas/DPP-PXZ/DPP-PXZ_gas_T1_crest.xyz --gfn 2 --spinpol --tblite --uhf 2 --ohess vtight --parallel 40 --molden --ceasefiles --namespace data2507/gas/DPP-PXZ/DPP-PXZ_gas_T1_finalOpt
 * total energy  :   -92.8607420 Eh     change       -0.1374067E-07 Eh
 * total energy  :   -92.8607575 Eh     change       -0.1555373E-04 Eh
 * total energy  :   -92.8607640 Eh     change       -0.6527877E-05 Eh
 * total energy  :   -92.8607662 Eh     change       -0.2191220E-05 Eh
 * total energy  :   -92.8607662 Eh     change       -0.1074359E-07 Eh
 * total energy  :   -92.8607682 Eh     change       -0.1943865E-05 Eh
 * total energy  :   -92.8607699 Eh     change       -0.1702179E-05 Eh
 * total energy  :   -92.8607715 Eh     change       -0.1650557E-05 Eh
 * total energy  :   -92.8607728 Eh     change       -0.1252256E-05 Eh
 * total energy  :   -92.8607736 Eh     change       -0.7823020E-06 Eh
 * total energy  :   -92.8607790 Eh     change       -0.3185230E-06 Eh
 * total energy  :   -92.8607794 Eh     change       -0.3733491E-06 Eh
 * total energy  :   -92.8607793 Eh     change        0.7024347E-07 Eh
 * total energy  :   -92.8607795 Eh     change       -0.1869238E-06 Eh
 * total energy  :   -92.8607798 Eh     change       -0.3088827E-06 Eh
 * total energy  :   -92.8607800 Eh     change       -0.1293005E-06 Eh
 * total energy  :   -92.8607799 Eh     change        0.5815501E-07 Eh
 * total energy  :   -92.8607801 Eh     change       -0.1566837E-06 Eh
 * total energy  :   -92.8607801 Eh     change       -0.7350221E-07 Eh
   *** GEOMETRY OPTIMIZATION CONVERGED AFTER 28 ITERATIONS ***

 final structure:
================
54
 xtb: 6.7.1 (edcfbbe)
C           -5.68670131314512        2.42906952983880       -2.41571320017867
C           -4.69523285037229        3.17914647305198       -1.80177771873707
C           -3.68278999847050        2.52442172235215       -1.12490021226900
C           -3.71072531089034        1.13103148976590       -1.07722057751891
C           -2.65086568885982        0.39273578128042       -0.38209686445147
N           -1.39391804831630        0.76359263196500       -0.57916198475100
C           -0.37715531338824        0.07232092953471       -0.07184638953001
C            0.95468773157040        0.40662378980669       -0.26656310599119
C            1.96089368094931       -0.41906462349435        0.25675236688105
N            3.32140771136198       -0.10107095609166        0.08822094597957
C            4.16415514981622       -0.95029934383167       -0.62774240080989
C            3.68941436476827       -2.07071747852354       -1.30072999361133
C            4.55319698022343       -2.88848881336113       -2.01029481406736
C            5.90298869138645       -2.59807402197014       -2.06705325334589
C            6.38911425870608       -1.47144428345098       -1.42249457981207
C            5.53124348140576       -0.64917700691345       -0.71405099789767
O            6.07642615435164        0.46179795798205       -0.12588907151112
C            5.23674084596233        1.28375612337366        0.57877840189013
C            5.80140392651207        2.39603556923815        1.17685991347560
C            5.01695450150098        3.26195602329268        1.92265381160012
C            3.66896762393214        3.00115099347707        2.07651257128448
C            3.09696215219760        1.88950028481199        1.47968201431754
C            3.86469383542052        1.02313914862144        0.70944918194967
C            1.58261000871387       -1.56044931721421        0.94789209064735
N            0.31596626148013       -1.88994027062983        1.13876154611042
C           -0.67199390150303       -1.14137782162976        0.69001496897630
N           -1.93361081771309       -1.44593461710736        0.92668637139464
C           -2.93421131438626       -0.70121293602475        0.45251747310606
C           -4.29245747923026       -1.02086911237901        0.87386770262988
C           -4.63021154889523       -2.33845145841510        1.19710498464786
C           -5.92445656260087       -2.60732639151232        1.59660970101903
C           -6.83694278103036       -1.56395495705557        1.67127908241889
C           -6.39405553247043       -0.28749023425726        1.35524808321171
N           -5.16276193711719       -0.01920502255839        0.97417645663509
N           -4.64760248428609        0.41256465553133       -1.68708638440574
C           -5.60484632791402        1.04620515662372       -2.33251861170456
H           -6.49612999693827        2.90164318705110       -2.95011885614227
H           -4.71162998304777        4.25870206407592       -1.85154662137895
H           -2.88718199695214        3.06185658155739       -0.63410320698651
H            1.20567603529275        1.27943054579272       -0.84710764986077
H            2.63600090158267       -2.30043095595540       -1.27189788059315
H            4.15977988287412       -3.75386324114302       -2.52046320567230
H            6.57881691787594       -3.23509778397983       -2.61514336976098
H            7.43406296965323       -1.20840687323620       -1.45940201966972
H            6.85912043473850        2.56215059995930        1.04994936023635
H            5.46493260340562        4.12729591920941        2.38471415411031
H            3.05022233099942        3.65932362297225        2.66645333601266
H            2.04652590932585        1.68924708008887        1.61847771092367
H            2.31572902979169       -2.23234885134842        1.37029694221244
H           -3.87968900587788       -3.10895155977024        1.12487250463827
H           -6.22173389255477       -3.61562930399116        1.84761447007591
H           -7.85820080343127       -1.73312424986615        1.97503013755901
H           -7.05619967270619        0.56708285754480        1.41743716453944
H           -6.33987575330097        0.41160066081108       -2.81124957712589

 projected vibrational frequencies (cm⁻¹)
eigval :       -0.00    -0.00    -0.00     0.00     0.00     0.00
eigval :       14.19    18.36    21.16    24.91    39.02    46.45
eigval :       58.47    61.27    76.33    83.29   112.14   136.89
eigval :      141.16   158.80   179.08   208.46   221.35   247.27
eigval :      255.92   256.41   268.67   297.68   301.50   338.32
eigval :      354.87   371.31   377.78   389.03   399.85   408.11
eigval :      428.83   429.20   450.60   454.22   465.08   506.91
eigval :      510.81   520.96   524.42   539.28   557.13   564.05
eigval :      575.82   584.99   591.42   599.58   616.99   621.60
eigval :      645.39   662.65   664.66   673.04   691.55   698.90
eigval :      705.53   708.48   726.46   767.18   767.91   776.33
eigval :      778.89   788.17   795.91   834.05   840.30   853.08
eigval :      856.27   865.06   867.70   883.27   884.02   898.55
eigval :      900.04   913.18   914.82   914.88   915.81   916.45
eigval :      929.95   930.78   941.59   988.78  1006.74  1016.90
eigval :     1087.97  1088.56  1089.38  1090.09  1105.54  1111.10
eigval :     1116.06  1119.68  1131.16  1159.47  1162.12  1163.85
eigval :     1168.50  1175.17  1183.20  1203.39  1205.12  1228.30
eigval :     1237.89  1241.43  1244.89  1245.76  1258.75  1270.92
eigval :     1286.99  1288.57  1293.39  1303.59  1312.87  1326.43
eigval :     1331.89  1345.22  1367.17  1389.71  1403.78  1413.23
eigval :     1417.96  1422.30  1434.62  1441.64  1444.83  1470.37
eigval :     1473.00  1488.17  1494.68  1516.22  1546.31  1554.59
eigval :     1565.40  1570.54  1572.81  1574.22  1586.25  1595.57
eigval :     3048.71  3051.46  3070.02  3070.94  3075.22  3092.95
eigval :     3093.50  3094.43  3095.54  3101.63  3102.10  3103.28
eigval :     3105.11  3108.08  3108.68  3110.19  3114.52  3115.04

   temp. (K)  partition function   enthalpy   heat capacity  entropy
                                   cal/mol     cal/K/mol   cal/K/mol   J/K/mol
 298.15  VIB  0.147E+13            15672.050     99.667     96.750
         ROT  0.365E+08              888.752      2.981     37.582
         INT  0.534E+20            16560.802    102.648    134.332
         TR   0.975E+28             1481.254      4.968     44.289
         TOT                       18042.0560   107.6165   178.6209   747.3498

       T/K    H(0)-H(T)+PV         H(T)/Eh          T*S/Eh         G(T)/Eh
   ------------------------------------------------------------------------
    298.15    0.287518E-01    0.421315E+00    0.848685E-01    0.336446E+00
   ------------------------------------------------------------------------

         :::::::::::::::::::::::::::::::::::::::::::::::::::::
         ::                  THERMODYNAMIC                  ::
         :::::::::::::::::::::::::::::::::::::::::::::::::::::
         :: total free energy         -92.524333909131 Eh   ::
         ::.................................................::
         :: total energy              -92.860780164336 Eh   ::
         :: zero point energy           0.392562957304 Eh   ::
         :: G(RRHO) w/o ZPVE           -0.056116702099 Eh   ::
         :: G(RRHO) contrib.            0.336446255205 Eh   ::
         :::::::::::::::::::::::::::::::::::::::::::::::::::::

           -------------------------------------------------
          | TOTAL ENERGY              -92.860780164336 Eh   |
          | TOTAL ENTHALPY            -92.439465360590 Eh   |
          | TOTAL FREE ENERGY         -92.524333909131 Eh   |
          | GRADIENT NORM               0.000095586373 Eh/α |
           -------------------------------------------------

 * finished run on 2025/07/20 at 18:58:02.333
