   * xtb version 6.7.1 (edcfbbe) compiled by 'albert@albert-system' on 2024-07-22

   ID    Z sym.   atoms
    1    6 C      1-5, 7-9, 11-16, 18-24, 26, 28-33, 36
    2    7 N      6, 10, 25, 27, 34, 35
    3    8 O      17
    4    1 H      37-54

          program call               : xtb data2507/gas/DPP-PXZ/DPP-PXZ_gas_S0_crest.xyz --gfn 2 --ohess vtight --parallel 40 --molden --ceasefiles --namespace data2507/gas/DPP-PXZ/DPP-PXZ_gas_S0_finalOpt
          :  Hamiltonian                  GFN2-xTB          :
 * total energy  :   -92.8939695 Eh     change       -0.1454410E-08 Eh
 * total energy  :   -92.8939701 Eh     change       -0.6182950E-06 Eh
 * total energy  :   -92.8939701 Eh     change       -0.4849227E-08 Eh
 * total energy  :   -92.8939711 Eh     change       -0.9335994E-06 Eh
 * total energy  :   -92.8939725 Eh     change       -0.1407255E-05 Eh
 * total energy  :   -92.8939733 Eh     change       -0.8132148E-06 Eh
 * total energy  :   -92.8939739 Eh     change       -0.6229403E-06 Eh
 * total energy  :   -92.8939743 Eh     change       -0.3754439E-06 Eh
 * total energy  :   -92.8939745 Eh     change       -0.2101870E-06 Eh
 * total energy  :   -92.8939747 Eh     change       -0.1981046E-06 Eh
 * total energy  :   -92.8939749 Eh     change       -0.2080860E-06 Eh
 * total energy  :   -92.8939751 Eh     change       -0.1770800E-06 Eh
 * total energy  :   -92.8939752 Eh     change       -0.1417793E-06 Eh
 * total energy  :   -92.8939754 Eh     change       -0.1362742E-06 Eh
 * total energy  :   -92.8939755 Eh     change       -0.1420720E-06 Eh
 * total energy  :   -92.8939757 Eh     change       -0.1751609E-06 Eh
 * total energy  :   -92.8939759 Eh     change       -0.1879791E-06 Eh
 * total energy  :   -92.8939760 Eh     change       -0.1341810E-06 Eh
 * total energy  :   -92.8939760 Eh     change       -0.3363493E-07 Eh
   *** GEOMETRY OPTIMIZATION CONVERGED AFTER 19 ITERATIONS ***

 final structure:
================
54
 xtb: 6.7.1 (edcfbbe)
C           -5.74422686048634        2.26762734737805       -2.45107243133001
C           -4.72939692411270        3.06468810138982       -1.94489398394688
C           -3.68090831460009        2.46288202348031       -1.27252241933536
C           -3.69851185215141        1.07788706557761       -1.12170507859758
C           -2.61456806046783        0.39030047287536       -0.41027346563862
N           -1.38547734296176        0.78805391330415       -0.62416723697685
C           -0.38488273157219        0.06362963857576       -0.08389938314563
C            0.95525773768258        0.44350724732596       -0.26183178235000
C            1.94088672282523       -0.39632727889028        0.21059833210724
N            3.30265754370250       -0.08604530101861        0.08942156210894
C            4.16573180010509       -0.96875238777102       -0.57121677479952
C            3.70145340517079       -2.08989871131934       -1.24840134991553
C            4.58174057937850       -2.94577066252543       -1.89186542071442
C            5.93764063555658       -2.68641308709043       -1.88526424301322
C            6.41250177632057       -1.54832176891204       -1.25193400918884
C            5.53809240229039       -0.69126652676695       -0.60855937288794
O            6.07678951068329        0.43202910115744       -0.03672928322980
C            5.21419390149022        1.31544329773620        0.55995359498777
C            5.77377936407042        2.45737063849911        1.10436455452718
C            4.97894851713080        3.38159268502917        1.76391571448322
C            3.62499734217107        3.14460715740538        1.88914632076539
C            3.05833833153523        2.00500304878261        1.33965758307613
C            3.83471823259589        1.08415788102295        0.64741796717475
C            1.54894380396810       -1.60556428959105        0.84255791639203
N            0.31697771785702       -1.96573041159117        1.03974410958812
C           -0.66424764678555       -1.14951401761786        0.61273793551906
N           -1.92910220430628       -1.48048490428439        0.90867826062498
C           -2.89189497329980       -0.71091090132390        0.46406021263018
C           -4.25823823824642       -0.98433141045151        0.91938150585941
C           -4.67850639729204       -2.29469366548777        1.14124738620037
C           -5.97852734626496       -2.50515301496595        1.56385987239612
C           -6.80389993002901       -1.40834690599138        1.75984938438476
C           -6.27841092626933       -0.14377030376875        1.53383846846499
N           -5.04379482001041        0.06996625185184        1.12617796390606
N           -4.66289966956163        0.31042672059037       -1.62301039875717
C           -5.65258381786117        0.89498675149153       -2.26692805649612
H           -6.58122854135329        2.69638681371641       -2.98006190445568
H           -4.75524179800982        4.13733115489277       -2.07430721805553
H           -2.86485326108546        3.03409141390166       -0.86050800979937
H            1.18304448784112        1.36408642849423       -0.77805865865513
H            2.64297169391989       -2.29618859408643       -1.28044892726905
H            4.19350044289766       -3.81338948185176       -2.40219453913173
H            6.62702008120894       -3.35179601857293       -2.38021146209683
H            7.46226949502875       -1.30246983769658       -1.24836721268483
H            6.83833233219794        2.59790151468930        1.00699424776616
H            5.42349241869487        4.27010789013869        2.18325047476294
H            2.99452264632142        3.84209049101065        2.41848501840952
H            2.00205148109030        1.82861875057016        1.46651127913323
H            2.30789285473435       -2.28053118351579        1.21865548770385
H           -3.98929089182434       -3.10665661058593        0.97655544976946
H           -6.34378641479523       -3.50687347666797        1.73968019386094
H           -7.82531381279593       -1.52798994630729        2.08651538064107
H           -6.87451481138956        0.74654697538361        1.69015410809470
H           -6.40900310503666        0.22605032158094       -2.65755023066701

          :  Hamiltonian                  GFN2-xTB          :
         :: gradient norm              0.000069016977 Eh/a0 ::
         :: HOMO-LUMO gap              1.025601579554 eV    ::
         :: SCC energy               -94.446326715154 Eh    ::
         :: -> dispersion             -0.074039163508 Eh    ::
         :: repulsion energy           1.552350678333 Eh    ::

    * Orbital Energies and Occupations

         #    Occupation            Energy/Eh            Energy/eV
      -------------------------------------------------------------
         1        2.0000           -0.7329464             -19.9445
       ...           ...                  ...                  ...
        73        2.0000           -0.4311168             -11.7313
        74        2.0000           -0.4288090             -11.6685
        75        2.0000           -0.4241324             -11.5412
        76        2.0000           -0.4201941             -11.4341
        77        2.0000           -0.4179985             -11.3743
        78        2.0000           -0.4170294             -11.3479
        79        2.0000           -0.4056546             -11.0384
        80        2.0000           -0.3992675             -10.8646
        81        2.0000           -0.3935829             -10.7099
        82        2.0000           -0.3726859             -10.1413
        83        2.0000           -0.3720123             -10.1230
        84        2.0000           -0.3544836              -9.6460
        85        2.0000           -0.3464266              -9.4267 (HOMO)
        86                         -0.3087366              -8.4012 (LUMO)
        87                         -0.2787440              -7.5850
        88                         -0.2491967              -6.7810
        89                         -0.2481619              -6.7528
        90                         -0.2429963              -6.6123
        91                         -0.2398854              -6.5276
        92                         -0.2359957              -6.4218
        93                         -0.2339271              -6.3655
        94                         -0.2231919              -6.0734
        95                         -0.2181024              -5.9349
        96                         -0.2006169              -5.4591
       ...                                ...                  ...
       162                          0.6774719              18.4349
      -------------------------------------------------------------
                  HL-Gap            0.0376900 Eh            1.0256 eV

     #   Z          covCN         q      C6AA      α(0)
     1   6 C        2.915    -0.037    28.932     8.820
     2   6 C        2.928    -0.009    28.232     8.714
     3   6 C        2.919    -0.032    28.788     8.799
     4   6 C        2.973     0.102    25.735     8.321
     5   6 C        2.961     0.097    25.838     8.337
     6   7 N        1.848    -0.230    26.870     7.683
     7   6 C        2.969     0.070    26.437     8.434
     8   6 C        2.923    -0.041    29.018     8.834
     9   6 C        2.915     0.055    26.775     8.485
    10   7 N        2.750    -0.067    22.530     7.050
    11   6 C        2.923     0.041    27.076     8.533
    12   6 C        2.924    -0.057    29.422     8.895
    13   6 C        2.919    -0.037    28.920     8.819
    14   6 C        2.919    -0.038    28.940     8.822
    15   6 C        2.920    -0.055    29.370     8.887
    16   6 C        2.885     0.127    25.224     8.234
    17   8 O        1.709    -0.250    18.146     5.751
    18   6 C        2.885     0.126    25.228     8.234
    19   6 C        2.920    -0.055    29.364     8.886
    20   6 C        2.919    -0.038    28.948     8.823
    21   6 C        2.919    -0.037    28.925     8.819
    22   6 C        2.924    -0.058    29.440     8.898
    23   6 C        2.920     0.042    27.058     8.530
    24   6 C        2.909     0.056    26.743     8.480
    25   7 N        1.841    -0.218    26.589     7.642
    26   6 C        2.960     0.154    24.670     8.147
    27   7 N        1.853    -0.215    26.527     7.634
    28   6 C        2.963     0.094    25.900     8.348
    29   6 C        2.973     0.101    25.758     8.325
    30   6 C        2.919    -0.031    28.779     8.797
    31   6 C        2.928    -0.008    28.224     8.712
    32   6 C        2.915    -0.037    28.921     8.819
    33   6 C        2.910     0.063    26.578     8.454
    34   7 N        1.843    -0.228    26.832     7.677
    35   7 N        1.843    -0.226    26.787     7.670
    36   6 C        2.910     0.064    26.572     8.453
    37   1 H        0.926     0.039     2.461     2.453
    38   1 H        0.926     0.041     2.438     2.442
    39   1 H        0.926     0.052     2.290     2.366
    40   1 H        0.926     0.062     2.177     2.307
    41   1 H        0.926     0.036     2.501     2.473
    42   1 H        0.926     0.041     2.441     2.443
    43   1 H        0.926     0.042     2.425     2.435
    44   1 H        0.926     0.053     2.278     2.360
    45   1 H        0.926     0.053     2.279     2.361
    46   1 H        0.926     0.041     2.432     2.439
    47   1 H        0.926     0.039     2.456     2.451
    48   1 H        0.926     0.036     2.496     2.471
    49   1 H        0.925     0.057     2.236     2.339
    50   1 H        0.926     0.060     2.197     2.318
    51   1 H        0.926     0.042     2.421     2.433
    52   1 H        0.926     0.039     2.457     2.451
    53   1 H        0.925     0.038     2.479     2.462
    54   1 H        0.925     0.039     2.464     2.455

molecular dipole:
                 x           y           z       tot (Debye)
 q only:       -0.395       0.339      -0.192
   full:       -0.600       0.658      -0.336       2.419

 projected vibrational frequencies (cm⁻¹)
eigval :       -0.00    -0.00    -0.00     0.00     0.00     0.00
eigval :       14.72    19.70    24.14    29.67    38.67    46.91
eigval :       60.58    63.45    77.46    81.54   116.61   138.72
eigval :      140.51   157.92   181.67   214.23   225.36   247.09
eigval :      254.30   261.78   271.94   297.51   311.21   335.52
eigval :      354.01   370.73   375.21   392.73   396.98   401.04
eigval :      429.34   431.52   445.52   458.16   459.97   506.30
eigval :      509.18   520.32   525.35   551.80   564.47   566.61
eigval :      577.52   592.70   595.19   603.90   622.91   628.21
eigval :      660.41   662.18   674.28   690.84   708.13   710.21
eigval :      719.94   730.51   763.25   770.69   778.91   779.99
eigval :      784.25   795.44   845.25   850.01   856.47   866.02
eigval :      870.40   873.74   887.33   889.44   897.28   901.42
eigval :      912.89   916.14   916.71   916.89   917.13   923.18
eigval :      933.32   934.02   964.15   995.40  1004.07  1028.50
eigval :     1088.08  1089.64  1090.51  1091.44  1106.07  1109.64
eigval :     1115.81  1120.42  1126.42  1160.69  1161.86  1163.76
eigval :     1175.21  1184.04  1196.73  1203.22  1209.49  1232.14
eigval :     1242.75  1245.07  1248.40  1262.12  1265.72  1277.45
eigval :     1288.77  1294.35  1306.27  1311.29  1315.23  1334.89
eigval :     1347.02  1373.71  1401.43  1406.23  1415.03  1421.31
eigval :     1426.77  1431.76  1443.19  1456.77  1459.80  1483.97
eigval :     1498.70  1513.73  1518.88  1558.52  1560.45  1568.58
eigval :     1574.59  1575.55  1579.45  1583.73  1590.44  1600.96
eigval :     3050.68  3051.87  3052.37  3071.28  3072.65  3088.87
eigval :     3091.75  3091.95  3094.11  3094.45  3099.06  3101.09
eigval :     3106.50  3108.15  3108.42  3113.22  3114.41  3114.90

   temp. (K)  partition function   enthalpy   heat capacity  entropy
                                   cal/mol     cal/K/mol   cal/K/mol   J/K/mol
 298.15  VIB  0.814E+12            15531.781     98.858     95.746
         ROT  0.361E+08              888.752      2.981     37.562
         INT  0.294E+20            16420.534    101.839    133.309
         TR   0.975E+28             1481.254      4.968     44.289
         TOT                       17901.7876   106.8075   177.5972   743.0665

       T/K    H(0)-H(T)+PV         H(T)/Eh          T*S/Eh         G(T)/Eh
   ------------------------------------------------------------------------
    298.15    0.285283E-01    0.423229E+00    0.843821E-01    0.338847E+00
   ------------------------------------------------------------------------

         :::::::::::::::::::::::::::::::::::::::::::::::::::::
         ::                  THERMODYNAMIC                  ::
         :::::::::::::::::::::::::::::::::::::::::::::::::::::
         :: total free energy         -92.555129486612 Eh   ::
         ::.................................................::
         :: total energy              -92.893976036822 Eh   ::
         :: zero point energy           0.394700372704 Eh   ::
         :: G(RRHO) w/o ZPVE           -0.055853822494 Eh   ::
         :: G(RRHO) contrib.            0.338846550210 Eh   ::
         :::::::::::::::::::::::::::::::::::::::::::::::::::::

           -------------------------------------------------
          | TOTAL ENERGY              -92.893976036822 Eh   |
          | TOTAL ENTHALPY            -92.470747349654 Eh   |
          | TOTAL FREE ENERGY         -92.555129486612 Eh   |
          | GRADIENT NORM               0.000069007207 Eh/α |
          | HOMO-LUMO GAP               1.025596620184 eV   |
           -------------------------------------------------

 * finished run on 2025/07/20 at 18:55:34.974
