   * xtb version 6.7.1 (edcfbbe) compiled by 'albert@albert-system' on 2024-07-22

   ID    Z sym.   atoms
    1    8 O      1, 3, 40, 41
    2   16 S      2, 39
    3    6 C      4-13, 15-33, 35-38, 42-57
    4    7 N      14, 34
    5    1 H      58-91

          program call               : xtb data2507/gas/SBA-2DPS/SBA-2DPS_gas_T1_crest.xyz --gfn 2 --spinpol --tblite --uhf 2 --ohess vtight --parallel 40 --molden --ceasefiles --namespace data2507/gas/SBA-2DPS/SBA-2DPS_gas_T1_finalOpt
 * total energy  :  -150.7544850 Eh     change       -0.3217028E-07 Eh
 * total energy  :  -150.7544878 Eh     change       -0.2802682E-05 Eh
 * total energy  :  -150.7544904 Eh     change       -0.2583582E-05 Eh
 * total energy  :  -150.7544928 Eh     change       -0.2441851E-05 Eh
 * total energy  :  -150.7544953 Eh     change       -0.2462149E-05 Eh
 * total energy  :  -150.7544968 Eh     change       -0.1571696E-05 Eh
 * total energy  :  -150.7544979 Eh     change       -0.1051830E-05 Eh
 * total energy  :  -150.7544995 Eh     change       -0.1568033E-05 Eh
 * total energy  :  -150.7545021 Eh     change       -0.2672660E-05 Eh
 * total energy  :  -150.7545060 Eh     change       -0.3912505E-05 Eh
 * total energy  :  -150.7545182 Eh     change       -0.8503712E-06 Eh
 * total energy  :  -150.7545191 Eh     change       -0.8694495E-06 Eh
 * total energy  :  -150.7545199 Eh     change       -0.7991969E-06 Eh
 * total energy  :  -150.7545213 Eh     change       -0.1408121E-05 Eh
 * total energy  :  -150.7545215 Eh     change       -0.2350886E-06 Eh
 * total energy  :  -150.7545220 Eh     change       -0.4541466E-06 Eh
 * total energy  :  -150.7545216 Eh     change        0.3981746E-06 Eh
 * total energy  :  -150.7545221 Eh     change       -0.5573125E-06 Eh
 * total energy  :  -150.7545222 Eh     change       -0.3186926E-07 Eh
   *** GEOMETRY OPTIMIZATION CONVERGED AFTER 26 ITERATIONS ***

 final structure:
================
91
 xtb: 6.7.1 (edcfbbe)
O            9.11717052455339       -2.34281093058707        0.10544051141871
S            8.79642181650789       -1.04277087969366       -0.42591047933009
O            9.33333148294080       -0.66801642742922       -1.70907938808801
C            9.23559106625926        0.20590786888122        0.77868058198342
C            9.24497051034895       -0.12342597874038        2.12308683196869
C            9.50301460646640        0.86138744843234        3.05935156554528
C            9.74170156037409        2.16468771419939        2.64600612285978
C            9.72975437427369        2.48438276708200        1.29546998856497
C            9.47212533522544        1.50254327058694        0.35594446022983
C            7.02341011467851       -0.86646802339591       -0.47374570744888
C            6.44991150581849        0.06157906627982       -1.33843552894003
C            5.08789185872211        0.25818515132770       -1.32321371759364
C            4.29388269259068       -0.47096969428020       -0.43102214967645
N            2.88304847146681       -0.27545779681613       -0.41596599961345
C            2.33374421579362        0.52201842970297        0.56339828605781
C            3.15895001715874        1.15929713386556        1.50531435089391
C            2.61889906280175        1.95005118617387        2.49022644650744
C            1.23795897463307        2.13469802369799        2.56672778914419
C            0.41886042001851        1.52514527252126        1.63588442118671
C            0.94026447179790        0.72417612528084        0.63279251687327
C           -0.00351917508377        0.09690090080624       -0.36473723340551
C            0.71681239995874       -0.73245602408140       -1.40111550178475
C           -0.02474111976461       -1.36205879273772       -2.38790142153013
C            0.58055000135005       -2.14894923449631       -3.34869364386276
C            1.96422815290083       -2.32510087675128       -3.31885409025091
C            2.72036537268838       -1.71160748197594       -2.34990884555114
C            2.11687145799548       -0.89459107954032       -1.37900521464011
C           -0.93969798815761       -0.82166457374344        0.38404300319093
C           -0.40917235254471       -1.88872431357238        1.09120672349104
C           -1.22135272033099       -2.76676589521966        1.78247523225024
C           -2.60429309421135       -2.58254807388670        1.76292207642499
C           -3.15346110623257       -1.53177721155866        1.06887827868224
C           -2.33580735600907       -0.62689417354964        0.37187288410387
N           -2.89480189319533        0.42690696985255       -0.31600525058149
C           -4.31073340138340        0.58731063986701       -0.29455692249221
C           -5.08247813853506        0.08344727013089       -1.34685975864151
C           -6.44944617570318        0.24314489803842       -1.32455268643076
C           -7.04903600267608        0.91186204646173       -0.26127903116526
S           -8.82653355119247        1.02223722280873       -0.18284086511499
O           -9.35485694271107        0.93129054317020       -1.51989017073898
O           -9.18419499119041        2.15897669790402        0.62659074595751
C           -9.22503884043393       -0.47801625634796        0.70791212867260
C           -9.25169203812044       -0.45760290527019        2.09170230526540
C           -9.47596104117736       -1.63510544109041        2.78181107776221
C           -9.66419363702159       -2.82090559747828        2.08556905776969
C           -9.63558584573771       -2.83043945372839        0.69793963413328
C           -9.41140064031250       -1.65517599407661        0.00400024632811
C           -6.28498050457440        1.41335330813210        0.78866066770500
C           -4.91774867434461        1.25576941083414        0.77383258821464
C           -2.13533435958736        1.33421898159004       -1.02076119140268
C           -2.75062382197679        2.40474751745095       -1.69117936522726
C           -2.00073775583922        3.31224028750966       -2.39917120461885
C           -0.61297042290370        3.18379592623734       -2.45969887316158
C            0.00254974541390        2.13999436175405       -1.79578387719903
C           -0.73243572930892        1.21221671463944       -1.07554132507096
C            4.87527170850084       -1.39926034406064        0.43958487441076
C            6.23774229164704       -1.59194304449155        0.41757235639692
H            9.07144763241929       -1.14904019520264        2.40840173315861
H            9.52232675376890        0.61602710344553        4.11076631114611
H            9.94454728121793        2.93205236481187        3.37812047540112
H            9.92483560163665        3.49804220676198        0.97854909224950
H            9.47140717157594        1.71266051427657       -0.70198586115236
H            7.09035527530702        0.59442369594330       -2.02243877535065
H            4.61978694621434        0.96522014674471       -1.99180385738195
H            4.22793219088334        1.02608829812040        1.44553734835858
H            3.26812660971350        2.43115910928514        3.20502808722912
H            0.81397317885901        2.75271732403692        3.34190685587308
H           -0.65063270101365        1.67126142645372        1.68177974817468
H           -1.09698380358871       -1.22982274538502       -2.39727752723171
H           -0.01242761799775       -2.62791446674431       -4.11133827372604
H            2.44519813294260       -2.94722671901428       -4.05723656277144
H            3.78863055173636       -1.85836301984320       -2.32671073375517
H            0.66201588572383       -2.02933990289125        1.09540621009037
H           -0.79012763274895       -3.59005196105194        2.32920178377636
H           -3.24768755833226       -3.26741541324116        2.29289527184419
H           -4.22371290393770       -1.39587415717393        1.05198964762664
H           -4.59432889167415       -0.42273585138810       -2.16628803248787
H           -7.07441634594956       -0.11852765442775       -2.12492806027061
H           -9.11794631816316        0.48405910174984        2.60039371312885
H           -9.50813355278592       -1.63140645738433        3.86116009622761
H           -9.84076313792738       -3.73906208127642        2.62576000913882
H           -9.79154082017478       -3.75410844313654        0.16080345629421
H           -9.39853525088693       -1.62392235973346       -1.07407107489107
H           -6.78492254784780        1.93919064442397        1.58583056913361
H           -4.30373429215639        1.64411022311711        1.57268683749017
H           -3.82290458504356        2.51122694696542       -1.64276648162911
H           -2.49008056980406        4.12764205666549       -2.90837205979801
H           -0.02476216924206        3.89495168020935       -3.01732776032539
H            1.07745758114759        2.03707825120873       -1.83250760810787
H            4.24491716153985       -1.95776114619620        1.11545389631713
H            6.71760908538483       -2.31269744285182        1.05959891898798

 projected vibrational frequencies (cm⁻¹)
eigval :       -0.00    -0.00     0.00     0.00     0.00     0.00
eigval :       -2.43     4.00     4.67     5.49    13.14    13.78
eigval :       17.05    19.71    32.83    34.25    37.88    38.87
eigval :       41.58    41.84    47.14    70.04    71.12    98.66
eigval :       99.58   111.10   111.74   114.54   121.07   121.42
eigval :      139.41   139.54   145.55   168.30   175.43   176.63
eigval :      197.35   198.00   227.96   259.41   261.78   263.10
eigval :      265.82   282.04   288.80   296.07   307.81   308.18
eigval :      312.69   320.82   364.05   364.08   368.21   369.39
eigval :      369.90   375.40   375.64   388.77   391.77   397.13
eigval :      399.63   406.44   407.42   416.31   419.66   428.53
eigval :      430.43   446.61   447.93   454.21   467.80   472.27
eigval :      476.33   479.97   506.36   506.74   513.55   514.40
eigval :      520.03   527.87   581.12   582.23   585.00   585.00
eigval :      591.55   591.78   600.63   602.61   603.24   633.58
eigval :      647.17   650.48   650.63   652.55   653.89   655.30
eigval :      671.91   679.14   679.66   680.10   683.30   688.08
eigval :      716.69   740.22   744.27   747.35   759.45   759.79
eigval :      760.28   765.32   790.95   791.16   850.18   852.05
eigval :      852.87   860.36   861.03   861.39   871.15   876.11
eigval :      876.11   888.76   888.80   894.20   894.37   898.07
eigval :      898.29   903.11   903.79   903.92   904.45   907.02
eigval :      907.72   907.81   908.09   909.98   910.28   911.41
eigval :      911.79   923.41   923.42   925.09   925.11   925.12
eigval :      925.60   967.54   967.63   989.19   989.74  1037.66
eigval :     1066.76  1066.98  1075.86  1077.88  1084.76  1086.36
eigval :     1086.47  1086.55  1090.10  1096.38  1102.44  1102.47
eigval :     1112.58  1113.73  1113.98  1120.96  1121.37  1122.00
eigval :     1134.30  1153.57  1168.83  1169.34  1176.04  1176.17
eigval :     1177.04  1177.07  1177.08  1179.93  1180.33  1181.23
eigval :     1182.46  1202.16  1214.41  1215.28  1216.29  1230.42
eigval :     1230.59  1238.17  1238.19  1245.88  1253.54  1260.63
eigval :     1260.67  1262.31  1263.54  1305.43  1308.42  1313.31
eigval :     1315.79  1321.97  1323.66  1325.22  1325.23  1343.65
eigval :     1343.91  1350.16  1350.30  1381.94  1393.85  1395.33
eigval :     1399.32  1399.67  1409.74  1410.89  1421.21  1421.92
eigval :     1427.64  1428.31  1429.65  1429.69  1430.93  1431.18
eigval :     1438.44  1438.73  1457.42  1477.28  1478.99  1483.23
eigval :     1483.82  1491.19  1523.04  1529.95  1532.13  1535.50
eigval :     1556.10  1560.14  1566.80  1567.11  1582.94  3079.17
eigval :     3079.20  3080.55  3081.03  3081.10  3081.39  3084.33
eigval :     3084.50  3084.59  3084.86  3085.74  3086.07  3092.75
eigval :     3092.85  3093.91  3093.97  3095.44  3095.70  3102.20
eigval :     3102.74  3104.65  3104.67  3104.89  3105.22  3105.23
eigval :     3105.38  3108.79  3109.18  3110.87  3111.15  3111.17
eigval :     3111.68  3111.75  3111.89

   temp. (K)  partition function   enthalpy   heat capacity  entropy
                                   cal/mol     cal/K/mol   cal/K/mol   J/K/mol
 298.15  VIB  0.739E+27            28817.276    173.024    186.598
         ROT  0.156E+09              888.752      2.981     40.477
         INT  0.116E+36            29706.029    176.005    227.076
         TR   0.210E+29             1481.254      4.968     45.816
         TOT                       31187.2828   180.9731   272.8919  1141.7797

       T/K    H(0)-H(T)+PV         H(T)/Eh          T*S/Eh         G(T)/Eh
   ------------------------------------------------------------------------
    298.15    0.497001E-01    0.722820E+00    0.129660E+00    0.593160E+00
   ------------------------------------------------------------------------

         :::::::::::::::::::::::::::::::::::::::::::::::::::::
         ::                  THERMODYNAMIC                  ::
         :::::::::::::::::::::::::::::::::::::::::::::::::::::
         :: total free energy        -150.161362463269 Eh   ::
         ::.................................................::
         :: total energy             -150.754522240372 Eh   ::
         :: zero point energy           0.673119421166 Eh   ::
         :: G(RRHO) w/o ZPVE           -0.079959644062 Eh   ::
         :: G(RRHO) contrib.            0.593159777104 Eh   ::
         :::::::::::::::::::::::::::::::::::::::::::::::::::::

           -------------------------------------------------
          | TOTAL ENERGY             -150.754522240372 Eh   |
          | TOTAL ENTHALPY           -150.031702720580 Eh   |
          | TOTAL FREE ENERGY        -150.161362463269 Eh   |
          | GRADIENT NORM               0.000084335964 Eh/α |
           -------------------------------------------------

 * finished run on 2025/09/09 at 10:15:43.780
