   * xtb version 6.7.1 (edcfbbe) compiled by 'albert@albert-system' on 2024-07-22

   ID    Z sym.   atoms
    1    8 O      1, 3, 40, 41
    2   16 S      2, 39
    3    6 C      4-13, 15-33, 35-38, 42-57
    4    7 N      14, 34
    5    1 H      58-91

          program call               : xtb data2507/gas/SBA-2DPS/SBA-2DPS_gas_S0_finalOpt.xtbopt.xyz --gfn 2 --spinpol --tblite --uhf 2 --ohess vtight --parallel 40 --molden --ceasefiles --namespace data2507/gas/SBA-2DPS/SBA-2DPS_gas_T1_preOpt
 * total energy  :  -150.7512611 Eh     change       -0.3585001E-07 Eh
 * total energy  :  -150.7534175 Eh     change       -0.2156426E-02 Eh
 * total energy  :  -150.7538220 Eh     change       -0.4044240E-03 Eh
 * total energy  :  -150.7538724 Eh     change       -0.5045874E-04 Eh
 * total energy  :  -150.7539083 Eh     change       -0.3589701E-04 Eh
 * total energy  :  -150.7539316 Eh     change       -0.2325481E-04 Eh
 * total energy  :  -150.7539697 Eh     change       -0.3811311E-04 Eh
 * total energy  :  -150.7540099 Eh     change       -0.4018703E-04 Eh
 * total energy  :  -150.7540406 Eh     change       -0.3071881E-04 Eh
 * total energy  :  -150.7540649 Eh     change       -0.2431593E-04 Eh
 * total energy  :  -150.7545150 Eh     change       -0.2899229E-06 Eh
 * total energy  :  -150.7545153 Eh     change       -0.3627260E-06 Eh
 * total energy  :  -150.7545157 Eh     change       -0.3957809E-06 Eh
 * total energy  :  -150.7545162 Eh     change       -0.4743360E-06 Eh
 * total energy  :  -150.7545164 Eh     change       -0.1941286E-06 Eh
 * total energy  :  -150.7545167 Eh     change       -0.2759942E-06 Eh
 * total energy  :  -150.7545164 Eh     change        0.2396931E-06 Eh
 * total energy  :  -150.7545168 Eh     change       -0.3535563E-06 Eh
 * total energy  :  -150.7545168 Eh     change       -0.5987505E-07 Eh
   *** GEOMETRY OPTIMIZATION CONVERGED AFTER 98 ITERATIONS ***

 final structure:
================
91
 xtb: 6.7.1 (edcfbbe)
O            9.14327659561259       -2.33283211450227        0.12860334601033
S            8.80022223366424       -1.07459649221079       -0.48334273467401
O            9.29976364634713       -0.78868529871096       -1.80393679196799
C            9.26449433144697        0.25806863659920        0.61737427998803
C            9.28831662815501        0.03088528014086        1.98258911712223
C            9.56552988924122        1.08122630628224        2.83866899528855
C            9.80884631728929        2.34763753383992        2.32529680593668
C            9.78235034612270        2.56472622229211        0.95480492360946
C            9.50545665396905        1.51705849882361        0.09520390391986
C            7.02559208206941       -0.90998999713702       -0.49351249293224
C            6.42467230712259       -0.02818725808449       -1.38763141023660
C            5.06239439313341        0.16202133758602       -1.34736986348893
C            4.29506168301841       -0.52654642883559       -0.40084618417818
N            2.88452831603131       -0.33713324684518       -0.36148872601763
C            2.34813774486088        0.46515255740215        0.62175650012546
C            3.18473934056203        1.10552318210540        1.55147576385088
C            2.65679314831438        1.89696658481209        2.54250777381040
C            1.27709608042305        2.08130438048709        2.63646679836255
C            0.44707742436896        1.47390006713295        1.71396353827781
C            0.95621004773780        0.67150466715017        0.70565837455275
C            0.00077417676500        0.05686328785556       -0.28862522911946
C            0.70508777727554       -0.79447250756849       -1.31809975051276
C           -0.05071364896768       -1.43175387921856       -2.28905036758908
C            0.53911239302966       -2.23727435346239       -3.24400046475620
C            1.92112907315357       -2.42602206620650       -3.22263438688772
C            2.69119465984687       -1.80432959132759       -2.26995218918443
C            2.10401553800653       -0.96585540885303       -1.30728697443826
C           -0.95947198788887       -0.83556268209981        0.46052865282351
C           -0.45518680449772       -1.91042686695061        1.17482215703015
C           -1.28979420844736       -2.77180497471444        1.86056988337692
C           -2.66894056457174       -2.56501652794190        1.82263462912186
C           -3.19215123300945       -1.50595553127527        1.12116935043320
C           -2.35109314879844       -0.61297171519242        0.43626550955604
N           -2.88313658509473        0.45247767442393       -0.25604369037476
C           -4.29444414581910        0.64341719974419       -0.24522582192772
C           -5.05778039406524        0.24402937641312       -1.34791156555593
C           -6.42069006270686        0.43464473346716       -1.33676775354531
C           -7.02546037929496        1.03110235451301       -0.23395030946063
S           -8.80087303705684        1.18010161465543       -0.18121405301698
O           -9.29964900236955        1.25643553199617       -1.53051116897695
O           -9.14899052688580        2.22692385929597        0.74520170584286
C           -9.25856060810644       -0.40070277457535        0.52212524108353
C           -9.28073999580763       -0.54795111471924        1.89830668247992
C           -9.55208279092169       -1.79055245089933        2.44167522592564
C           -9.79142413822329       -2.87399421987383        1.60776195540503
C           -9.76678314404450       -2.71556579703637        0.22920023993685
C           -9.49555312112806       -1.47463075437417       -0.31828141015752
C           -6.27046104511727        1.42788886995213        0.86625710520214
C           -4.90730862836653        1.23869532942692        0.86282746036928
C           -2.09862704952824        1.34282883542406       -0.95614899803992
C           -2.68325585250114        2.43390578561138       -1.62091788042899
C           -1.90893817584179        3.32152713349436       -2.32788314370992
C           -0.52559649293487        3.15358736899019       -2.39152525514315
C            0.06107335602701        2.09405629754017       -1.72673003754305
C           -0.69902496727606        1.18591332578314       -1.00726149744744
C            4.90437103290255       -1.40834279022363        0.49897359780063
C            6.26698259689805       -1.59475906105750        0.45187141152064
H            9.11051785289553       -0.96869473191902        2.34677924543476
H            9.59617238514773        0.91570678377518        3.90530681925833
H           10.02670913496806        3.16620853695602        2.99497447070913
H            9.98117372867974        3.54988987220281        0.55994010431846
H            9.49286484425690        1.64656627204857       -0.97552238816600
H            7.04409187828229        0.47426432123426       -2.11273999660946
H            4.57345557256504        0.83341405564643       -2.03749750931983
H            4.25310610739286        0.97510984739803        1.47769949608567
H            3.31505820176465        2.37924664951497        3.24820756392786
H            0.86253426797060        2.69890766373003        3.41704460625763
H           -0.62149875804999        1.62295488142767        1.77046581632825
H           -1.12192480817231       -1.29107203513092       -2.29026116714729
H           -0.06472878714532       -2.72170541541903       -3.99457224286235
H            2.39010812267247       -3.06483358363666       -3.95446532158216
H            3.75783062099333       -1.96291663146825       -2.25262061066919
H            0.61317016475077       -2.07073933490290        1.18845520065958
H           -0.87895277489204       -3.60074530177489        2.41436641252948
H           -3.33044814819098       -3.23963942170496        2.34341309953656
H           -4.26002419382227       -1.35595640892578        1.08775315831722
H           -4.56571269018752       -0.20723844821131       -2.19660880241908
H           -7.03775620553511        0.15250836141809       -2.17437069185256
H           -9.10640370226920        0.31813150884541        2.51709717684553
H           -9.58118934861683       -1.91719311656284        3.51366858283419
H          -10.00467196179583       -3.84308838731261        2.03364278265250
H           -9.96253016563250       -3.55964797551142       -0.41516158843741
H           -9.48421806031865       -1.31228416619780       -1.38454070582514
H           -6.77389890423386        1.90111014862006        1.69366057639881
H           -4.30023039223731        1.54764402319088        1.70073210933990
H           -3.75132132629651        2.57419378717003       -1.56773441503948
H           -2.37567161744235        4.15259831677387       -2.83294517425812
H            0.08170489874010        3.84812129809566       -2.94963931566391
H            1.13300597830258        1.96343909242925       -1.76161803154009
H            4.29464308457760       -1.93692615893257        1.21656736761167
H            6.76760016899543       -2.28091021754269        1.11563551731679

 projected vibrational frequencies (cm⁻¹)
eigval :       -0.00    -0.00    -0.00     0.00     0.00     0.00
eigval :        3.68     3.97     5.72     6.94    13.24    14.43
eigval :       20.50    21.76    33.06    35.43    38.59    40.25
eigval :       41.88    42.46    49.53    70.08    71.59    98.69
eigval :      100.23   111.12   112.03   115.23   121.32   121.71
eigval :      139.46   139.66   146.68   168.72   176.09   177.61
eigval :      197.56   198.64   228.05   258.29   262.88   263.42
eigval :      266.87   282.15   288.80   296.34   307.74   308.33
eigval :      313.02   321.00   364.14   364.19   367.91   369.98
eigval :      370.48   375.47   375.66   388.64   392.49   397.63
eigval :      399.37   406.55   407.67   416.97   419.54   428.38
eigval :      431.14   446.54   448.21   454.48   468.04   471.09
eigval :      476.81   481.03   506.25   506.87   513.90   514.82
eigval :      521.25   528.21   580.91   582.34   585.00   585.02
eigval :      591.67   591.95   600.82   602.58   603.42   633.41
eigval :      646.67   650.51   650.63   652.82   653.65   655.27
eigval :      672.01   679.06   679.85   680.40   683.10   687.99
eigval :      716.57   740.35   744.53   747.37   759.74   760.03
eigval :      760.37   765.64   791.42   791.57   851.08   852.20
eigval :      852.96   860.63   861.28   861.57   871.83   876.31
eigval :      876.32   888.86   888.90   894.62   894.76   898.45
eigval :      898.58   903.31   903.90   904.01   904.66   906.70
eigval :      907.90   908.05   908.23   910.57   910.67   911.67
eigval :      911.83   923.57   923.57   925.21   925.34   925.37
eigval :      925.69   967.56   967.59   989.03   989.43  1039.40
eigval :     1066.97  1067.06  1075.18  1077.04  1084.27  1085.89
eigval :     1086.95  1087.01  1090.09  1096.47  1102.56  1102.61
eigval :     1110.86  1113.90  1114.03  1120.59  1121.26  1122.12
eigval :     1135.91  1155.09  1168.72  1169.44  1176.39  1176.53
eigval :     1177.18  1177.23  1177.26  1180.12  1180.40  1181.63
eigval :     1182.66  1202.22  1214.61  1214.90  1215.91  1230.76
eigval :     1230.86  1238.25  1238.26  1246.00  1253.63  1260.77
eigval :     1260.80  1262.36  1264.14  1304.87  1308.28  1311.56
eigval :     1313.05  1323.95  1324.73  1325.23  1325.27  1343.38
eigval :     1343.75  1349.74  1349.96  1383.15  1393.65  1394.44
eigval :     1399.22  1399.40  1409.43  1410.26  1421.62  1422.17
eigval :     1427.63  1428.25  1429.81  1429.86  1430.75  1431.88
eigval :     1438.63  1438.88  1455.19  1477.76  1478.76  1482.42
eigval :     1483.99  1491.70  1523.46  1530.42  1530.55  1533.05
eigval :     1556.13  1559.61  1567.05  1567.17  1582.89  3079.33
eigval :     3079.36  3080.89  3081.12  3081.20  3081.49  3084.35
eigval :     3084.50  3084.72  3084.74  3085.30  3085.76  3093.07
eigval :     3093.19  3093.95  3094.18  3095.78  3095.85  3103.09
eigval :     3103.48  3104.68  3104.75  3105.21  3105.33  3105.48
eigval :     3105.78  3109.32  3109.49  3111.10  3111.26  3111.38
eigval :     3111.59  3111.87  3112.02

   temp. (K)  partition function   enthalpy   heat capacity  entropy
                                   cal/mol     cal/K/mol   cal/K/mol   J/K/mol
 298.15  VIB  0.191E+27            28779.290    173.150    185.324
         ROT  0.156E+09              888.752      2.981     40.466
         INT  0.297E+35            29668.042    176.131    225.790
         TR   0.210E+29             1481.254      4.968     45.816
         TOT                       31149.2958   181.0994   271.6062  1136.4002

       T/K    H(0)-H(T)+PV         H(T)/Eh          T*S/Eh         G(T)/Eh
   ------------------------------------------------------------------------
    298.15    0.496396E-01    0.722864E+00    0.129049E+00    0.593815E+00
   ------------------------------------------------------------------------

         :::::::::::::::::::::::::::::::::::::::::::::::::::::
         ::                  THERMODYNAMIC                  ::
         :::::::::::::::::::::::::::::::::::::::::::::::::::::
         :: total free energy        -150.160702093818 Eh   ::
         ::.................................................::
         :: total energy             -150.754516900356 Eh   ::
         :: zero point energy           0.673224100187 Eh   ::
         :: G(RRHO) w/o ZPVE           -0.079409293649 Eh   ::
         :: G(RRHO) contrib.            0.593814806538 Eh   ::
         :::::::::::::::::::::::::::::::::::::::::::::::::::::

           -------------------------------------------------
          | TOTAL ENERGY             -150.754516900356 Eh   |
          | TOTAL ENTHALPY           -150.031653237572 Eh   |
          | TOTAL FREE ENERGY        -150.160702093818 Eh   |
          | GRADIENT NORM               0.000051435697 Eh/α |
           -------------------------------------------------

 * finished run on 2025/09/09 at 09:55:36.724
