   * xtb version 6.7.1 (edcfbbe) compiled by 'albert@albert-system' on 2024-07-22

   ID    Z sym.   atoms
    1    8 O      1, 3, 40, 41
    2   16 S      2, 39
    3    6 C      4-13, 15-33, 35-38, 42-57
    4    7 N      14, 34
    5    1 H      58-91

          program call               : xtb data2507/gas/SBA-2DPS/SBA-2DPS_gas_S0_crest.xyz --gfn 2 --ohess vtight --parallel 40 --molden --ceasefiles --namespace data2507/gas/SBA-2DPS/SBA-2DPS_gas_S0_finalOpt
          :  Hamiltonian                  GFN2-xTB          :
 * total energy  :  -150.8530282 Eh     change       -0.6883852E-08 Eh
 * total energy  :  -150.8530301 Eh     change       -0.1862129E-05 Eh
 * total energy  :  -150.8530316 Eh     change       -0.1571214E-05 Eh
 * total energy  :  -150.8530347 Eh     change       -0.3040277E-05 Eh
 * total energy  :  -150.8530365 Eh     change       -0.1787757E-05 Eh
 * total energy  :  -150.8530390 Eh     change       -0.2504177E-05 Eh
 * total energy  :  -150.8530410 Eh     change       -0.1980313E-05 Eh
 * total energy  :  -150.8530426 Eh     change       -0.1609564E-05 Eh
 * total energy  :  -150.8530437 Eh     change       -0.1115863E-05 Eh
 * total energy  :  -150.8530446 Eh     change       -0.9259478E-06 Eh
 * total energy  :  -150.8530509 Eh     change       -0.6429652E-06 Eh
 * total energy  :  -150.8530514 Eh     change       -0.4757016E-06 Eh
 * total energy  :  -150.8530519 Eh     change       -0.4794846E-06 Eh
 * total energy  :  -150.8530523 Eh     change       -0.4416362E-06 Eh
 * total energy  :  -150.8530528 Eh     change       -0.4527403E-06 Eh
 * total energy  :  -150.8530532 Eh     change       -0.4201675E-06 Eh
 * total energy  :  -150.8530534 Eh     change       -0.1727269E-06 Eh
 * total energy  :  -150.8530537 Eh     change       -0.3697496E-06 Eh
 * total energy  :  -150.8530538 Eh     change       -0.9392170E-07 Eh
   *** GEOMETRY OPTIMIZATION CONVERGED AFTER 24 ITERATIONS ***

 final structure:
================
91
 xtb: 6.7.1 (edcfbbe)
O            9.12070270135442       -2.28423152465341        0.69163518911604
S            8.79987242462006       -1.21739898908270       -0.21836631224576
O            9.27081576703133       -1.30193330082185       -1.57488084488750
C            9.34720077309337        0.34182223005599        0.48741809558335
C            9.17582635774060        0.55389179042017        1.84169560396751
C            9.55753333323811        1.76781153751986        2.38772312770841
C           10.09999339319770        2.75065214976143        1.57359150940888
C           10.26769539099367        2.52546904444735        0.21630882176243
C            9.88617202903269        1.31232337634627       -0.33330183548852
C            7.01461764715285       -1.00678762314168       -0.23803205426326
C            6.44861617701207       -0.19613329732466       -1.20383429270893
C            5.08130205650046        0.00851526396818       -1.20161721962548
C            4.29032072953884       -0.60199938619227       -0.23055541611604
N            2.88973791691924       -0.39469348850571       -0.22709239429177
C            2.32311271604488        0.37789069903625        0.78033714542978
C            3.13045187535257        0.98884506524196        1.74368169604823
C            2.57596326963495        1.75270721061772        2.75049685596404
C            1.20549571540863        1.93495897644765        2.81589078486572
C            0.40474622843323        1.35798433046068        1.84894427697433
C            0.94341770537348        0.58755411965508        0.82978251544107
C            0.00047454118326        0.02086458455789       -0.21090206795897
C            0.73350563278989       -0.79035784613032       -1.25933668157480
C           -0.01216054671855       -1.37832934614691       -2.26990378576431
C            0.58281072541779       -2.15704583684708       -3.24371426156977
C            1.95013510497240       -2.36668222288836       -3.19509105756182
C            2.70882683372592       -1.78937449108060       -2.19729799058039
C            2.11655414505554       -0.97738979950096       -1.22662858220379
C           -0.98620558289756       -0.89514295090793        0.48269017834182
C           -0.48839628588829       -1.99701065341054        1.16130195780715
C           -1.32859852762552       -2.89717011675347        1.78802825144582
C           -2.69681997938140       -2.70068243910344        1.71777320705310
C           -3.21099695710639       -1.60952984840920        1.04717430915974
C           -2.36515164776632       -0.67922826147463        0.43710843646587
N           -2.89113741816954        0.42052348081385       -0.23162669110319
C           -4.29427912937561        0.60691097735144       -0.25596471351398
C           -4.99897864020000        0.41941514289769       -1.44249300064957
C           -6.36963215825489        0.60242639057872       -1.46496744514322
C           -7.02425008976978        0.96978150081234       -0.30522467899225
S           -8.81276129607550        1.15079690860944       -0.31088447234939
O           -9.26153180429393        1.18189345399983       -1.67715209314469
O           -9.17020093478531        2.23966357918344        0.55852178718422
C           -9.34124509496843       -0.39078922611813        0.44637328447375
C           -9.74575083589148       -0.40030841212779        1.76636026025390
C          -10.11258298009805       -1.60135383702216        2.35135717033355
C          -10.06433470140392       -2.77204928712166        1.61088988500832
C           -9.65645012187677       -2.74956064422727        0.28570359677583
C           -9.28990695069250       -1.55062663110704       -0.30229558397795
C           -6.33790952563221        1.15913313060876        0.87946950443645
C           -4.96713625742646        0.98165460374556        0.90521501371290
C           -2.07520958061409        1.34399929966379       -0.87825461364532
C           -2.62884993177897        2.47233982879221       -1.48875611071230
C           -1.82775540939460        3.39034953588202       -2.13679419954571
C           -0.45592727532446        3.21168524679991       -2.18296912343358
C            0.09966374800161        2.11317898925456       -1.55583369577666
C           -0.68903685732005        1.18030862848850       -0.89956423966050
C            4.87406220600233       -1.41890744834218        0.73450266792107
C            6.24268568028893       -1.61752994761454        0.73132760271070
H            8.76463631824882       -0.23655640814881        2.44975731315914
H            9.43531729729535        1.94727006207972        3.44515852192026
H           10.39863716513428        3.69607530003466        2.00142830001914
H           10.69663580281271        3.29190498566055       -0.41125642574448
H           10.01203889009686        1.09469976169322       -1.38239238254101
H            7.08327527704770        0.25314866614341       -1.95110355945442
H            4.61529209330353        0.63368925939583       -1.94847245476114
H            4.20248815673578        0.87073936463207        1.69879396225386
H            3.22216705073403        2.21057076042454        3.48446748971359
H            0.76773959433487        2.52847434850615        3.60330111699886
H           -0.66511135994130        1.50701270907016        1.87452814694012
H           -1.08100371058706       -1.22054918242193       -2.28313540107658
H           -0.01339940987851       -2.60373407950655       -4.02407156355109
H            2.43324210870396       -2.98697750150525       -3.93489057175636
H            3.77101894758057       -1.97697808345376       -2.16628859597170
H            0.58118026435190       -2.14732563002120        1.18958276670271
H           -0.92242795995938       -3.74707177278126        2.31393835507414
H           -3.37290116212480       -3.40211217158018        2.18347347497804
H           -4.28126504132007       -1.48145696147012        0.98922752410391
H           -4.46502628498959        0.13730802737825       -2.33758393142929
H           -6.94389365045856        0.47809948760346       -2.36951599767472
H           -9.78203623309512        0.53325923743374        2.30573036112030
H          -10.43730513315511       -1.62407711452621        3.38059452232920
H          -10.35128137786176       -3.70772660801567        2.06723359335389
H           -9.62697336669634       -3.66387234046196       -0.28740153524533
H           -8.98252238722893       -1.49678278909733       -1.33482167732447
H           -6.88228514767719        1.46463008987930        1.75890251329935
H           -4.40815203304815        1.13001735441976        1.81699201835834
H           -3.69462286978397        2.63660653514701       -1.44911745919383
H           -2.28132937308768        4.25157120838067       -2.60373129701924
H            0.17349871792830        3.92504870971803       -2.69181085716540
H            1.17052364598608        1.96926707665351       -1.56683073697089
H            4.24948261861677       -1.89036671109470        1.47846743863405
H            6.72535221779982       -2.25604038122978        1.45440337346219

          :  Hamiltonian                  GFN2-xTB          :
         :: gradient norm              0.000068768430 Eh/a0 ::
         :: HOMO-LUMO gap              2.262128032766 eV    ::
         :: SCC energy              -153.406035192153 Eh    ::
         :: -> dispersion             -0.142181665630 Eh    ::
         :: repulsion energy           2.552981358122 Eh    ::

    * Orbital Energies and Occupations

         #    Occupation            Energy/Eh            Energy/eV
      -------------------------------------------------------------
         1        2.0000           -0.7723825             -21.0176
       ...           ...                  ...                  ...
       126        2.0000           -0.4266708             -11.6103
       127        2.0000           -0.4263182             -11.6007
       128        2.0000           -0.4198795             -11.4255
       129        2.0000           -0.4147489             -11.2859
       130        2.0000           -0.4134163             -11.2496
       131        2.0000           -0.4125502             -11.2261
       132        2.0000           -0.4075256             -11.0893
       133        2.0000           -0.4072120             -11.0808
       134        2.0000           -0.4000195             -10.8851
       135        2.0000           -0.3992742             -10.8648
       136        2.0000           -0.3980310             -10.8310
       137        2.0000           -0.3576446              -9.7320
       138        2.0000           -0.3572807              -9.7221 (HOMO)
       139                         -0.2741491              -7.4600 (LUMO)
       140                         -0.2741219              -7.4592
       141                         -0.2583423              -7.0299
       142                         -0.2581867              -7.0256
       143                         -0.2554934              -6.9523
       144                         -0.2553026              -6.9471
       145                         -0.2517280              -6.8499
       146                         -0.2516390              -6.8474
       147                         -0.2421748              -6.5899
       148                         -0.2310042              -6.2859
       149                         -0.2290307              -6.2322
       ...                                ...                  ...
       272                          1.2048760              32.7863
      -------------------------------------------------------------
                  HL-Gap            0.0831316 Eh            2.2621 eV

     #   Z          covCN         q      C6AA      α(0)
     1   8 O        0.860    -0.537    24.623     6.653
     2  16 S        3.816     0.943   108.295    17.515
     3   8 O        0.860    -0.537    24.619     6.652
     4   6 C        2.972    -0.074    29.835     8.960
     5   6 C        2.960    -0.027    28.680     8.784
     6   6 C        2.922    -0.023    28.585     8.768
     7   6 C        2.920    -0.024    28.594     8.769
     8   6 C        2.922    -0.023    28.581     8.767
     9   6 C        2.955    -0.025    28.636     8.777
    10   6 C        2.971    -0.078    29.938     8.975
    11   6 C        2.957    -0.027    28.679     8.784
    12   6 C        2.923    -0.035    28.863     8.810
    13   6 C        2.927     0.076    26.296     8.410
    14   7 N        2.753    -0.069    22.575     7.057
    15   6 C        2.924     0.058    26.690     8.472
    16   6 C        2.924    -0.059    29.462     8.901
    17   6 C        2.920    -0.032    28.795     8.800
    18   6 C        2.917    -0.042    29.037     8.837
    19   6 C        2.927    -0.033    28.835     8.806
    20   6 C        2.989    -0.010    28.249     8.718
    21   6 C        3.929     0.015    20.263     6.397
    22   6 C        2.989    -0.010    28.257     8.720
    23   6 C        2.927    -0.034    28.841     8.807
    24   6 C        2.917    -0.041    29.028     8.835
    25   6 C        2.920    -0.031    28.776     8.797
    26   6 C        2.924    -0.058    29.440     8.898
    27   6 C        2.924     0.058    26.693     8.473
    28   6 C        2.989    -0.010    28.247     8.718
    29   6 C        2.927    -0.034    28.835     8.806
    30   6 C        2.917    -0.042    29.036     8.836
    31   6 C        2.920    -0.032    28.795     8.800
    32   6 C        2.924    -0.059    29.463     8.901
    33   6 C        2.924     0.059    26.688     8.472
    34   7 N        2.753    -0.069    22.571     7.056
    35   6 C        2.927     0.076    26.298     8.410
    36   6 C        2.923    -0.035    28.864     8.810
    37   6 C        2.954    -0.026    28.645     8.778
    38   6 C        2.971    -0.078    29.940     8.975
    39  16 S        3.816     0.943   108.300    17.515
    40   8 O        0.860    -0.537    24.620     6.653
    41   8 O        0.860    -0.537    24.620     6.653
    42   6 C        2.972    -0.074    29.836     8.960
    43   6 C        2.955    -0.026    28.639     8.778
    44   6 C        2.922    -0.023    28.584     8.767
    45   6 C        2.920    -0.024    28.595     8.769
    46   6 C        2.922    -0.023    28.585     8.768
    47   6 C        2.959    -0.027    28.678     8.784
    48   6 C        2.958    -0.027    28.682     8.784
    49   6 C        2.923    -0.034    28.858     8.809
    50   6 C        2.925     0.058    26.693     8.473
    51   6 C        2.924    -0.058    29.437     8.897
    52   6 C        2.920    -0.031    28.776     8.797
    53   6 C        2.917    -0.041    29.027     8.835
    54   6 C        2.927    -0.034    28.840     8.807
    55   6 C        2.989    -0.010    28.255     8.719
    56   6 C        2.923    -0.034    28.856     8.809
    57   6 C        2.954    -0.026    28.646     8.779
    58   1 H        0.926     0.053     2.279     2.361
    59   1 H        0.926     0.051     2.312     2.378
    60   1 H        0.926     0.050     2.318     2.381
    61   1 H        0.926     0.052     2.298     2.370
    62   1 H        0.926     0.064     2.153     2.295
    63   1 H        0.926     0.059     2.208     2.324
    64   1 H        0.926     0.058     2.224     2.332
    65   1 H        0.926     0.023     2.695     2.567
    66   1 H        0.926     0.031     2.575     2.509
    67   1 H        0.926     0.031     2.572     2.508
    68   1 H        0.926     0.028     2.619     2.531
    69   1 H        0.926     0.027     2.630     2.536
    70   1 H        0.926     0.031     2.569     2.506
    71   1 H        0.926     0.034     2.532     2.488
    72   1 H        0.926     0.028     2.621     2.532
    73   1 H        0.926     0.028     2.617     2.530
    74   1 H        0.926     0.031     2.570     2.507
    75   1 H        0.926     0.031     2.578     2.511
    76   1 H        0.926     0.022     2.697     2.568
    77   1 H        0.926     0.058     2.217     2.328
    78   1 H        0.926     0.068     2.103     2.268
    79   1 H        0.926     0.064     2.156     2.296
    80   1 H        0.926     0.052     2.300     2.372
    81   1 H        0.926     0.050     2.319     2.381
    82   1 H        0.926     0.051     2.311     2.377
    83   1 H        0.926     0.054     2.273     2.358
    84   1 H        0.926     0.060     2.204     2.322
    85   1 H        0.926     0.058     2.227     2.333
    86   1 H        0.926     0.028     2.622     2.532
    87   1 H        0.926     0.034     2.532     2.488
    88   1 H        0.926     0.031     2.571     2.508
    89   1 H        0.926     0.027     2.632     2.537
    90   1 H        0.926     0.058     2.218     2.329
    91   1 H        0.926     0.069     2.101     2.267

molecular dipole:
                 x           y           z       tot (Debye)
 q only:        0.035       0.064       1.493
   full:        0.034       0.060       1.498       3.812

 projected vibrational frequencies (cm⁻¹)
eigval :       -0.00     0.00     0.00     0.00     0.00     0.00
eigval :        3.14     3.75     5.13     5.72    14.13    15.37
eigval :       17.28    18.35    34.08    35.15    38.62    41.89
eigval :       42.32    43.86    56.70    68.18    70.82    99.04
eigval :      108.76   110.95   113.68   123.80   126.36   127.15
eigval :      138.16   138.75   148.23   171.39   178.06   181.50
eigval :      203.92   204.58   233.98   259.22   265.63   272.31
eigval :      281.12   285.45   288.68   294.15   304.61   306.40
eigval :      321.14   330.19   362.89   362.94   366.87   369.62
eigval :      371.84   374.23   379.16   392.24   395.14   402.22
eigval :      404.96   410.36   411.54   430.48   433.45   440.79
eigval :      449.72   452.48   453.62   462.95   486.55   491.90
eigval :      493.27   505.09   506.08   523.83   524.66   531.37
eigval :      539.62   545.42   584.99   585.01   591.36   591.39
eigval :      600.86   602.38   605.49   606.40   609.30   636.11
eigval :      656.55   658.06   659.15   667.15   676.22   678.29
eigval :      679.96   687.78   692.67   697.79   700.26   702.71
eigval :      732.38   746.32   750.71   754.33   772.60   772.99
eigval :      774.01   781.66   813.79   814.01   866.56   866.83
eigval :      868.08   868.17   877.06   877.34   880.50   880.56
eigval :      897.00   897.57   899.84   906.34   906.41   908.12
eigval :      908.53   909.06   909.66   913.32   913.68   917.89
eigval :      918.31   921.07   921.70   922.14   922.52   927.23
eigval :      927.32   928.92   928.97   933.17   933.18   946.63
eigval :      947.67   968.44   968.46  1005.62  1007.20  1069.71
eigval :     1069.72  1087.38  1088.05  1101.96  1102.54  1103.30
eigval :     1108.22  1108.93  1110.09  1110.34  1112.95  1113.32
eigval :     1114.92  1117.85  1124.01  1124.82  1132.54  1133.56
eigval :     1148.40  1169.11  1169.35  1177.82  1177.83  1179.41
eigval :     1179.48  1181.13  1184.18  1184.83  1184.91  1192.22
eigval :     1196.59  1219.89  1232.69  1233.91  1237.08  1239.89
eigval :     1239.92  1247.55  1247.62  1260.36  1260.39  1267.53
eigval :     1267.89  1269.76  1270.94  1312.96  1313.17  1314.51
eigval :     1317.05  1320.44  1320.49  1327.45  1327.58  1333.49
eigval :     1335.77  1336.47  1337.50  1394.04  1394.08  1430.41
eigval :     1430.46  1435.78  1437.91  1438.35  1438.76  1445.13
eigval :     1445.13  1458.65  1459.02  1480.13  1480.67  1490.99
eigval :     1494.09  1573.47  1574.15  1574.82  1574.87  1577.29
eigval :     1577.36  1579.00  1579.09  1586.76  1591.97  1592.10
eigval :     1593.07  1597.87  1597.93  1602.18  1603.64  3077.87
eigval :     3078.23  3078.61  3078.84  3081.10  3081.23  3083.26
eigval :     3083.33  3084.59  3084.69  3089.85  3089.88  3091.48
eigval :     3091.55  3092.00  3092.09  3093.61  3093.64  3096.66
eigval :     3096.83  3096.93  3096.94  3100.93  3101.09  3103.04
eigval :     3103.47  3104.42  3104.96  3105.54  3105.56  3106.86
eigval :     3107.14  3107.53  3107.54

   temp. (K)  partition function   enthalpy   heat capacity  entropy
                                   cal/mol     cal/K/mol   cal/K/mol   J/K/mol
 298.15  VIB  0.181E+27            28363.987    170.599    183.464
         ROT  0.157E+09              888.752      2.981     40.478
         INT  0.284E+35            29252.739    173.579    223.942
         TR   0.210E+29             1481.254      4.968     45.816
         TOT                       30733.9930   178.5475   269.7583  1128.6687

       T/K    H(0)-H(T)+PV         H(T)/Eh          T*S/Eh         G(T)/Eh
   ------------------------------------------------------------------------
    298.15    0.489777E-01    0.729382E+00    0.128171E+00    0.601211E+00
   ------------------------------------------------------------------------

         :::::::::::::::::::::::::::::::::::::::::::::::::::::
         ::                  THERMODYNAMIC                  ::
         :::::::::::::::::::::::::::::::::::::::::::::::::::::
         :: total free energy        -150.251842628311 Eh   ::
         ::.................................................::
         :: total energy             -150.853053834027 Eh   ::
         :: zero point energy           0.680404335478 Eh   ::
         :: G(RRHO) w/o ZPVE           -0.079193129763 Eh   ::
         :: G(RRHO) contrib.            0.601211205716 Eh   ::
         :::::::::::::::::::::::::::::::::::::::::::::::::::::

           -------------------------------------------------
          | TOTAL ENERGY             -150.853053834027 Eh   |
          | TOTAL ENTHALPY           -150.123671763078 Eh   |
          | TOTAL FREE ENERGY        -150.251842628311 Eh   |
          | GRADIENT NORM               0.000068769954 Eh/α |
          | HOMO-LUMO GAP               2.262124743335 eV   |
           -------------------------------------------------

 * finished run on 2025/09/09 at 09:55:04.922
