   * xtb version 6.7.1 (edcfbbe) compiled by 'albert@albert-system' on 2024-07-22

   ID    Z sym.   atoms
    1    8 O      1, 3, 40, 41
    2   16 S      2, 39
    3    6 C      4-13, 15-33, 35-38, 42-57
    4    7 N      14, 34
    5    1 H      58-91

          program call               : xtb data2507/gas/SBA-2DPS/SBA-2DPS.xyz --gfn 2 --ohess vtight --parallel 40 --molden --ceasefiles --namespace data2507/gas/SBA-2DPS/SBA-2DPS_gas_S0_preOpt
          :  Hamiltonian                  GFN2-xTB          :
 * total energy  :  -150.8207294 Eh     change       -0.5946760E-08 Eh
 * total energy  :  -150.8426429 Eh     change       -0.2191353E-01 Eh
 * total energy  :  -150.8504041 Eh     change       -0.7761121E-02 Eh
 * total energy  :  -150.8514407 Eh     change       -0.1036673E-02 Eh
 * total energy  :  -150.8518078 Eh     change       -0.3671066E-03 Eh
 * total energy  :  -150.8519726 Eh     change       -0.1647906E-03 Eh
 * total energy  :  -150.8520424 Eh     change       -0.6977587E-04 Eh
 * total energy  :  -150.8520899 Eh     change       -0.4748779E-04 Eh
 * total energy  :  -150.8521397 Eh     change       -0.4975368E-04 Eh
 * total energy  :  -150.8521804 Eh     change       -0.4076161E-04 Eh
 * total energy  :  -150.8530248 Eh     change       -0.6499132E-06 Eh
 * total energy  :  -150.8530254 Eh     change       -0.6081616E-06 Eh
 * total energy  :  -150.8530262 Eh     change       -0.8015269E-06 Eh
 * total energy  :  -150.8530270 Eh     change       -0.7776597E-06 Eh
 * total energy  :  -150.8530275 Eh     change       -0.5255452E-06 Eh
 * total energy  :  -150.8530279 Eh     change       -0.3725475E-06 Eh
 * total energy  :  -150.8530281 Eh     change       -0.2326865E-06 Eh
 * total energy  :  -150.8530282 Eh     change       -0.1272229E-06 Eh
 * total energy  :  -150.8530282 Eh     change       -0.1469499E-07 Eh
   *** GEOMETRY OPTIMIZATION CONVERGED AFTER 88 ITERATIONS ***

 final structure:
================
91
 xtb: 6.7.1 (edcfbbe)
O            8.89212378479668       -2.92394972340043        0.84384576878512
S            8.68284766322902       -1.86966211022933       -0.11206960008193
O            9.19363687942945       -2.03280207576955       -1.44676800797061
C            9.31390247697975       -0.33119478416676        0.56855308694993
C            9.32763164998500       -0.15800704063789        1.93876380196547
C            9.76885857865712        1.04583006321914        2.46239951172989
C           10.18448400018223        2.05774145015326        1.61061614484842
C           10.16803131766046        1.87117338278445        0.23702615525936
C            9.72715820505447        0.66849409168076       -0.28991141709033
C            6.92018891336751       -1.53034926124749       -0.21040336576604
C            6.41388154007192       -0.90796946578807       -1.33551400542447
C            5.06691918288042       -0.60062023896846       -1.39352122382865
C            4.23660870197101       -0.91975812902997       -0.32160131500517
N            2.85651072610608       -0.60782243487422       -0.37620740872388
C            2.36440726769443        0.41405603467995        0.42753950670359
C            3.23201462268656        1.17095907944125        1.21966386072937
C            2.75278839959261        2.18479555754264        2.02404855732726
C            1.39990447132662        2.47574570787547        2.05052512178337
C            0.54100536193851        1.74940964031026        1.24808305934974
C            1.00366678066532        0.72727160434611        0.43349505226542
C            0.00162361719489       -0.00428659542880       -0.43548610473094
C            0.66168427265974       -1.06169590650372       -1.29563249421092
C           -0.13957407274360       -1.79592880983763       -2.15687904379855
C            0.38428532176822       -2.80254204999117       -2.94497146876870
C            1.73468286560905       -3.09297625747374       -2.85573772753935
C            2.54812008453390       -2.37252413909981       -2.00490879710784
C            2.02923992955982       -1.33418540833230       -1.22723964020297
C           -0.99760181555799       -0.69446433154841        0.46990962456973
C           -0.53176544274417       -1.67568123027196        1.33163681220278
C           -1.38805079800722       -2.36438296952650        2.16927418898672
C           -2.74147864403209       -2.07725561083703        2.13134397329649
C           -3.22384156873313       -1.10377947505568        1.28032538914815
C           -2.35892914283027       -0.38435532358534        0.45121090018017
N           -2.85416280466900        0.59676135319369       -0.39991563083905
C           -4.23529384195340        0.90671013720814       -0.35999514472405
C           -5.06511566145569        0.53102751898598       -1.41382897678204
C           -6.41303717610103        0.83651374653786       -1.37051005945595
C           -6.92074264277115        1.51346625601823       -0.27798052730989
S           -8.68426863528937        1.85315004142194       -0.19738167978869
O           -9.19248972416538        1.95982321817857       -1.53876608481265
O           -8.89692349612274        2.94616044319911        0.71324695290732
C           -9.31605982014716        0.34383831818223        0.54515165421435
C           -9.31621845721410        0.22108665997164        1.92090303183715
C           -9.76011534140500       -0.95947788864534        2.49299670080135
C          -10.19229294563470       -1.99873108798371        1.68337590935005
C          -10.18934039501475       -1.86275756786323        0.30377068111272
C           -9.74554258000369       -0.68354894612024       -0.27159798819681
C           -6.10908939667942        1.89191469106724        0.77438721481766
C           -4.76007303518410        1.59139534438977        0.73350860990255
C           -2.02946680583651        1.28361874973077       -1.28547998431234
C           -2.55168911581081        2.28263211283422       -2.11095540617394
C           -1.74090932805642        2.96358744246972       -2.99615358198568
C           -0.38994210695739        2.67227764334313       -3.07314570441674
C            0.13715656374464        1.70532548103606       -2.23888034364326
C           -0.66141226457340        1.01101861238320       -1.34273948358806
C            4.75999824147160       -1.54999208595258        0.80487857216134
C            6.10804391227499       -1.85232080015036        0.86026091002600
H            9.01372946689814       -0.97246763282979        2.57234919633876
H            9.79173605672322        1.19413585469323        3.53141751462595
H           10.52951337258746        2.99538761740669        2.02031168270733
H           10.50044176243327        2.65984302077531       -0.42082002262511
H            9.71630590283478        0.48187844025958       -1.35218896651143
H            7.07863075936080       -0.68747057502917       -2.15551602749924
H            4.64751225000241       -0.11883644657928       -2.26404647857499
H            4.29209062887907        0.96791373141615        1.19934948075965
H            3.44423202957088        2.75200564707555        2.62912941406385
H            1.02067663799483        3.26544273338896        2.68020247765340
H           -0.51519364405702        1.97687648062470        1.24416743663125
H           -1.19531423433608       -1.56974556147780       -2.20010838744933
H           -0.25425443371246       -3.36121493019127       -3.61138329006052
H            2.16150774347341       -3.88824376112828       -3.44806132163028
H            3.59537669364501       -2.62358988417660       -1.93714940982358
H            0.52482285516261       -1.90128499032737        1.33677319031063
H           -1.00637229443496       -3.12254282777088        2.83519010733248
H           -3.43088437110421       -2.61607127854243        2.76406623906895
H           -4.28428344141146       -0.90358753600307        1.25226965630007
H           -4.64450964968880        0.00732955606025       -2.25918945737457
H           -7.07750106329684        0.57253298294286       -2.17778399364211
H           -8.98983202325835        1.05569433058097        2.52106491863077
H           -9.77267797686000       -1.06826039948187        3.56691840852988
H          -10.53992681904051       -2.91794867984852        2.13088101185896
H          -10.53450046427325       -2.67245187670034       -0.32113350304330
H           -9.74463539656304       -0.53589460303689       -1.34005196719985
H           -6.54189521384900        2.43819475736270        1.59734716748315
H           -4.10498472299698        1.88142738129798        1.54133966774515
H           -3.59949149009194        2.53413438773631       -2.05388760639760
H           -2.17028145638361        3.72866530002025       -3.62526274837675
H            0.24648523875486        3.19990007156046       -3.76635135277808
H            1.19331109723377        1.47946123879710       -2.27288933938706
H            4.10456164921327       -1.79655414280262        1.62674762365614
H            6.53962327719172       -2.35741403988611        1.70973914177525

          :  Hamiltonian                  GFN2-xTB          :
         :: gradient norm              0.000090564964 Eh/a0 ::
         :: HOMO-LUMO gap              2.233963987934 eV    ::
         :: SCC energy              -153.406277441075 Eh    ::
         :: -> dispersion             -0.142019832676 Eh    ::
         :: repulsion energy           2.553249200556 Eh    ::

    * Orbital Energies and Occupations

         #    Occupation            Energy/Eh            Energy/eV
      -------------------------------------------------------------
         1        2.0000           -0.7723767             -21.0174
       ...           ...                  ...                  ...
       126        2.0000           -0.4266270             -11.6091
       127        2.0000           -0.4263377             -11.6012
       128        2.0000           -0.4196453             -11.4191
       129        2.0000           -0.4146014             -11.2819
       130        2.0000           -0.4132830             -11.2460
       131        2.0000           -0.4124204             -11.2225
       132        2.0000           -0.4073492             -11.0845
       133        2.0000           -0.4070465             -11.0763
       134        2.0000           -0.3999095             -10.8821
       135        2.0000           -0.3993210             -10.8661
       136        2.0000           -0.3977859             -10.8243
       137        2.0000           -0.3574722              -9.7273
       138        2.0000           -0.3571349              -9.7181 (HOMO)
       139                         -0.2750381              -7.4842 (LUMO)
       140                         -0.2750073              -7.4833
       141                         -0.2579228              -7.0184
       142                         -0.2578737              -7.0171
       143                         -0.2546948              -6.9306
       144                         -0.2546196              -6.9286
       145                         -0.2517136              -6.8495
       146                         -0.2517086              -6.8493
       147                         -0.2420405              -6.5863
       148                         -0.2309316              -6.2840
       149                         -0.2290177              -6.2319
       ...                                ...                  ...
       272                          1.2027443              32.7283
      -------------------------------------------------------------
                  HL-Gap            0.0820968 Eh            2.2340 eV

     #   Z          covCN         q      C6AA      α(0)
     1   8 O        0.860    -0.537    24.616     6.652
     2  16 S        3.816     0.943   108.304    17.516
     3   8 O        0.860    -0.537    24.613     6.652
     4   6 C        2.972    -0.074    29.848     8.961
     5   6 C        2.958    -0.027    28.667     8.782
     6   6 C        2.922    -0.023    28.588     8.768
     7   6 C        2.920    -0.024    28.595     8.769
     8   6 C        2.922    -0.023    28.586     8.768
     9   6 C        2.957    -0.026    28.657     8.780
    10   6 C        2.971    -0.078    29.950     8.977
    11   6 C        2.956    -0.027    28.668     8.782
    12   6 C        2.923    -0.035    28.865     8.811
    13   6 C        2.927     0.076    26.296     8.410
    14   7 N        2.753    -0.069    22.577     7.057
    15   6 C        2.925     0.059    26.687     8.472
    16   6 C        2.924    -0.059    29.459     8.901
    17   6 C        2.920    -0.032    28.796     8.800
    18   6 C        2.917    -0.042    29.039     8.837
    19   6 C        2.927    -0.034    28.838     8.807
    20   6 C        2.989    -0.010    28.248     8.718
    21   6 C        3.929     0.015    20.263     6.397
    22   6 C        2.989    -0.010    28.257     8.720
    23   6 C        2.927    -0.034    28.837     8.807
    24   6 C        2.917    -0.041    29.027     8.835
    25   6 C        2.920    -0.031    28.776     8.797
    26   6 C        2.924    -0.058    29.443     8.898
    27   6 C        2.924     0.058    26.693     8.473
    28   6 C        2.989    -0.010    28.249     8.719
    29   6 C        2.927    -0.034    28.839     8.807
    30   6 C        2.917    -0.042    29.039     8.837
    31   6 C        2.920    -0.032    28.796     8.800
    32   6 C        2.924    -0.059    29.459     8.901
    33   6 C        2.925     0.059    26.687     8.472
    34   7 N        2.753    -0.069    22.578     7.057
    35   6 C        2.927     0.076    26.295     8.409
    36   6 C        2.923    -0.035    28.864     8.810
    37   6 C        2.956    -0.027    28.668     8.782
    38   6 C        2.971    -0.078    29.948     8.977
    39  16 S        3.816     0.943   108.306    17.516
    40   8 O        0.860    -0.537    24.614     6.652
    41   8 O        0.860    -0.537    24.617     6.652
    42   6 C        2.972    -0.074    29.847     8.961
    43   6 C        2.958    -0.027    28.667     8.782
    44   6 C        2.922    -0.023    28.588     8.768
    45   6 C        2.920    -0.024    28.595     8.769
    46   6 C        2.922    -0.023    28.585     8.768
    47   6 C        2.957    -0.026    28.656     8.780
    48   6 C        2.955    -0.026    28.661     8.781
    49   6 C        2.924    -0.034    28.856     8.809
    50   6 C        2.924     0.058    26.694     8.473
    51   6 C        2.924    -0.058    29.443     8.898
    52   6 C        2.920    -0.031    28.776     8.797
    53   6 C        2.917    -0.041    29.027     8.835
    54   6 C        2.927    -0.034    28.837     8.807
    55   6 C        2.989    -0.010    28.257     8.720
    56   6 C        2.924    -0.034    28.857     8.809
    57   6 C        2.955    -0.027    28.663     8.781
    58   1 H        0.926     0.058     2.219     2.329
    59   1 H        0.926     0.051     2.308     2.376
    60   1 H        0.926     0.050     2.320     2.382
    61   1 H        0.926     0.051     2.304     2.374
    62   1 H        0.926     0.060     2.194     2.316
    63   1 H        0.926     0.064     2.155     2.296
    64   1 H        0.926     0.058     2.219     2.329
    65   1 H        0.926     0.022     2.701     2.570
    66   1 H        0.926     0.031     2.577     2.510
    67   1 H        0.926     0.031     2.572     2.508
    68   1 H        0.926     0.028     2.618     2.530
    69   1 H        0.926     0.027     2.630     2.536
    70   1 H        0.926     0.031     2.570     2.507
    71   1 H        0.926     0.034     2.533     2.489
    72   1 H        0.926     0.027     2.622     2.532
    73   1 H        0.926     0.028     2.619     2.531
    74   1 H        0.926     0.031     2.572     2.508
    75   1 H        0.926     0.031     2.577     2.510
    76   1 H        0.926     0.022     2.701     2.570
    77   1 H        0.926     0.058     2.219     2.330
    78   1 H        0.926     0.064     2.157     2.297
    79   1 H        0.926     0.058     2.223     2.332
    80   1 H        0.926     0.051     2.308     2.376
    81   1 H        0.926     0.050     2.319     2.382
    82   1 H        0.926     0.051     2.303     2.373
    83   1 H        0.926     0.061     2.190     2.314
    84   1 H        0.926     0.065     2.136     2.285
    85   1 H        0.926     0.058     2.224     2.332
    86   1 H        0.926     0.027     2.623     2.533
    87   1 H        0.926     0.034     2.533     2.489
    88   1 H        0.926     0.031     2.570     2.507
    89   1 H        0.926     0.027     2.630     2.536
    90   1 H        0.926     0.058     2.225     2.332
    91   1 H        0.926     0.065     2.138     2.287

molecular dipole:
                 x           y           z       tot (Debye)
 q only:       -0.003       0.028       1.302
   full:       -0.003       0.029       1.316       3.346

 projected vibrational frequencies (cm⁻¹)
eigval :       -0.00    -0.00    -0.00     0.00     0.00     0.00
eigval :       -4.24    -3.39     3.17     3.90    14.00    15.23
eigval :       17.07    19.18    33.71    35.22    39.12    41.89
eigval :       42.36    44.41    56.10    68.08    70.65    99.39
eigval :      108.53   113.70   114.83   124.46   124.63   126.29
eigval :      139.18   139.45   148.14   171.23   177.92   181.35
eigval :      202.32   203.18   233.93   259.65   265.37   272.74
eigval :      281.71   287.55   289.03   297.29   303.18   303.29
eigval :      323.87   333.53   362.87   362.94   367.00   369.58
eigval :      371.64   376.27   377.08   393.40   394.88   402.27
eigval :      405.02   411.27   412.27   429.54   430.28   437.43
eigval :      449.80   451.61   453.10   462.23   486.27   491.62
eigval :      493.23   505.05   505.85   524.02   524.87   531.35
eigval :      539.76   545.35   584.95   584.95   591.33   591.35
eigval :      600.86   602.37   605.46   606.25   609.25   636.01
eigval :      656.49   657.75   658.90   667.08   676.15   678.30
eigval :      680.03   687.32   692.15   697.77   700.54   702.86
eigval :      732.16   745.96   750.72   754.54   772.57   772.84
eigval :      774.01   781.60   813.69   813.76   866.50   866.60
eigval :      867.95   867.99   876.00   876.16   881.14   881.24
eigval :      896.99   897.52   899.78   905.69   905.73   908.04
eigval :      908.42   909.09   909.61   913.11   913.32   918.69
eigval :      919.10   921.15   921.21   922.26   922.49   925.51
eigval :      925.53   928.51   928.57   932.85   932.86   946.68
eigval :      947.67   968.43   968.45  1005.54  1007.14  1069.73
eigval :     1069.74  1087.20  1087.86  1102.09  1102.13  1102.58
eigval :     1108.02  1108.80  1110.01  1110.21  1113.26  1113.75
eigval :     1113.96  1117.13  1124.02  1124.77  1132.83  1133.87
eigval :     1148.43  1168.90  1169.13  1177.84  1177.85  1179.38
eigval :     1179.46  1181.32  1184.13  1184.79  1184.87  1192.10
eigval :     1196.61  1220.08  1232.64  1233.56  1237.30  1239.73
eigval :     1239.81  1247.44  1247.46  1260.38  1260.42  1267.48
eigval :     1267.78  1269.74  1270.96  1313.01  1313.11  1314.56
eigval :     1317.14  1320.51  1320.56  1327.52  1327.59  1333.62
eigval :     1336.13  1336.74  1337.48  1394.00  1394.04  1430.42
eigval :     1430.45  1435.81  1438.17  1438.39  1438.84  1444.81
eigval :     1444.85  1458.51  1458.90  1480.24  1480.76  1491.05
eigval :     1494.26  1573.57  1574.22  1574.88  1574.90  1577.27
eigval :     1577.30  1579.00  1579.04  1586.75  1591.97  1592.09
eigval :     1593.06  1597.79  1597.82  1602.20  1603.65  3077.60
eigval :     3077.68  3079.06  3079.09  3081.06  3081.24  3083.29
eigval :     3083.33  3084.48  3084.58  3090.01  3090.08  3091.45
eigval :     3091.56  3092.16  3092.24  3093.14  3093.16  3096.78
eigval :     3096.81  3097.23  3097.26  3100.74  3100.86  3103.08
eigval :     3103.48  3105.96  3105.99  3106.54  3106.56  3109.01
eigval :     3109.04  3109.24  3109.30

   temp. (K)  partition function   enthalpy   heat capacity  entropy
                                   cal/mol     cal/K/mol   cal/K/mol   J/K/mol
 298.15  VIB  0.338E+27            28366.375    170.630    184.084
         ROT  0.788E+08              888.752      2.981     39.114
         INT  0.266E+35            29255.128    173.610    223.199
         TR   0.210E+29             1481.254      4.968     45.816
         TOT                       30736.3818   178.5786   269.0147  1125.5574

       T/K    H(0)-H(T)+PV         H(T)/Eh          T*S/Eh         G(T)/Eh
   ------------------------------------------------------------------------
    298.15    0.489815E-01    0.729380E+00    0.127818E+00    0.601562E+00
   ------------------------------------------------------------------------

         :::::::::::::::::::::::::::::::::::::::::::::::::::::
         ::                  THERMODYNAMIC                  ::
         :::::::::::::::::::::::::::::::::::::::::::::::::::::
         :: total free energy        -150.251465756936 Eh   ::
         ::.................................................::
         :: total energy             -150.853028240515 Eh   ::
         :: zero point energy           0.680398491444 Eh   ::
         :: G(RRHO) w/o ZPVE           -0.078836007865 Eh   ::
         :: G(RRHO) contrib.            0.601562483579 Eh   ::
         :::::::::::::::::::::::::::::::::::::::::::::::::::::

           -------------------------------------------------
          | TOTAL ENERGY             -150.853028240515 Eh   |
          | TOTAL ENTHALPY           -150.123648206933 Eh   |
          | TOTAL FREE ENERGY        -150.251465756936 Eh   |
          | GRADIENT NORM               0.000090532279 Eh/α |
          | HOMO-LUMO GAP               2.233967036742 eV   |
           -------------------------------------------------

 * finished run on 2025/09/09 at 09:39:22.185
