   * xtb version 6.7.1 (edcfbbe) compiled by 'albert@albert-system' on 2024-07-22

   ID    Z sym.   atoms
    1    6 C      1-4, 6-16, 18, 20, 22-32
    2    7 N      5, 17, 21
    3    8 O      19
    4    1 H      33-49

          program call               : xtb data2507/toluene/3PCzPFP/3PCzPFP_toluene_T1_crest.xyz --gfn 2 --uhf 2 --gbsa toluene --ohess vtight --parallel 40 --molden --ceasefiles --namespace data2507/toluene/3PCzPFP/3PCzPFP_toluene_T1_finalOpt
      * Solvation model:               GBSA
        Solvent                        toluene
        Solvent mass                       9.2140E+01 g/mol
          :  Hamiltonian                  GFN2-xTB          :
 * total energy  :   -81.4533741 Eh     change       -0.1551747E-07 Eh
 * total energy  :   -81.4534922 Eh     change       -0.1180600E-03 Eh
 * total energy  :   -81.4535413 Eh     change       -0.4912352E-04 Eh
 * total energy  :   -81.4535458 Eh     change       -0.4467943E-05 Eh
 * total energy  :   -81.4535437 Eh     change        0.2048550E-05 Eh
 * total energy  :   -81.4535471 Eh     change       -0.3374766E-05 Eh
 * total energy  :   -81.4535492 Eh     change       -0.2079445E-05 Eh
 * total energy  :   -81.4535505 Eh     change       -0.1331348E-05 Eh
 * total energy  :   -81.4535524 Eh     change       -0.1904343E-05 Eh
 * total energy  :   -81.4535535 Eh     change       -0.1065624E-05 Eh
 * total energy  :   -81.4535539 Eh     change       -0.3988778E-06 Eh
 * total energy  :   -81.4535539 Eh     change       -0.5313647E-07 Eh
   *** GEOMETRY OPTIMIZATION CONVERGED AFTER 12 ITERATIONS ***

 final structure:
================
49
 xtb: 6.7.1 (edcfbbe)
C           -6.23037252173185        3.47394972443553       -0.22671393019724
C           -6.30195721036437        2.61886438417702        0.86198200956627
C           -5.45867338244031        1.52655702065448        0.94775846032691
C           -4.53396199452876        1.28575357543819       -0.06588846310597
N           -3.67322057604804        0.18009107298368        0.01761707966676
C           -4.06617060464521       -1.12861590855936        0.24735294458470
C           -5.34077544415852       -1.65115740019337        0.40087276676755
C           -5.45568445662495       -3.01892202119432        0.60220389465317
C           -4.33525742147476       -3.84168825934003        0.63800319866202
C           -3.06038980516217       -3.32652599425294        0.45846413984535
C           -2.92240482139734       -1.96144133073882        0.25657495905935
C           -1.79128635378092       -1.10223185469692        0.01806965446682
C           -0.43275650256019       -1.32549804672372       -0.07895014529370
C            0.42595996279401       -0.23826721709036       -0.28643178628935
C            1.86361413636171       -0.44813310785903       -0.36987786428672
C            2.35003596830371       -1.59385360383667       -1.04677425081618
N            3.66050405788770       -1.86924613334878       -1.17529871140743
C            4.50585626742335       -1.01578461202205       -0.68062041489100
O            5.84471536881744       -1.21275151551113       -0.66978259884672
C            6.38059684132495       -0.11387374320313       -0.05767856871785
N            7.65952431810971        0.03738697625543        0.11735292351388
C            8.05193441825340        1.16883133537292        0.74538905290495
C            7.15630961624282        2.12516537341729        1.20411766341400
C            5.79572958122264        1.96678372731379        1.02302450755652
C            5.36432350556051        0.79376770464934        0.36075817393736
C            4.15052400816849        0.22086949446631       -0.04419941122348
C            2.77211854814251        0.47465542212866        0.12889722515987
C           -0.11034391879341        1.05930106626785       -0.40362664076807
C           -1.46336329339243        1.30117309120500       -0.31977414722820
C           -2.31296335254958        0.21384459780230       -0.12244261262765
C           -4.46260177964105        2.14396218706824       -1.16082489380998
C           -5.30999324525106        3.23399955770007       -1.23507017084114
H           -6.89037280477908        4.32574153402821       -0.28898975344278
H           -7.01311576258930        2.80674464812712        1.65224629815793
H           -5.49353597530427        0.87151205916996        1.80520450756425
H           -6.21628026420377       -1.02249062614335        0.35528848640665
H           -6.43608310240668       -3.45222938019171        0.72941525852507
H           -4.46274273699893       -4.90163521438479        0.79910074371595
H           -2.19481403035368       -3.97055714483614        0.47162335917704
H           -0.02752358162370       -2.31862562848297        0.03454185496616
H            1.69149656778301       -2.25370144711066       -1.58561361865561
H            9.11818525918994        1.27432838486695        0.86619848711105
H            7.54172967573192        3.00155984730821        1.70327105496313
H            5.08372293209889        2.70312593721771        1.36082586338430
H            2.44988775128015        1.33144590249445        0.69873011341587
H            0.56505819900944        1.88341772748045       -0.57256804656672
H           -1.85019794610103        2.30561225372061       -0.39315164190775
H           -3.75996778017893        1.93891876209675       -1.95456435928534
H           -5.25590105742192        3.89422116297349       -2.08762177326390

          :  Hamiltonian                  GFN2-xTB          :
         :: gradient norm              0.000115793219 Eh/a0 ::
         :: HOMO-LUMO gap              0.134505510334 eV    ::
         :: SCC energy               -82.874420393111 Eh    ::
         :: -> dispersion             -0.063834090782 Eh    ::
         :: -> Gsolv                  -0.043267269467 Eh    ::
         :: repulsion energy           1.420866445021 Eh    ::

    * Orbital Energies and Occupations

         #    Occupation            Energy/Eh            Energy/eV
      -------------------------------------------------------------
         1        2.0000           -0.7417262             -20.1834
       ...           ...                  ...                  ...
        64        2.0000           -0.4381289             -11.9221
        65        2.0000           -0.4331923             -11.7878
        66        2.0000           -0.4302614             -11.7080
        67        2.0000           -0.4236635             -11.5285
        68        2.0000           -0.4227675             -11.5041
        69        2.0000           -0.4186629             -11.3924
        70        2.0000           -0.4024220             -10.9505
        71        2.0000           -0.3955585             -10.7637
        72        2.0000           -0.3858363             -10.4991
        73        2.0000           -0.3841035             -10.4520
        74        1.8559           -0.3763470             -10.2409
        75        1.1442           -0.3729629             -10.1488
        76        0.9308           -0.2676514              -7.2832 (HOMO)
        77        0.0689           -0.2627075              -7.1486 (LUMO)
        78        0.0003           -0.2573832              -7.0038
        79                         -0.2455845              -6.6827
        80                         -0.2418544              -6.5812
        81                         -0.2361726              -6.4266
        82                         -0.2209384              -6.0120
        83                         -0.2057574              -5.5989
        84                         -0.2040313              -5.5520
        85                         -0.1884926              -5.1291
        86                         -0.1239091              -3.3717
        87                         -0.1129429              -3.0733
       ...                                ...                  ...
       145                          0.7530284              20.4909
      -------------------------------------------------------------
                  HL-Gap            0.0049438 Eh            0.1345 eV

     #   Z          covCN         q      C6AA      α(0)
     1   6 C        2.919    -0.026    28.649     8.777
     2   6 C        2.919    -0.024    28.598     8.770
     3   6 C        2.921    -0.037    28.921     8.819
     4   6 C        2.914     0.060    26.653     8.466
     5   7 N        2.803     0.000    21.256     6.848
     6   6 C        3.074     0.045    26.908     8.505
     7   6 C        2.909    -0.040    29.004     8.831
     8   6 C        2.923    -0.030    28.761     8.795
     9   6 C        2.919    -0.030    28.749     8.793
    10   6 C        2.912    -0.027    28.687     8.783
    11   6 C        3.062    -0.011    28.227     8.712
    12   6 C        3.061    -0.007    28.137     8.699
    13   6 C        2.915    -0.031    28.774     8.796
    14   6 C        2.977     0.018    27.607     8.619
    15   6 C        2.970     0.000    28.018     8.682
    16   6 C        2.916     0.014    27.700     8.631
    17   7 N        1.829    -0.254    27.454     7.764
    18   6 C        3.098     0.223    23.209     7.895
    19   8 O        1.714    -0.239    17.959     5.722
    20   6 C        3.107     0.217    23.319     7.912
    21   7 N        1.830    -0.266    27.767     7.808
    22   6 C        2.917     0.021    27.546     8.607
    23   6 C        2.912    -0.049    29.207     8.862
    24   6 C        2.915    -0.052    29.281     8.873
    25   6 C        3.052    -0.050    29.200     8.862
    26   6 C        3.049    -0.053    29.254     8.871
    27   6 C        2.916    -0.056    29.379     8.888
    28   6 C        2.925    -0.034    28.855     8.809
    29   6 C        2.906    -0.041    29.016     8.832
    30   6 C        3.071     0.050    26.795     8.488
    31   6 C        2.921    -0.037    28.930     8.820
    32   6 C        2.919    -0.024    28.597     8.769
    33   1 H        0.926     0.048     2.343     2.394
    34   1 H        0.926     0.050     2.320     2.382
    35   1 H        0.926     0.052     2.297     2.370
    36   1 H        0.926     0.048     2.345     2.395
    37   1 H        0.926     0.045     2.380     2.412
    38   1 H        0.926     0.044     2.400     2.423
    39   1 H        0.926     0.044     2.391     2.418
    40   1 H        0.926     0.050     2.318     2.381
    41   1 H        0.926     0.044     2.400     2.422
    42   1 H        0.926     0.033     2.541     2.493
    43   1 H        0.926     0.037     2.491     2.468
    44   1 H        0.926     0.032     2.556     2.500
    45   1 H        0.926     0.040     2.443     2.444
    46   1 H        0.926     0.049     2.334     2.389
    47   1 H        0.926     0.053     2.286     2.365
    48   1 H        0.926     0.050     2.314     2.379
    49   1 H        0.926     0.049     2.328     2.386

molecular dipole:
                 x           y           z       tot (Debye)
 q only:       -6.728       1.163       0.419
   full:       -6.813       1.494       0.565      17.787

 projected vibrational frequencies (cm⁻¹)
eigval :       -0.00    -0.00    -0.00     0.00     0.00     0.00
eigval :       21.93    26.34    35.95    59.47    63.48    69.41
eigval :       86.17   111.75   123.13   134.38   162.46   173.98
eigval :      192.40   228.27   240.00   256.19   265.51   279.49
eigval :      324.62   338.23   360.40   378.40   388.17   392.39
eigval :      411.74   420.11   425.52   433.53   465.45   475.91
eigval :      497.44   508.16   522.46   542.65   546.73   569.44
eigval :      581.39   587.93   589.39   605.27   613.64   619.72
eigval :      649.46   657.07   668.94   669.31   679.10   682.31
eigval :      688.34   704.14   714.64   747.97   751.19   759.63
eigval :      768.56   770.00   801.74   821.44   838.93   863.04
eigval :      863.46   867.42   875.21   876.31   898.45   903.46
eigval :      907.55   912.95   918.27   921.48   929.86   931.28
eigval :      978.72   994.24  1017.95  1049.32  1064.51  1070.44
eigval :     1076.45  1080.02  1112.78  1116.63  1126.34  1143.29
eigval :     1151.28  1164.53  1173.14  1176.88  1177.12  1194.59
eigval :     1195.33  1206.95  1214.56  1230.41  1241.89  1262.22
eigval :     1266.70  1278.50  1285.50  1287.06  1310.79  1315.04
eigval :     1329.47  1338.35  1344.38  1359.63  1386.29  1402.13
eigval :     1412.67  1428.65  1433.29  1444.88  1458.99  1462.59
eigval :     1468.12  1487.19  1505.34  1510.60  1545.13  1551.61
eigval :     1568.12  1572.14  1578.27  1581.31  3076.22  3082.89
eigval :     3084.61  3084.85  3085.60  3088.82  3090.75  3091.92
eigval :     3093.31  3094.64  3095.58  3097.49  3099.89  3101.80
eigval :     3102.79  3103.58  3104.96

   temp. (K)  partition function   enthalpy   heat capacity  entropy
                                   cal/mol     cal/K/mol   cal/K/mol   J/K/mol
 298.15  VIB  0.104E+10            13328.292     90.122     79.956
         ROT  0.303E+08              888.752      2.981     37.212
         INT  0.316E+17            14217.044     93.103    117.168
         TR   0.807E+28             1481.254      4.968     43.914
         TOT                       15698.2982    98.0713   161.0821   673.9675

       T/K    H(0)-H(T)+PV         H(T)/Eh          T*S/Eh         G(T)/Eh
   ------------------------------------------------------------------------
    298.15    0.250168E-01    0.384700E+00    0.765353E-01    0.308164E+00
   ------------------------------------------------------------------------

         :::::::::::::::::::::::::::::::::::::::::::::::::::::
         ::                  THERMODYNAMIC                  ::
         :::::::::::::::::::::::::::::::::::::::::::::::::::::
         :: total free energy         -81.145389491774 Eh   ::
         ::.................................................::
         :: total energy              -81.453553949016 Eh   ::
         :: zero point energy           0.359682924806 Eh   ::
         :: G(RRHO) w/o ZPVE           -0.051518467564 Eh   ::
         :: G(RRHO) contrib.            0.308164457242 Eh   ::
         :::::::::::::::::::::::::::::::::::::::::::::::::::::

           -------------------------------------------------
          | TOTAL ENERGY              -81.453553949016 Eh   |
          | TOTAL ENTHALPY            -81.068854193622 Eh   |
          | TOTAL FREE ENERGY         -81.145389491774 Eh   |
          | GRADIENT NORM               0.000112618897 Eh/α |
          | HOMO-LUMO GAP               0.134528016122 eV   |
           -------------------------------------------------

 * finished run on 2025/09/09 at 09:11:23.484
