   * xtb version 6.7.1 (edcfbbe) compiled by 'albert@albert-system' on 2024-07-22

   ID    Z sym.   atoms
    1    6 C      1-4, 6-16, 18, 20, 22-32
    2    7 N      5, 17, 21
    3    8 O      19
    4    1 H      33-49

          program call               : xtb data2507/toluene/3PCzPFP/3PCzPFP.xyz --gfn 2 --gbsa toluene --ohess vtight --parallel 40 --molden --ceasefiles --namespace data2507/toluene/3PCzPFP/3PCzPFP_toluene_S0_preOpt
      * Solvation model:               GBSA
        Solvent                        toluene
        Solvent mass                       9.2140E+01 g/mol
          :  Hamiltonian                  GFN2-xTB          :
 * total energy  :   -81.5385727 Eh     change       -0.1580020E-08 Eh
 * total energy  :   -81.5493716 Eh     change       -0.1079890E-01 Eh
 * total energy  :   -81.5517256 Eh     change       -0.2353932E-02 Eh
 * total energy  :   -81.5520869 Eh     change       -0.3613482E-03 Eh
 * total energy  :   -81.5523281 Eh     change       -0.2411589E-03 Eh
 * total energy  :   -81.5524195 Eh     change       -0.9147115E-04 Eh
 * total energy  :   -81.5525315 Eh     change       -0.1119668E-03 Eh
 * total energy  :   -81.5526379 Eh     change       -0.1064182E-03 Eh
 * total energy  :   -81.5527244 Eh     change       -0.8649600E-04 Eh
 * total energy  :   -81.5527928 Eh     change       -0.6839317E-04 Eh
 * total energy  :   -81.5532473 Eh     change       -0.1655190E-05 Eh
 * total energy  :   -81.5532487 Eh     change       -0.1416455E-05 Eh
 * total energy  :   -81.5532501 Eh     change       -0.1412486E-05 Eh
 * total energy  :   -81.5532513 Eh     change       -0.1175235E-05 Eh
 * total energy  :   -81.5532521 Eh     change       -0.8383453E-06 Eh
 * total energy  :   -81.5532526 Eh     change       -0.5021020E-06 Eh
 * total energy  :   -81.5532530 Eh     change       -0.3850221E-06 Eh
 * total energy  :   -81.5532534 Eh     change       -0.3816427E-06 Eh
 * total energy  :   -81.5532534 Eh     change       -0.3652346E-08 Eh
   *** GEOMETRY OPTIMIZATION CONVERGED AFTER 44 ITERATIONS ***

 final structure:
================
49
 xtb: 6.7.1 (edcfbbe)
C           -5.67219137751475        3.42402268938341        0.16568343522871
C           -5.96627905693017        2.29483573151337        0.91246013519390
C           -5.13950365521818        1.18731785959644        0.85724797452577
C           -4.01349140943818        1.20228287916720        0.03980106447956
N           -3.17412021621842        0.07638613131565       -0.02482137604682
C           -3.57832540264919       -1.21823380025314       -0.28767795909033
C           -4.84354770973073       -1.70626857142656       -0.58361439233770
C           -4.96967916761365       -3.05830914630796       -0.83977276467232
C           -3.86736960344709       -3.91098462264118       -0.81143586309930
C           -2.60309606122921       -3.42827381875878       -0.53790977825067
C           -2.45094336133791       -2.07190306752519       -0.27866891787146
C           -1.31496583096248       -1.24169435896135        0.01095262870695
C            0.03858543508000       -1.50030156914593        0.15913675799181
C            0.90085367564079       -0.44927509301680        0.44733967605299
C            2.34322723966875       -0.69046432495789        0.58766463189147
C            2.81470877234349       -1.83142526420185        1.25037538171341
N            4.09129526889553       -2.14280376270220        1.41925763276974
C            4.95725471007356       -1.29053173002454        0.91491532405263
O            6.30115268764969       -1.46746408035025        0.99637364588599
C            6.85727896219778       -0.40167089329397        0.37043472606502
N            8.15816839888225       -0.24343978072916        0.25660827132658
C            8.54629667118988        0.85201753519453       -0.38515636660180
C            7.67966987241651        1.79996777833635       -0.91925607250017
C            6.30961746957796        1.62740582703781       -0.79671047059692
C            5.87663761447369        0.49056185158063       -0.13061684986437
C            4.61910621394835       -0.09862447585536        0.23086266708762
C            3.27776037446958        0.20363381177237        0.06509444327132
C            0.38960583697792        0.84728659961426        0.60711273351437
C           -0.95492502829078        1.12432390579386        0.47469963576857
C           -1.80933390236361        0.07727647498682        0.15421315828517
C           -3.72131025191730        2.33508804602224       -0.71372877384910
C           -4.54837226938506        3.44157210865546       -0.64416696151771
H           -6.31768196538301        4.28814883239509        0.21419564277059
H           -6.83959204087809        2.27797173775776        1.54772449078621
H           -5.35405602483360        0.31208858272164        1.45240895400883
H           -5.70104687017000       -1.05174367479785       -0.62309889790065
H           -5.94417011847195       -3.46325725843811       -1.07096130560341
H           -4.00792916565803       -4.96231282562833       -1.01540627292901
H           -1.74700448688282       -4.08631679611488       -0.53014282867761
H            0.41975146784088       -2.50166013561449        0.02911348170352
H            2.12068028754774       -2.53523622392495        1.68818298577927
H            9.61776045730889        0.96702967621850       -0.47068440812199
H            8.08023415208551        2.66324893359255       -1.42606381726745
H            5.60950977448067        2.34293110148177       -1.20051900666766
H            2.96503841317357        1.08925640443380       -0.46699076457795
H            1.06664937121802        1.64661955644189        0.86974976534458
H           -1.32912626208871        2.12540997561419        0.62556585077912
H           -2.85512093176947        2.33710128765012       -1.35865857930101
H           -4.31766095676450        4.31841395640403       -1.23111566763346

          :  Hamiltonian                  GFN2-xTB          :
         :: gradient norm              0.000047253935 Eh/a0 ::
         :: HOMO-LUMO gap              2.183772903679 eV    ::
         :: SCC energy               -82.987358862477 Eh    ::
         :: -> dispersion             -0.063987744157 Eh    ::
         :: -> Gsolv                  -0.036448616499 Eh    ::
         :: repulsion energy           1.434105491748 Eh    ::

    * Orbital Energies and Occupations

         #    Occupation            Energy/Eh            Energy/eV
      -------------------------------------------------------------
         1        2.0000           -0.7570746             -20.6010
       ...           ...                  ...                  ...
        63        2.0000           -0.4325310             -11.7698
        64        2.0000           -0.4284480             -11.6587
        65        2.0000           -0.4245826             -11.5535
        66        2.0000           -0.4233469             -11.5199
        67        2.0000           -0.4199639             -11.4278
        68        2.0000           -0.4141879             -11.2706
        69        2.0000           -0.4139266             -11.2635
        70        2.0000           -0.4119233             -11.2090
        71        2.0000           -0.4030286             -10.9670
        72        2.0000           -0.3908437             -10.6354
        73        2.0000           -0.3884828             -10.5712
        74        2.0000           -0.3828248             -10.4172
        75        2.0000           -0.3650339              -9.9331 (HOMO)
        76                         -0.2847818              -7.7493 (LUMO)
        77                         -0.2658336              -7.2337
        78                         -0.2504266              -6.8145
        79                         -0.2446158              -6.6563
        80                         -0.2343793              -6.3778
        81                         -0.2328166              -6.3353
        82                         -0.2279894              -6.2039
        83                         -0.2157673              -5.8713
        84                         -0.1916661              -5.2155
        85                         -0.1866724              -5.0796
        86                         -0.1316939              -3.5836
       ...                                ...                  ...
       145                          0.7426593              20.2088
      -------------------------------------------------------------
                  HL-Gap            0.0802522 Eh            2.1838 eV

     #   Z          covCN         q      C6AA      α(0)
     1   6 C        2.919    -0.032    28.799     8.800
     2   6 C        2.920    -0.027    28.686     8.783
     3   6 C        2.922    -0.041    29.028     8.835
     4   6 C        2.913     0.063    26.587     8.455
     5   7 N        2.802    -0.041    22.027     6.971
     6   6 C        3.078     0.047    26.853     8.496
     7   6 C        2.909    -0.051    29.255     8.869
     8   6 C        2.924    -0.034    28.839     8.807
     9   6 C        2.920    -0.041    29.027     8.835
    10   6 C        2.912    -0.034    28.840     8.806
    11   6 C        3.067    -0.018    28.388     8.737
    12   6 C        3.066    -0.017    28.356     8.732
    13   6 C        2.917    -0.039    28.961     8.825
    14   6 C        2.976    -0.004    28.127     8.700
    15   6 C        2.976    -0.003    28.091     8.694
    16   6 C        2.941     0.054    26.795     8.490
    17   7 N        1.830    -0.262    27.660     7.793
    18   6 C        3.130     0.215    23.293     7.902
    19   8 O        1.714    -0.220    17.656     5.673
    20   6 C        3.128     0.219    23.227     7.891
    21   7 N        1.830    -0.259    27.583     7.783
    22   6 C        2.936     0.059    26.684     8.472
    23   6 C        2.918    -0.048    29.192     8.860
    24   6 C        2.919    -0.016    28.401     8.739
    25   6 C        3.056    -0.033    28.770     8.796
    26   6 C        3.050    -0.035    28.819     8.804
    27   6 C        2.923    -0.025    28.619     8.773
    28   6 C        2.928    -0.038    28.953     8.824
    29   6 C        2.908    -0.051    29.257     8.869
    30   6 C        3.077     0.048    26.845     8.495
    31   6 C        2.922    -0.042    29.041     8.837
    32   6 C        2.920    -0.028    28.690     8.784
    33   1 H        0.926     0.040     2.447     2.446
    34   1 H        0.926     0.041     2.433     2.439
    35   1 H        0.926     0.042     2.416     2.431
    36   1 H        0.926     0.033     2.548     2.496
    37   1 H        0.926     0.032     2.552     2.498
    38   1 H        0.926     0.030     2.586     2.515
    39   1 H        0.926     0.032     2.560     2.502
    40   1 H        0.926     0.035     2.522     2.483
    41   1 H        0.926     0.055     2.261     2.351
    42   1 H        0.926     0.057     2.235     2.338
    43   1 H        0.926     0.060     2.196     2.318
    44   1 H        0.926     0.060     2.201     2.320
    45   1 H        0.926     0.058     2.225     2.333
    46   1 H        0.926     0.036     2.497     2.471
    47   1 H        0.926     0.038     2.482     2.463
    48   1 H        0.926     0.042     2.419     2.432
    49   1 H        0.926     0.041     2.433     2.439

molecular dipole:
                 x           y           z       tot (Debye)
 q only:       -1.897       1.829      -0.732
   full:       -2.132       2.267      -0.967       8.284

 projected vibrational frequencies (cm⁻¹)
eigval :       -0.00    -0.00    -0.00    -0.00     0.00     0.00
eigval :       21.91    24.68    36.47    55.60    60.05    64.71
eigval :       93.11   111.71   124.36   133.61   167.38   175.70
eigval :      204.29   224.34   255.15   260.69   279.12   288.62
eigval :      329.16   364.17   379.79   387.58   395.08   404.49
eigval :      415.45   428.17   436.91   445.80   467.63   483.68
eigval :      522.72   535.79   540.22   545.34   573.17   576.06
eigval :      590.44   594.15   607.46   615.15   628.20   630.26
eigval :      667.06   679.45   680.82   706.93   724.00   726.80
eigval :      737.48   763.87   772.75   776.02   796.42   815.99
eigval :      826.79   853.43   862.49   869.50   874.07   879.90
eigval :      882.17   899.38   902.57   903.53   905.30   911.33
eigval :      913.33   917.84   923.69   929.08   934.10   934.51
eigval :      997.30  1011.98  1032.15  1069.34  1074.51  1078.18
eigval :     1084.83  1115.69  1121.31  1129.60  1154.21  1172.28
eigval :     1177.70  1179.16  1181.08  1182.78  1198.63  1216.02
eigval :     1238.21  1242.11  1247.13  1262.45  1268.31  1272.65
eigval :     1283.11  1306.24  1315.34  1319.19  1331.51  1350.94
eigval :     1354.38  1359.07  1362.47  1380.75  1419.03  1428.27
eigval :     1434.24  1440.23  1461.21  1478.95  1481.65  1492.77
eigval :     1551.97  1563.26  1572.63  1574.57  1581.82  1582.66
eigval :     1592.97  1594.30  1608.78  1613.85  3071.14  3072.79
eigval :     3073.47  3076.97  3078.46  3079.10  3080.26  3086.13
eigval :     3086.35  3087.31  3088.62  3089.76  3090.65  3092.94
eigval :     3094.61  3097.47  3105.43

   temp. (K)  partition function   enthalpy   heat capacity  entropy
                                   cal/mol     cal/K/mol   cal/K/mol   J/K/mol
 298.15  VIB  0.794E+09            12920.430     87.048     77.777
         ROT  0.301E+08              888.752      2.981     37.205
         INT  0.239E+17            13809.182     90.029    114.982
         TR   0.807E+28             1481.254      4.968     43.914
         TOT                       15290.4360    94.9968   158.8962   664.8218

       T/K    H(0)-H(T)+PV         H(T)/Eh          T*S/Eh         G(T)/Eh
   ------------------------------------------------------------------------
    298.15    0.243669E-01    0.389886E+00    0.754967E-01    0.314389E+00
   ------------------------------------------------------------------------

         :::::::::::::::::::::::::::::::::::::::::::::::::::::
         ::                  THERMODYNAMIC                  ::
         :::::::::::::::::::::::::::::::::::::::::::::::::::::
         :: total free energy         -81.238864501291 Eh   ::
         ::.................................................::
         :: total energy              -81.553253370623 Eh   ::
         :: zero point energy           0.365518736181 Eh   ::
         :: G(RRHO) w/o ZPVE           -0.051129866849 Eh   ::
         :: G(RRHO) contrib.            0.314388869332 Eh   ::
         :::::::::::::::::::::::::::::::::::::::::::::::::::::

           -------------------------------------------------
          | TOTAL ENERGY              -81.553253370623 Eh   |
          | TOTAL ENTHALPY            -81.163367773627 Eh   |
          | TOTAL FREE ENERGY         -81.238864501291 Eh   |
          | GRADIENT NORM               0.000047250221 Eh/α |
          | HOMO-LUMO GAP               2.183772904148 eV   |
           -------------------------------------------------

 * finished run on 2025/09/09 at 09:08:22.510
