   * xtb version 6.7.1 (edcfbbe) compiled by 'albert@albert-system' on 2024-07-22

   ID    Z sym.   atoms
    1    6 C      1-4, 6-16, 18, 20, 22-32
    2    7 N      5, 17, 21
    3    8 O      19
    4    1 H      33-49

          program call               : xtb data2507/toluene/3PCzPFP/3PCzPFP_toluene_S0_finalOpt.xtbopt.xyz --gfn 2 --uhf 2 --gbsa toluene --ohess vtight --parallel 40 --molden --ceasefiles --namespace data2507/toluene/3PCzPFP/3PCzPFP_toluene_T1_preOpt
      * Solvation model:               GBSA
        Solvent                        toluene
        Solvent mass                       9.2140E+01 g/mol
          :  Hamiltonian                  GFN2-xTB          :
 * total energy  :   -81.4495711 Eh     change       -0.1313055E-08 Eh
 * total energy  :   -81.4523315 Eh     change       -0.2760384E-02 Eh
 * total energy  :   -81.4531907 Eh     change       -0.8592039E-03 Eh
 * total energy  :   -81.4533379 Eh     change       -0.1472710E-03 Eh
 * total energy  :   -81.4534183 Eh     change       -0.8036911E-04 Eh
 * total energy  :   -81.4534388 Eh     change       -0.2050572E-04 Eh
 * total energy  :   -81.4534510 Eh     change       -0.1221192E-04 Eh
 * total energy  :   -81.4534597 Eh     change       -0.8684379E-05 Eh
 * total energy  :   -81.4534660 Eh     change       -0.6298365E-05 Eh
 * total energy  :   -81.4534732 Eh     change       -0.7148846E-05 Eh
 * total energy  :   -81.4534821 Eh     change       -0.1236837E-05 Eh
 * total energy  :   -81.4534831 Eh     change       -0.1063790E-05 Eh
 * total energy  :   -81.4534842 Eh     change       -0.1103026E-05 Eh
 * total energy  :   -81.4534853 Eh     change       -0.1125832E-05 Eh
 * total energy  :   -81.4534865 Eh     change       -0.1118955E-05 Eh
 * total energy  :   -81.4534874 Eh     change       -0.9249394E-06 Eh
 * total energy  :   -81.4534880 Eh     change       -0.6519236E-06 Eh
 * total energy  :   -81.4534885 Eh     change       -0.4381629E-06 Eh
 * total energy  :   -81.4534885 Eh     change       -0.1332371E-07 Eh
   *** GEOMETRY OPTIMIZATION CONVERGED AFTER 22 ITERATIONS ***

 final structure:
================
49
 xtb: 6.7.1 (edcfbbe)
C           -6.97992357206839        2.40253155535337        0.75767422753864
C           -6.80178636256183        1.24703860586271        1.50242494474295
C           -5.71154191282984        0.42899584691817        1.27091947547350
C           -4.78960824869109        0.76798443710541        0.28301287190329
N           -3.68210732492155       -0.05976804606557        0.04254171542266
C           -3.73478812715298       -1.42644112293763       -0.18158271844025
C           -4.83611198204824       -2.26415920645102       -0.26017469967847
C           -4.60656452431202       -3.60709958567874       -0.52303231888833
C           -3.31942172301554       -4.09719897445689       -0.71320442240013
C           -2.21672480755711       -3.25806518825322       -0.65875395293239
C           -2.42316159572614       -1.91210762471753       -0.39526374988783
C           -1.54557886986188       -0.77518337407196       -0.28824237310952
C           -0.17727054717512       -0.61881021101684       -0.38268634832761
C            0.37971558373019        0.65304026754272       -0.20003348733233
C            1.82062936773113        0.84295294729623       -0.28063888169707
C            2.32390743603223        1.99980860450106       -0.92357636661660
N            3.63819056868006        2.25940321581836       -1.04478201172515
C            4.47033685963996        1.37911734361153       -0.57461316455417
O            5.81182964187968        1.55678965602626       -0.55676063553514
C            6.33120410607907        0.43353717259492        0.02413751256778
N            7.60748370621329        0.25941046620488        0.19731204343383
C            7.98292001928854       -0.89496026530514        0.79280778375199
C            7.07304093402636       -1.85174333473509        1.22189868746364
C            5.71527698896679       -1.66952202862813        1.04273566596590
C            5.30156739655682       -0.47185947775757        0.41401855393886
C            4.09654711641767        0.12971602293871        0.02416786067754
C            2.71417881796012       -0.10971062780492        0.18839241798879
C           -0.46158488569253        1.74979374618401        0.07206820270112
C           -1.82795580619357        1.61320368062837        0.17600426554368
C           -2.37770998892972        0.34753719938590       -0.02165937358904
C           -4.96884846487427        1.92873440499473       -0.46623995081663
C           -6.06155944899551        2.74045243966973       -0.22407438629520
H           -7.83209889632581        3.03864851263792        0.94243752273256
H           -7.51088646660482        0.98448607053992        2.27300126545271
H           -5.55488641802043       -0.45837914588281        1.86541442549819
H           -5.83948418201628       -1.88858535941448       -0.13419202257263
H           -5.44609760313228       -4.28266542847871       -0.58557720785153
H           -3.17828559569507       -5.14838895144560       -0.91531539452509
H           -1.22092920091727       -3.64003964495462       -0.82203182798961
H            0.45975371799967       -1.46116571708849       -0.60212583343762
H            1.67380714455019        2.68635216679511       -1.43899204912078
H            9.04725757415275       -1.01845987793187        0.91321021306397
H            7.44551449948395       -2.74724638944088        1.69631724267247
H            4.99250160725087       -2.40517602769789        1.35838465637190
H            2.37797965546754       -0.97904152012291        0.73042399600945
H           -0.01047758875316        2.71619553406104        0.23507871577556
H           -2.44999198697364        2.46053255347368        0.41859638072381
H           -4.26475778852451        2.17401107850625       -1.24705456401655
H           -6.19998343432585        3.63686993675911       -0.80963203325511

          :  Hamiltonian                  GFN2-xTB          :
         :: gradient norm              0.000065774895 Eh/a0 ::
         :: HOMO-LUMO gap              0.132652455618 eV    ::
         :: SCC energy               -82.874379293039 Eh    ::
         :: -> dispersion             -0.063851074238 Eh    ::
         :: -> Gsolv                  -0.043207626003 Eh    ::
         :: repulsion energy           1.420890800547 Eh    ::

    * Orbital Energies and Occupations

         #    Occupation            Energy/Eh            Energy/eV
      -------------------------------------------------------------
         1        2.0000           -0.7418361             -20.1864
       ...           ...                  ...                  ...
        64        2.0000           -0.4351000             -11.8397
        65        2.0000           -0.4335111             -11.7964
        66        2.0000           -0.4317728             -11.7491
        67        2.0000           -0.4235762             -11.5261
        68        2.0000           -0.4229466             -11.5090
        69        2.0000           -0.4186770             -11.3928
        70        2.0000           -0.4023889             -10.9496
        71        2.0000           -0.3957908             -10.7700
        72        2.0000           -0.3859823             -10.5031
        73        1.9999           -0.3840814             -10.4514
        74        1.8507           -0.3764832             -10.2446
        75        1.1494           -0.3731778             -10.1547
        76        0.9285           -0.2677046              -7.2846 (HOMO)
        77        0.0713           -0.2628294              -7.1520 (LUMO)
        78        0.0002           -0.2571409              -6.9972
        79                         -0.2455492              -6.6817
        80                         -0.2417091              -6.5772
        81                         -0.2362541              -6.4288
        82                         -0.2207967              -6.0082
        83                         -0.2058483              -5.6014
        84                         -0.2042007              -5.5566
        85                         -0.1890267              -5.1437
        86                         -0.1239394              -3.3726
        87                         -0.1127669              -3.0685
       ...                                ...                  ...
       145                          0.7529265              20.4882
      -------------------------------------------------------------
                  HL-Gap            0.0048752 Eh            0.1327 eV

     #   Z          covCN         q      C6AA      α(0)
     1   6 C        2.919    -0.026    28.647     8.777
     2   6 C        2.919    -0.024    28.598     8.770
     3   6 C        2.921    -0.037    28.923     8.819
     4   6 C        2.914     0.060    26.652     8.466
     5   7 N        2.803     0.000    21.255     6.847
     6   6 C        3.074     0.045    26.911     8.505
     7   6 C        2.909    -0.040    29.005     8.831
     8   6 C        2.923    -0.031    28.765     8.795
     9   6 C        2.919    -0.030    28.754     8.793
    10   6 C        2.912    -0.028    28.692     8.783
    11   6 C        3.062    -0.011    28.229     8.713
    12   6 C        3.061    -0.007    28.144     8.700
    13   6 C        2.915    -0.030    28.747     8.792
    14   6 C        2.977     0.018    27.604     8.618
    15   6 C        2.970     0.000    28.020     8.683
    16   6 C        2.916     0.014    27.690     8.629
    17   7 N        1.829    -0.254    27.458     7.765
    18   6 C        3.099     0.223    23.207     7.895
    19   8 O        1.714    -0.239    17.956     5.721
    20   6 C        3.107     0.217    23.319     7.912
    21   7 N        1.830    -0.266    27.752     7.806
    22   6 C        2.917     0.021    27.546     8.607
    23   6 C        2.912    -0.049    29.206     8.862
    24   6 C        2.915    -0.051    29.277     8.873
    25   6 C        3.052    -0.050    29.199     8.862
    26   6 C        3.049    -0.052    29.251     8.870
    27   6 C        2.917    -0.056    29.386     8.889
    28   6 C        2.925    -0.035    28.883     8.813
    29   6 C        2.906    -0.041    29.009     8.831
    30   6 C        3.071     0.051    26.794     8.487
    31   6 C        2.921    -0.037    28.930     8.820
    32   6 C        2.919    -0.024    28.596     8.769
    33   1 H        0.926     0.048     2.342     2.393
    34   1 H        0.926     0.050     2.320     2.382
    35   1 H        0.926     0.052     2.296     2.370
    36   1 H        0.926     0.048     2.344     2.394
    37   1 H        0.926     0.045     2.383     2.414
    38   1 H        0.926     0.043     2.405     2.425
    39   1 H        0.926     0.044     2.399     2.422
    40   1 H        0.926     0.050     2.315     2.379
    41   1 H        0.926     0.044     2.397     2.421
    42   1 H        0.926     0.033     2.538     2.491
    43   1 H        0.926     0.037     2.488     2.467
    44   1 H        0.926     0.032     2.551     2.498
    45   1 H        0.926     0.040     2.450     2.448
    46   1 H        0.926     0.048     2.344     2.394
    47   1 H        0.926     0.053     2.284     2.363
    48   1 H        0.926     0.051     2.311     2.377
    49   1 H        0.926     0.050     2.325     2.385

molecular dipole:
                 x           y           z       tot (Debye)
 q only:       -6.745      -0.858       0.434
   full:       -6.846      -1.112       0.583      17.690

 projected vibrational frequencies (cm⁻¹)
eigval :       -0.00    -0.00    -0.00    -0.00     0.00     0.00
eigval :       18.96    25.95    33.29    59.17    63.60    64.55
eigval :       89.37   107.11   126.55   136.94   161.91   185.42
eigval :      190.11   222.65   248.49   256.63   262.45   278.68
eigval :      318.29   338.36   360.33   379.03   391.79   393.55
eigval :      408.53   420.67   424.24   429.89   464.14   474.63
eigval :      499.15   510.35   531.56   538.65   544.52   567.01
eigval :      580.86   587.04   591.15   604.24   613.32   620.95
eigval :      650.31   656.91   666.58   672.34   679.40   684.48
eigval :      688.84   706.85   714.84   745.25   755.66   761.86
eigval :      769.52   772.13   800.55   820.82   838.58   861.99
eigval :      863.67   866.01   877.06   877.59   898.43   903.32
eigval :      909.54   913.15   917.45   921.37   930.83   933.35
eigval :      978.29   994.14  1016.93  1052.63  1064.92  1072.52
eigval :     1077.28  1081.10  1112.81  1116.88  1129.07  1139.03
eigval :     1154.14  1165.97  1171.65  1175.25  1178.84  1195.59
eigval :     1202.35  1206.14  1214.53  1227.76  1244.52  1256.83
eigval :     1266.80  1274.78  1281.00  1287.33  1311.08  1315.22
eigval :     1331.17  1339.94  1344.82  1359.00  1388.18  1398.71
eigval :     1415.10  1429.26  1434.91  1444.63  1459.00  1461.15
eigval :     1467.12  1484.05  1506.52  1511.60  1544.71  1552.44
eigval :     1567.86  1571.85  1579.18  1581.40  3077.11  3083.37
eigval :     3083.52  3085.19  3085.78  3089.52  3090.60  3092.43
eigval :     3093.85  3094.92  3096.18  3097.99  3101.11  3101.62
eigval :     3101.94  3103.03  3105.18

   temp. (K)  partition function   enthalpy   heat capacity  entropy
                                   cal/mol     cal/K/mol   cal/K/mol   J/K/mol
 298.15  VIB  0.132E+10            13330.027     89.978     80.030
         ROT  0.292E+08              888.752      2.981     37.141
         INT  0.385E+17            14218.779     92.959    117.170
         TR   0.807E+28             1481.254      4.968     43.914
         TOT                       15700.0329    97.9274   161.0847   673.9785

       T/K    H(0)-H(T)+PV         H(T)/Eh          T*S/Eh         G(T)/Eh
   ------------------------------------------------------------------------
    298.15    0.250196E-01    0.384752E+00    0.765366E-01    0.308215E+00
   ------------------------------------------------------------------------

         :::::::::::::::::::::::::::::::::::::::::::::::::::::
         ::                  THERMODYNAMIC                  ::
         :::::::::::::::::::::::::::::::::::::::::::::::::::::
         :: total free energy         -81.145273476680 Eh   ::
         ::.................................................::
         :: total energy              -81.453488490801 Eh   ::
         :: zero point energy           0.359731971239 Eh   ::
         :: G(RRHO) w/o ZPVE           -0.051516957119 Eh   ::
         :: G(RRHO) contrib.            0.308215014121 Eh   ::
         :::::::::::::::::::::::::::::::::::::::::::::::::::::

           -------------------------------------------------
          | TOTAL ENERGY              -81.453488490801 Eh   |
          | TOTAL ENTHALPY            -81.068736924523 Eh   |
          | TOTAL FREE ENERGY         -81.145273476680 Eh   |
          | GRADIENT NORM               0.000066597323 Eh/α |
          | HOMO-LUMO GAP               0.132662072216 eV   |
           -------------------------------------------------

 * finished run on 2025/09/09 at 09:09:32.891
