   * xtb version 6.7.1 (edcfbbe) compiled by 'albert@albert-system' on 2024-07-22

   ID    Z sym.   atoms
    1    6 C      1-4, 6-16, 18, 20, 22-32
    2    7 N      5, 17, 21
    3    8 O      19
    4    1 H      33-49

          program call               : xtb data2507/toluene/3PCzPFP/3PCzPFP_toluene_S0_crest.xyz --gfn 2 --gbsa toluene --ohess vtight --parallel 40 --molden --ceasefiles --namespace data2507/toluene/3PCzPFP/3PCzPFP_toluene_S0_finalOpt
      * Solvation model:               GBSA
        Solvent                        toluene
        Solvent mass                       9.2140E+01 g/mol
          :  Hamiltonian                  GFN2-xTB          :
 * total energy  :   -81.5532831 Eh     change       -0.1395804E-08 Eh
 * total energy  :   -81.5533094 Eh     change       -0.2635509E-04 Eh
 * total energy  :   -81.5533180 Eh     change       -0.8581334E-05 Eh
 * total energy  :   -81.5533205 Eh     change       -0.2474955E-05 Eh
 * total energy  :   -81.5533227 Eh     change       -0.2219200E-05 Eh
 * total energy  :   -81.5533253 Eh     change       -0.2576505E-05 Eh
 * total energy  :   -81.5533282 Eh     change       -0.2898341E-05 Eh
 * total energy  :   -81.5533302 Eh     change       -0.2034959E-05 Eh
 * total energy  :   -81.5533311 Eh     change       -0.8861178E-06 Eh
 * total energy  :   -81.5533314 Eh     change       -0.3192432E-06 Eh
 * total energy  :   -81.5533326 Eh     change       -0.2631135E-06 Eh
 * total energy  :   -81.5533328 Eh     change       -0.1768006E-06 Eh
 * total energy  :   -81.5533329 Eh     change       -0.1481762E-06 Eh
 * total energy  :   -81.5533331 Eh     change       -0.1549640E-06 Eh
 * total energy  :   -81.5533333 Eh     change       -0.1854561E-06 Eh
 * total energy  :   -81.5533334 Eh     change       -0.1650238E-06 Eh
 * total energy  :   -81.5533336 Eh     change       -0.1416490E-06 Eh
 * total energy  :   -81.5533337 Eh     change       -0.1305281E-06 Eh
 * total energy  :   -81.5533337 Eh     change       -0.1384961E-08 Eh
   *** GEOMETRY OPTIMIZATION CONVERGED AFTER 22 ITERATIONS ***

 final structure:
================
49
 xtb: 6.7.1 (edcfbbe)
C           -6.98201784254481        2.39657313455523        0.78951335811054
C           -6.78296494525390        1.25088531213139        1.54253321233105
C           -5.69057369356099        0.43783429065331        1.29985376907859
C           -4.79299230165159        0.76590040106528        0.28844322622988
N           -3.68473928449050       -0.06101400479410        0.03378072719260
C           -3.72793148817498       -1.42292982569944       -0.19191065508753
C           -4.82306452579189       -2.27288303263240       -0.26186957310829
C           -4.58751492088857       -3.60783282625334       -0.52988822816539
C           -3.29669517055091       -4.09314287990343       -0.73287894925383
C           -2.20506782787469       -3.24926227131481       -0.68425467053344
C           -2.41646750873783       -1.90247328463336       -0.41635668744295
C           -1.54481222112421       -0.76553626461830       -0.30978720639064
C           -0.17101383169157       -0.60717370033959       -0.40465930197674
C            0.37937758322563        0.65700602927570       -0.23122358525835
C            1.83221910994116        0.85129354933650       -0.33111423730792
C            2.36009759312860        1.97988765707214       -0.97195709852252
N            3.65084531924312        2.24639081761109       -1.10753780637741
C            4.47328505912034        1.35949881348722       -0.59038298865485
O            5.82419078198809        1.48915632246091       -0.63739675826345
C            6.32663721494122        0.39849442170097       -0.00879734299613
N            7.61795004141455        0.19262708293445        0.13444538886573
C            7.95104749768494       -0.92182014634582        0.77450158461889
C            7.03843503947125       -1.84258635006486        1.27872093338045
C            5.67879940694796       -1.62008194740604        1.12482966716038
C            5.30295673514785       -0.46249242837788        0.45976862753570
C            4.07632446764449        0.17464554329567        0.07415038826377
C            2.72141815264255       -0.08039641668516        0.20490832770816
C           -0.45609234989136        1.74752205360623        0.05317110586405
C           -1.82406071443334        1.61024909971673        0.16070617839507
C           -2.37296846396320        0.34975302847562       -0.03745466358354
C           -4.99572152873117        1.91449110244539       -0.47045011459832
C           -6.08544989721119        2.72680681601102       -0.21365703843814
H           -7.83362742185796        3.03100033318897        0.98445168009873
H           -7.47664259396956        0.99193540396505        2.32883990933098
H           -5.52083635824842       -0.44596475217012        1.89686107097538
H           -5.82763802134385       -1.90352700526224       -0.12172545900467
H           -5.42284994896051       -4.29043128535919       -0.58733569953674
H           -3.15418271392672       -5.14385630572035       -0.93891297288190
H           -1.20683404914024       -3.62344205733118       -0.85604198875201
H            0.45875816833024       -1.45382315042387       -0.63245642119341
H            1.70304409974453        2.71219313106797       -1.41985491209590
H            9.01529454180392       -1.07619486131299        0.88446813757118
H            7.39572185740515       -2.72389394984017        1.78677261183325
H            4.94398912548747       -2.31350776775709        1.50490612982208
H            2.36400278167802       -0.95860320094565        0.72094677922667
H           -0.00935761159735        2.71642687766504        0.21897369270769
H           -2.44514071623907        2.45859004290635        0.40445359105025
H           -4.30506018973353        2.15747190378282       -1.26433340391206
H           -6.23854107940765        3.61746588737970       -0.80511944691500

          :  Hamiltonian                  GFN2-xTB          :
         :: gradient norm              0.000029001380 Eh/a0 ::
         :: HOMO-LUMO gap              2.189712882231 eV    ::
         :: SCC energy               -82.987395144969 Eh    ::
         :: -> dispersion             -0.063985598776 Eh    ::
         :: -> Gsolv                  -0.036380345307 Eh    ::
         :: repulsion energy           1.434061428793 Eh    ::

    * Orbital Energies and Occupations

         #    Occupation            Energy/Eh            Energy/eV
      -------------------------------------------------------------
         1        2.0000           -0.7570687             -20.6009
       ...           ...                  ...                  ...
        63        2.0000           -0.4324775             -11.7683
        64        2.0000           -0.4286796             -11.6650
        65        2.0000           -0.4239593             -11.5365
        66        2.0000           -0.4235140             -11.5244
        67        2.0000           -0.4207587             -11.4494
        68        2.0000           -0.4141709             -11.2702
        69        2.0000           -0.4139675             -11.2646
        70        2.0000           -0.4118313             -11.2065
        71        2.0000           -0.4032228             -10.9723
        72        2.0000           -0.3908331             -10.6351
        73        2.0000           -0.3886989             -10.5770
        74        2.0000           -0.3829678             -10.4211
        75        2.0000           -0.3652389              -9.9387 (HOMO)
        76                         -0.2847685              -7.7489 (LUMO)
        77                         -0.2658442              -7.2340
        78                         -0.2506637              -6.8209
        79                         -0.2446623              -6.6576
        80                         -0.2343738              -6.3776
        81                         -0.2326571              -6.3309
        82                         -0.2279732              -6.2035
        83                         -0.2159226              -5.8756
        84                         -0.1919755              -5.2239
        85                         -0.1867788              -5.0825
        86                         -0.1317024              -3.5838
       ...                                ...                  ...
       145                          0.7430405              20.2192
      -------------------------------------------------------------
                  HL-Gap            0.0804705 Eh            2.1897 eV

     #   Z          covCN         q      C6AA      α(0)
     1   6 C        2.919    -0.032    28.796     8.800
     2   6 C        2.920    -0.027    28.688     8.783
     3   6 C        2.922    -0.041    29.030     8.836
     4   6 C        2.913     0.063    26.590     8.456
     5   7 N        2.802    -0.041    22.026     6.970
     6   6 C        3.078     0.047    26.852     8.496
     7   6 C        2.909    -0.050    29.252     8.869
     8   6 C        2.924    -0.034    28.841     8.807
     9   6 C        2.920    -0.042    29.034     8.836
    10   6 C        2.912    -0.034    28.847     8.807
    11   6 C        3.067    -0.018    28.388     8.737
    12   6 C        3.066    -0.017    28.373     8.735
    13   6 C        2.917    -0.038    28.939     8.822
    14   6 C        2.976    -0.004    28.124     8.699
    15   6 C        2.975    -0.003    28.091     8.694
    16   6 C        2.941     0.053    26.800     8.490
    17   7 N        1.830    -0.262    27.660     7.793
    18   6 C        3.129     0.215    23.293     7.902
    19   8 O        1.714    -0.220    17.655     5.673
    20   6 C        3.128     0.219    23.228     7.891
    21   7 N        1.830    -0.259    27.582     7.782
    22   6 C        2.936     0.059    26.684     8.472
    23   6 C        2.918    -0.048    29.191     8.860
    24   6 C        2.919    -0.016    28.399     8.739
    25   6 C        3.056    -0.033    28.769     8.796
    26   6 C        3.050    -0.035    28.817     8.804
    27   6 C        2.924    -0.024    28.614     8.772
    28   6 C        2.928    -0.039    28.973     8.827
    29   6 C        2.908    -0.050    29.236     8.866
    30   6 C        3.077     0.048    26.843     8.494
    31   6 C        2.922    -0.042    29.036     8.837
    32   6 C        2.920    -0.027    28.686     8.783
    33   1 H        0.926     0.040     2.445     2.445
    34   1 H        0.926     0.041     2.432     2.439
    35   1 H        0.926     0.042     2.416     2.431
    36   1 H        0.926     0.033     2.550     2.497
    37   1 H        0.926     0.032     2.556     2.500
    38   1 H        0.926     0.030     2.590     2.516
    39   1 H        0.926     0.032     2.562     2.503
    40   1 H        0.926     0.036     2.496     2.470
    41   1 H        0.926     0.055     2.257     2.349
    42   1 H        0.926     0.057     2.234     2.337
    43   1 H        0.926     0.060     2.197     2.318
    44   1 H        0.926     0.060     2.202     2.320
    45   1 H        0.926     0.057     2.229     2.334
    46   1 H        0.926     0.035     2.521     2.483
    47   1 H        0.926     0.037     2.483     2.464
    48   1 H        0.926     0.042     2.419     2.432
    49   1 H        0.926     0.041     2.432     2.439

molecular dipole:
                 x           y           z       tot (Debye)
 q only:       -2.076      -0.907       0.824
   full:       -2.344      -1.280       1.058       7.302

 projected vibrational frequencies (cm⁻¹)
eigval :       -0.00    -0.00     0.00     0.00     0.00     0.00
eigval :       19.00    30.18    38.41    57.73    61.09    62.59
eigval :       93.44   108.71   130.78   135.44   167.60   187.32
eigval :      199.85   225.09   256.08   261.41   283.96   285.86
eigval :      328.05   364.52   380.70   386.73   399.82   406.82
eigval :      416.62   428.14   434.55   444.73   472.81   481.64
eigval :      528.11   536.46   539.20   545.11   573.97   575.81
eigval :      590.64   594.44   608.27   613.35   629.11   631.45
eigval :      667.59   680.84   683.13   710.98   723.33   727.50
eigval :      736.51   762.92   774.76   775.55   797.71   818.39
eigval :      823.37   854.01   862.93   868.63   876.59   879.62
eigval :      882.01   899.63   902.06   904.61   905.03   914.14
eigval :      914.45   917.29   922.45   928.78   930.80   934.85
eigval :      997.33  1012.09  1032.18  1069.45  1074.08  1078.90
eigval :     1085.35  1117.16  1120.93  1130.42  1153.75  1173.24
eigval :     1177.05  1179.20  1181.89  1182.82  1198.78  1217.07
eigval :     1236.05  1243.36  1248.05  1263.62  1267.86  1273.48
eigval :     1288.67  1305.55  1315.24  1317.79  1332.66  1349.59
eigval :     1354.47  1359.57  1363.11  1372.71  1418.97  1428.85
eigval :     1433.78  1445.85  1466.68  1478.74  1481.09  1487.26
eigval :     1551.93  1564.07  1572.37  1574.75  1581.75  1582.58
eigval :     1592.83  1594.70  1608.88  1613.84  3071.88  3072.72
eigval :     3073.81  3076.45  3078.14  3078.67  3083.48  3085.73
eigval :     3086.16  3086.85  3087.49  3089.61  3090.45  3093.42
eigval :     3095.57  3096.91  3107.20

   temp. (K)  partition function   enthalpy   heat capacity  entropy
                                   cal/mol     cal/K/mol   cal/K/mol   J/K/mol
 298.15  VIB  0.654E+09            12885.304     87.079     77.540
         ROT  0.292E+08              888.752      2.981     37.139
         INT  0.191E+17            13774.056     90.060    114.679
         TR   0.807E+28             1481.254      4.968     43.914
         TOT                       15255.3099    95.0285   158.5932   663.5540

       T/K    H(0)-H(T)+PV         H(T)/Eh          T*S/Eh         G(T)/Eh
   ------------------------------------------------------------------------
    298.15    0.243109E-01    0.389964E+00    0.753528E-01    0.314611E+00
   ------------------------------------------------------------------------

         :::::::::::::::::::::::::::::::::::::::::::::::::::::
         ::                  THERMODYNAMIC                  ::
         :::::::::::::::::::::::::::::::::::::::::::::::::::::
         :: total free energy         -81.238722955995 Eh   ::
         ::.................................................::
         :: total energy              -81.553333713921 Eh   ::
         :: zero point energy           0.365652630146 Eh   ::
         :: G(RRHO) w/o ZPVE           -0.051041872220 Eh   ::
         :: G(RRHO) contrib.            0.314610757926 Eh   ::
         :::::::::::::::::::::::::::::::::::::::::::::::::::::

           -------------------------------------------------
          | TOTAL ENERGY              -81.553333713921 Eh   |
          | TOTAL ENTHALPY            -81.163370199948 Eh   |
          | TOTAL FREE ENERGY         -81.238722955995 Eh   |
          | GRADIENT NORM               0.000028996956 Eh/α |
          | HOMO-LUMO GAP               2.189712772419 eV   |
           -------------------------------------------------

 * finished run on 2025/09/09 at 09:09:30.270
